Generic title
51006
    1C5    HO5'    1   3.445   5.150   3.425
    1C5     O5'    2   3.374   5.214   3.435
    1C5     C5'    3   3.428   5.339   3.474
    1C5     H5'    4   3.360   5.418   3.441
    1C5    H5''    5   3.524   5.354   3.425
    1C5     C4'    6   3.448   5.356   3.626
    1C5     H4'    7   3.476   5.460   3.646
    1C5     O4'    8   3.330   5.327   3.700
    1C5     C1'    9   3.367   5.286   3.832
    1C5     H1'   10   3.335   5.361   3.904
    1C5      N1   11   3.308   5.155   3.869
    1C5      C6   12   3.258   5.068   3.775
    1C5      H6   13   3.265   5.093   3.669
    1C5      C5   14   3.198   4.953   3.813
    1C5      H5   15   3.159   4.885   3.740
    1C5      C4   16   3.189   4.927   3.953
    1C5      N4   17   3.132   4.820   3.997
    1C5     H41   18   3.135   4.805   4.097
    1C5     H42   19   3.109   4.747   3.933
    1C5      N3   20   3.237   5.009   4.044
    1C5      C2   21   3.299   5.123   4.005
    1C5      O2   22   3.346   5.195   4.092
    1C5     C3'   23   3.557   5.268   3.686
    1C5     H3'   24   3.545   5.165   3.652
    1C5     C2'   25   3.521   5.279   3.834
    1C5     H2'   26   3.556   5.191   3.887
    1C5     O2'   27   3.566   5.398   3.898
    1C5    HO2'   28   3.587   5.375   3.989
    1C5     O3'   29   3.686   5.318   3.655
    2U        P   30   3.812   5.222   3.658
    2U      OP1   31   3.929   5.311   3.635
    2U      OP2   32   3.783   5.112   3.563
    2U      O5'   33   3.815   5.170   3.811
    2U      C5'   34   3.863   5.256   3.913
    2U      H5'   35   3.817   5.354   3.900
    2U     H5''   36   3.971   5.269   3.899
    2U      C4'   37   3.839   5.211   4.058
    2U      H4'   38   3.874   5.292   4.121
    2U      O4'   39   3.701   5.190   4.089
    2U      C1'   40   3.694   5.090   4.190
    2U      H1'   41   3.639   5.128   4.277
    2U       N1   42   3.624   4.967   4.142
    2U       C6   43   3.608   4.938   4.008
    2U       H6   44   3.656   5.000   3.934
    2U       C5   45   3.532   4.831   3.970
    2U       H5   46   3.519   4.809   3.865
    2U       C4   47   3.468   4.744   4.066
    2U       O4   48   3.395   4.649   4.041
    2U       N3   49   3.492   4.779   4.196
    2U       H3   50   3.458   4.716   4.267
    2U       C2   51   3.567   4.885   4.240
    2U       O2   52   3.578   4.907   4.360
    2U      C3'   53   3.914   5.087   4.103
    2U      H3'   54   3.901   5.005   4.032
    2U      C2'   55   3.838   5.060   4.234
    2U      H2'   56   3.851   4.957   4.267
    2U      O2'   57   3.870   5.152   4.339
    2U     HO2'   58   3.844   5.112   4.424
    2U      O3'   59   4.051   5.117   4.123
    3G        P   60   4.162   5.004   4.134
    3G      OP1   61   4.287   5.076   4.167
    3G      OP2   62   4.156   4.920   4.012
    3G      O5'   63   4.120   4.914   4.259
    3G      C5'   64   4.147   4.957   4.391
    3G      H5'   65   4.095   5.051   4.410
    3G     H5''   66   4.254   4.973   4.402
    3G      C4'   67   4.103   4.854   4.495
    3G      H4'   68   4.132   4.888   4.595
    3G      O4'   69   3.962   4.836   4.495
    3G      C1'   70   3.934   4.701   4.531
    3G      H1'   71   3.876   4.696   4.623
    3G       N9   72   3.857   4.638   4.423
    3G       C8   73   3.851   4.671   4.291
    3G       H8   74   3.911   4.750   4.248
    3G       N7   75   3.765   4.602   4.222
    3G       C5   76   3.714   4.511   4.315
    3G       C6   77   3.617   4.406   4.303
    3G       O6   78   3.551   4.373   4.204
    3G       N1   79   3.597   4.335   4.420
    3G       H1   80   3.532   4.259   4.419
    3G       C2   81   3.659   4.363   4.538
    3G       N2   82   3.628   4.286   4.638
    3G      H21   83   3.565   4.207   4.626
    3G      H22   84   3.674   4.293   4.729
    3G       N3   85   3.747   4.462   4.554
    3G       C4   86   3.771   4.532   4.439
    3G      C3'   87   4.167   4.717   4.473
    3G      H3'   88   4.162   4.690   4.368
    3G      C2'   89   4.068   4.630   4.552
    3G      H2'   90   4.066   4.530   4.510
    3G      O2'   91   4.092   4.626   4.692
    3G     HO2'   92   4.099   4.533   4.718
    3G      O3'   93   4.302   4.717   4.518
    4G        P   94   4.400   4.596   4.485
    4G      OP1   95   4.533   4.630   4.540
    4G      OP2   96   4.388   4.567   4.340
    4G      O5'   97   4.338   4.475   4.568
    4G      C5'   98   4.329   4.344   4.514
    4G      H5'   99   4.426   4.296   4.516
    4G     H5''  100   4.293   4.347   4.411
    4G      C4'  101   4.229   4.263   4.597
    4G      H4'  102   4.258   4.269   4.702
    4G      O4'  103   4.096   4.313   4.586
    4G      C1'  104   4.005   4.206   4.568
    4G      H1'  105   3.918   4.217   4.634
    4G       N9  106   3.957   4.205   4.427
    4G       C8  107   3.989   4.292   4.325
    4G       H8  108   4.063   4.369   4.336
    4G       N7  109   3.922   4.272   4.215
    4G       C5  110   3.837   4.166   4.246
    4G       C6  111   3.731   4.102   4.172
    4G       O6  112   3.689   4.125   4.058
    4G       N1  113   3.668   4.001   4.242
    4G       H1  114   3.592   3.953   4.197
    4G       C2  115   3.697   3.969   4.370
    4G       N2  116   3.628   3.874   4.427
    4G      H21  117   3.555   3.825   4.375
    4G      H22  118   3.644   3.862   4.525
    4G       N3  119   3.791   4.027   4.444
    4G       C4  120   3.858   4.125   4.376
    4G      C3'  121   4.225   4.117   4.556
    4G      H3'  122   4.231   4.108   4.448
    4G      C2'  123   4.083   4.078   4.603
    4G      H2'  124   4.046   3.992   4.547
    4G      O2'  125   4.075   4.055   4.743
    4G     HO2'  126   3.982   4.043   4.767
    4G      O3'  127   4.331   4.047   4.620
    5G        P  128   4.411   3.934   4.543
    5G      OP1  129   4.510   3.883   4.640
    5G      OP2  130   4.461   3.994   4.417
    5G      O5'  131   4.299   3.823   4.512
    5G      C5'  132   4.237   3.751   4.618
    5G      H5'  133   4.202   3.822   4.693
    5G     H5''  134   4.311   3.686   4.665
    5G      C4'  135   4.116   3.666   4.575
    5G      H4'  136   4.075   3.617   4.664
    5G      O4'  137   4.013   3.744   4.517
    5G      C1'  138   3.943   3.666   4.421
    5G      H1'  139   3.838   3.654   4.450
    5G       N9  140   3.946   3.734   4.290
    5G       C8  141   4.029   3.836   4.249
    5G       H8  142   4.109   3.873   4.311
    5G       N7  143   4.000   3.884   4.132
    5G       C5  144   3.889   3.809   4.090
    5G       C6  145   3.807   3.815   3.972
    5G       O6  146   3.813   3.889   3.874
    5G       N1  147   3.705   3.722   3.971
    5G       H1  148   3.645   3.721   3.891
    5G       C2  149   3.682   3.634   4.071
    5G       N2  150   3.582   3.552   4.054
    5G      H21  151   3.529   3.552   3.967
    5G      H22  152   3.563   3.482   4.125
    5G       N3  153   3.754   3.626   4.183
    5G       C4  154   3.857   3.716   4.187
    5G      C3'  155   4.149   3.556   4.475
    5G      H3'  156   4.214   3.596   4.397
    5G      C2'  157   4.010   3.527   4.417
    5G      H2'  158   4.017   3.489   4.315
    5G      O2'  159   3.933   3.441   4.499
    5G     HO2'  160   3.990   3.369   4.529
    5G      O3'  161   4.210   3.444   4.538
    6U        P  162   4.287   3.332   4.454
    6U      OP1  163   4.417   3.302   4.517
    6U      OP2  164   4.285   3.368   4.311
    6U      O5'  165   4.196   3.203   4.472
    6U      C5'  166   4.189   3.133   4.595
    6U      H5'  167   4.170   3.203   4.676
    6U     H5''  168   4.284   3.083   4.613
    6U      C4'  169   4.077   3.029   4.592
    6U      H4'  170   4.073   2.976   4.687
    6U      O4'  171   3.951   3.093   4.572
    6U      C1'  172   3.870   3.010   4.489
    6U      H1'  173   3.775   2.990   4.538
    6U       N1  174   3.842   3.073   4.357
    6U       C6  175   3.917   3.177   4.307
    6U       H6  176   3.998   3.217   4.365
    6U       C5  177   3.890   3.232   4.186
    6U       H5  178   3.949   3.314   4.149
    6U       C4  179   3.780   3.185   4.106
    6U       O4  180   3.748   3.229   3.997
    6U       N3  181   3.709   3.081   4.162
    6U       H3  182   3.630   3.046   4.110
    6U       C2  183   3.733   3.023   4.284
    6U       O2  184   3.662   2.932   4.325
    6U      C3'  185   4.092   2.926   4.480
    6U      H3'  186   4.120   2.976   4.388
    6U      C2'  187   3.947   2.878   4.469
    6U      H2'  188   3.928   2.838   4.370
    6U      O2'  189   3.907   2.783   4.568
    6U     HO2'  190   3.815   2.758   4.550
    6U      O3'  191   4.183   2.822   4.511
    7C        P  192   4.283   2.767   4.399
    7C      OP1  193   4.346   2.646   4.455
    7C      OP2  194   4.369   2.880   4.356
    7C      O5'  195   4.191   2.727   4.275
    7C      C5'  196   4.100   2.618   4.280
    7C      H5'  197   4.044   2.623   4.373
    7C     H5''  198   4.155   2.524   4.278
    7C      C4'  199   3.999   2.622   4.163
    7C      H4'  200   3.926   2.542   4.178
    7C      O4'  201   3.929   2.746   4.163
    7C      C1'  202   3.905   2.790   4.031
    7C      H1'  203   3.798   2.813   4.018
    7C       N1  204   3.983   2.912   3.994
    7C       C6  205   4.083   2.963   4.073
    7C       H6  206   4.107   2.915   4.166
    7C       C5  207   4.151   3.074   4.034
    7C       H5  208   4.229   3.115   4.097
    7C       C4  209   4.113   3.134   3.911
    7C       N4  210   4.175   3.239   3.865
    7C      H41  211   4.143   3.274   3.775
    7C      H42  212   4.254   3.276   3.913
    7C       N3  213   4.015   3.088   3.838
    7C       C2  214   3.946   2.979   3.876
    7C       O2  215   3.852   2.938   3.808
    7C      C3'  216   4.055   2.606   4.022
    7C      H3'  217   4.145   2.666   4.012
    7C      C2'  218   3.943   2.672   3.941
    7C      H2'  219   3.982   2.705   3.844
    7C      O2'  220   3.825   2.593   3.922
    7C     HO2'  221   3.767   2.641   3.863
    7C      O3'  222   4.077   2.473   3.977
    8G        P  223   4.223   2.409   3.975
    8G      OP1  224   4.219   2.293   3.883
    8G      OP2  225   4.265   2.383   4.114
    8G      O5'  226   4.317   2.525   3.915
    8G      C5'  227   4.366   2.526   3.782
    8G      H5'  228   4.419   2.432   3.764
    8G     H5''  229   4.439   2.606   3.774
    8G      C4'  230   4.262   2.545   3.669
    8G      H4'  231   4.202   2.455   3.661
    8G      O4'  232   4.175   2.657   3.686
    8G      C1'  233   4.214   2.765   3.601
    8G      H1'  234   4.126   2.817   3.562
    8G       N9  235   4.295   2.865   3.677
    8G       C8  236   4.336   2.857   3.807
    8G       H8  237   4.311   2.773   3.870
    8G       N7  238   4.410   2.957   3.848
    8G       C5  239   4.412   3.042   3.736
    8G       C6  240   4.474   3.171   3.718
    8G       O6  241   4.540   3.237   3.798
    8G       N1  242   4.452   3.224   3.592
    8G       H1  243   4.508   3.304   3.567
    8G       C2  244   4.371   3.167   3.499
    8G       N2  245   4.349   3.238   3.390
    8G      H21  246   4.380   3.334   3.386
    8G      H22  247   4.277   3.207   3.326
    8G       N3  248   4.311   3.049   3.511
    8G       C4  249   4.337   2.989   3.632
    8G      C3'  250   4.340   2.567   3.538
    8G      H3'  251   4.445   2.583   3.563
    8G      C2'  252   4.292   2.703   3.485
    8G      H2'  253   4.380   2.764   3.463
    8G      O2'  254   4.208   2.698   3.370
    8G     HO2'  255   4.254   2.753   3.303
    8G      O3'  256   4.332   2.456   3.448
    9C        P  257   4.457   2.359   3.430
    9C      OP1  258   4.434   2.270   3.313
    9C      OP2  259   4.492   2.296   3.560
    9C      O5'  260   4.570   2.462   3.389
    9C      C5'  261   4.698   2.464   3.448
    9C      H5'  262   4.737   2.363   3.455
    9C     H5''  263   4.692   2.508   3.548
    9C      C4'  264   4.792   2.548   3.361
    9C      H4'  265   4.893   2.538   3.401
    9C      O4'  266   4.793   2.501   3.225
    9C      C1'  267   4.791   2.612   3.134
    9C      H1'  268   4.872   2.602   3.062
    9C       N1  269   4.662   2.626   3.059
    9C       C6  270   4.554   2.545   3.085
    9C       H6  271   4.559   2.471   3.163
    9C       C5  272   4.440   2.557   3.012
    9C       H5  273   4.355   2.495   3.035
    9C       C4  274   4.439   2.652   2.908
    9C       N4  275   4.334   2.664   2.832
    9C      H41  276   4.339   2.725   2.751
    9C      H42  277   4.249   2.617   2.857
    9C       N3  278   4.544   2.725   2.876
    9C       C2  279   4.656   2.714   2.950
    9C       O2  280   4.753   2.783   2.915
    9C      C3'  281   4.759   2.697   3.357
    9C      H3'  282   4.651   2.712   3.358
    9C      C2'  283   4.818   2.734   3.221
    9C      H2'  284   4.768   2.822   3.182
    9C      O2'  285   4.959   2.754   3.226
    9C     HO2'  286   4.973   2.830   3.283
    9C      O3'  287   4.825   2.771   3.460
   10A        P  288   4.744   2.880   3.544
   10A      OP1  289   4.844   2.940   3.635
   10A      OP2  290   4.623   2.815   3.597
   10A      O5'  291   4.707   2.986   3.430
   10A      C5'  292   4.805   3.076   3.380
   10A      H5'  293   4.898   3.021   3.365
   10A     H5''  294   4.824   3.153   3.454
   10A      C4'  295   4.766   3.141   3.247
   10A      H4'  296   4.855   3.189   3.205
   10A      O4'  297   4.721   3.045   3.152
   10A      C1'  298   4.607   3.094   3.082
   10A      H1'  299   4.626   3.088   2.975
   10A       N9  300   4.486   3.014   3.109
   10A       C8  301   4.461   2.925   3.211
   10A       H8  302   4.527   2.911   3.295
   10A       N7  303   4.351   2.856   3.195
   10A       C5  304   4.298   2.908   3.076
   10A       C6  305   4.180   2.884   3.002
   10A       N6  306   4.084   2.801   3.037
   10A      H61  307   3.995   2.818   2.993
   10A      H62  308   4.090   2.758   3.128
   10A       N1  309   4.154   2.952   2.890
   10A       C2  310   4.242   3.042   2.851
   10A       H2  311   4.217   3.096   2.760
   10A       N3  312   4.357   3.076   2.909
   10A       C4  313   4.379   3.004   3.024
   10A      C3'  314   4.660   3.250   3.257
   10A      H3'  315   4.592   3.227   3.338
   10A      C2'  316   4.589   3.241   3.121
   10A      H2'  317   4.484   3.267   3.133
   10A      O2'  318   4.649   3.317   3.016
   10A     HO2'  319   4.598   3.305   2.936
   10A      O3'  320   4.724   3.375   3.274
   11G        P  321   4.703   3.465   3.403
   11G      OP1  322   4.813   3.563   3.402
   11G      OP2  323   4.687   3.379   3.521
   11G      O5'  324   4.563   3.539   3.380
   11G      C5'  325   4.551   3.640   3.281
   11G      H5'  326   4.562   3.595   3.182
   11G     H5''  327   4.630   3.713   3.295
   11G      C4'  328   4.415   3.711   3.288
   11G      H4'  329   4.407   3.784   3.208
   11G      O4'  330   4.312   3.614   3.272
   11G      C1'  331   4.201   3.654   3.350
   11G      H1'  332   4.117   3.676   3.284
   11G       N9  333   4.160   3.544   3.438
   11G       C8  334   4.218   3.495   3.552
   11G       H8  335   4.307   3.538   3.596
   11G       N7  336   4.157   3.391   3.602
   11G       C5  337   4.049   3.371   3.515
   11G       C6  338   3.945   3.273   3.511
   11G       O6  339   3.927   3.175   3.581
   11G       N1  340   3.853   3.293   3.410
   11G       H1  341   3.781   3.224   3.402
   11G       C2  342   3.862   3.390   3.318
   11G       N2  343   3.769   3.395   3.227
   11G      H21  344   3.695   3.326   3.226
   11G      H22  345   3.773   3.470   3.158
   11G       N3  346   3.959   3.481   3.314
   11G       C4  347   4.049   3.467   3.416
   11G      C3'  348   4.389   3.783   3.422
   11G      H3'  349   4.429   3.723   3.504
   11G      C2'  350   4.236   3.781   3.426
   11G      H2'  351   4.199   3.779   3.528
   11G      O2'  352   4.174   3.886   3.352
   11G     HO2'  353   4.192   3.968   3.399
   11G      O3'  354   4.431   3.918   3.437
   12U        P  355   4.569   3.977   3.383
   12U      OP1  356   4.577   3.962   3.236
   12U      OP2  357   4.681   3.930   3.467
   12U      O5'  358   4.549   4.133   3.413
   12U      C5'  359   4.424   4.199   3.396
   12U      H5'  360   4.401   4.249   3.490
   12U     H5''  361   4.344   4.128   3.378
   12U      C4'  362   4.421   4.305   3.285
   12U      H4'  363   4.345   4.376   3.315
   12U      O4'  364   4.544   4.375   3.273
   12U      C1'  365   4.576   4.395   3.136
   12U      H1'  366   4.565   4.501   3.113
   12U       N1  367   4.716   4.352   3.108
   12U       C6  368   4.761   4.230   3.154
   12U       H6  369   4.696   4.171   3.217
   12U       C5  370   4.884   4.184   3.120
   12U       H5  371   4.915   4.088   3.158
   12U       C4  372   4.972   4.259   3.034
   12U       O4  373   5.083   4.221   2.997
   12U       N3  374   4.921   4.381   2.993
   12U       H3  375   4.978   4.437   2.932
   12U       C2  376   4.797   4.432   3.026
   12U       O2  377   4.765   4.542   2.983
   12U      C3'  378   4.383   4.248   3.147
   12U      H3'  379   4.406   4.142   3.145
   12U      C2'  380   4.479   4.316   3.047
   12U      H2'  381   4.530   4.238   2.992
   12U      O2'  382   4.421   4.407   2.956
   12U     HO2'  383   4.351   4.455   3.005
   12U      O3'  384   4.243   4.260   3.117
   13A        P  385   4.156   4.393   3.133
   13A      OP1  386   4.245   4.511   3.120
   13A      OP2  387   4.070   4.383   3.253
   13A      O5'  388   4.067   4.383   3.003
   13A      C5'  389   4.096   4.458   2.886
   13A      H5'  390   4.202   4.478   2.878
   13A     H5''  391   4.043   4.553   2.892
   13A      C4'  392   4.054   4.384   2.759
   13A      H4'  393   4.059   4.454   2.676
   13A      O4'  394   4.139   4.273   2.728
   13A      C1'  395   4.061   4.167   2.673
   13A      H1'  396   4.094   4.145   2.571
   13A       N9  397   4.078   4.043   2.754
   13A       C8  398   4.164   4.022   2.859
   13A       H8  399   4.219   4.103   2.907
   13A       N7  400   4.177   3.897   2.894
   13A       C5  401   4.088   3.830   2.809
   13A       C6  402   4.047   3.696   2.795
   13A       N6  403   4.091   3.597   2.871
   13A      H61  404   4.049   3.506   2.866
   13A      H62  405   4.152   3.622   2.947
   13A       N1  406   3.957   3.660   2.704
   13A       C2  407   3.908   3.756   2.626
   13A       H2  408   3.834   3.724   2.553
   13A       N3  409   3.936   3.886   2.626
   13A       C4  410   4.028   3.918   2.723
   13A      C3'  411   3.911   4.333   2.767
   13A      H3'  412   3.890   4.294   2.866
   13A      C2'  413   3.917   4.218   2.666
   13A      H2'  414   3.849   4.139   2.695
   13A      O2'  415   3.888   4.262   2.534
   13A     HO2'  416   3.806   4.312   2.544
   13A      O3'  417   3.821   4.437   2.730
   14A        P  418   3.706   4.485   2.831
   14A      OP1  419   3.636   4.603   2.775
   14A      OP2  420   3.757   4.488   2.969
   14A      O5'  421   3.612   4.359   2.813
   14A      C5'  422   3.541   4.342   2.693
   14A      H5'  423   3.604   4.371   2.609
   14A     H5''  424   3.452   4.404   2.694
   14A      C4'  425   3.502   4.196   2.675
   14A      H4'  426   3.444   4.185   2.583
   14A      O4'  427   3.616   4.111   2.666
   14A      C1'  428   3.585   3.986   2.726
   14A      H1'  429   3.596   3.906   2.654
   14A       N9  430   3.674   3.955   2.840
   14A       C8  431   3.756   4.038   2.913
   14A       H8  432   3.758   4.145   2.900
   14A       N7  433   3.833   3.976   2.997
   14A       C5  434   3.794   3.842   2.984
   14A       C6  435   3.830   3.720   3.046
   14A       N6  436   3.923   3.710   3.139
   14A      H61  437   3.935   3.622   3.187
   14A      H62  438   3.971   3.794   3.168
   14A       N1  439   3.768   3.606   3.016
   14A       C2  440   3.673   3.610   2.924
   14A       H2  441   3.624   3.517   2.902
   14A       N3  442   3.629   3.716   2.855
   14A       C4  443   3.695   3.829   2.891
   14A      C3'  444   3.418   4.145   2.791
   14A      H3'  445   3.463   4.176   2.885
   14A      C2'  446   3.439   3.994   2.773
   14A      H2'  447   3.428   3.945   2.868
   14A      O2'  448   3.358   3.933   2.673
   14A     HO2'  449   3.365   3.838   2.689
   14A      O3'  450   3.284   4.193   2.780
   15C        P  451   3.201   4.231   2.911
   15C      OP1  452   3.066   4.271   2.865
   15C      OP2  453   3.279   4.329   2.989
   15C      O5'  454   3.195   4.090   2.986
   15C      C5'  455   3.119   3.983   2.932
   15C      H5'  456   3.141   3.973   2.826
   15C     H5''  457   3.013   4.006   2.943
   15C      C4'  458   3.148   3.848   3.000
   15C      H4'  459   3.081   3.773   2.958
   15C      O4'  460   3.282   3.804   2.979
   15C      C1'  461   3.326   3.734   3.095
   15C      H1'  462   3.358   3.633   3.067
   15C       N1  463   3.441   3.801   3.163
   15C       C6  464   3.472   3.933   3.143
   15C       H6  465   3.408   3.994   3.080
   15C       C5  466   3.581   3.987   3.202
   15C       H5  467   3.607   4.090   3.184
   15C       C4  468   3.661   3.902   3.284
   15C       N4  469   3.768   3.948   3.342
   15C      H41  470   3.822   3.883   3.399
   15C      H42  471   3.806   4.035   3.313
   15C       N3  472   3.630   3.777   3.307
   15C       C2  473   3.522   3.723   3.246
   15C       O2  474   3.497   3.604   3.266
   15C      C3'  475   3.125   3.850   3.150
   15C      H3'  476   3.171   3.938   3.194
   15C      C2'  477   3.205   3.724   3.188
   15C      H2'  478   3.235   3.728   3.293
   15C      O2'  479   3.143   3.600   3.159
   15C     HO2'  480   3.166   3.539   3.231
   15C      O3'  481   2.986   3.847   3.177
   16C        P  482   2.926   3.897   3.316
   16C      OP1  483   2.779   3.879   3.304
   16C      OP2  484   2.978   4.032   3.345
   16C      O5'  485   2.987   3.791   3.419
   16C      C5'  486   2.941   3.656   3.417
   16C      H5'  487   2.954   3.614   3.317
   16C     H5''  488   2.834   3.655   3.439
   16C      C4'  489   3.012   3.566   3.519
   16C      H4'  490   2.967   3.468   3.515
   16C      O4'  491   3.152   3.551   3.495
   16C      C1'  492   3.220   3.540   3.620
   16C      H1'  493   3.280   3.448   3.625
   16C       N1  494   3.313   3.654   3.644
   16C       C6  495   3.314   3.765   3.562
   16C       H6  496   3.234   3.778   3.491
   16C       C5  497   3.414   3.856   3.571
   16C       H5  498   3.416   3.941   3.505
   16C       C4  499   3.514   3.833   3.669
   16C       N4  500   3.612   3.919   3.681
   16C      H41  501   3.684   3.901   3.751
   16C      H42  502   3.629   3.986   3.609
   16C       N3  503   3.510   3.734   3.755
   16C       C2  504   3.412   3.641   3.744
   16C       O2  505   3.409   3.548   3.825
   16C      C3'  506   2.997   3.617   3.662
   16C      H3'  507   3.021   3.723   3.666
   16C      C2'  508   3.110   3.536   3.727
   16C      H2'  509   3.143   3.581   3.820
   16C      O2'  510   3.080   3.399   3.748
   16C     HO2'  511   3.154   3.360   3.798
   16C      O3'  512   2.867   3.592   3.712
   17C        P  513   2.805   3.680   3.830
   17C      OP1  514   2.669   3.629   3.860
   17C      OP2  515   2.823   3.823   3.800
   17C      O5'  516   2.898   3.645   3.954
   17C      C5'  517   2.899   3.515   4.011
   17C      H5'  518   2.928   3.442   3.937
   17C     H5''  519   2.799   3.491   4.046
   17C      C4'  520   2.994   3.506   4.131
   17C      H4'  521   2.977   3.411   4.180
   17C      O4'  522   3.131   3.510   4.092
   17C      C1'  523   3.205   3.583   4.191
   17C      H1'  524   3.291   3.525   4.226
   17C       N1  525   3.257   3.710   4.133
   17C       C6  526   3.208   3.762   4.015
   17C       H6  527   3.119   3.720   3.972
   17C       C5  528   3.270   3.865   3.953
   17C       H5  529   3.232   3.903   3.860
   17C       C4  530   3.388   3.915   4.014
   17C       N4  531   3.450   4.015   3.959
   17C      H41  532   3.537   4.046   4.003
   17C      H42  533   3.433   4.037   3.863
   17C       N3  534   3.433   3.873   4.130
   17C       C2  535   3.369   3.770   4.192
   17C       O2  536   3.410   3.733   4.302
   17C      C3'  537   2.973   3.616   4.234
   17C      H3'  538   2.967   3.714   4.185
   17C      C2'  539   3.107   3.603   4.307
   17C      H2'  540   3.131   3.692   4.365
   17C      O2'  541   3.106   3.487   4.390
   17C     HO2'  542   3.183   3.490   4.452
   17C      O3'  543   2.858   3.593   4.316
   18C        P  544   2.788   3.715   4.392
   18C      OP1  545   2.682   3.659   4.479
   18C      OP2  546   2.750   3.817   4.292
   18C      O5'  547   2.901   3.775   4.487
   18C      C5'  548   2.936   3.708   4.606
   18C      H5'  549   2.963   3.604   4.584
   18C     H5''  550   2.850   3.708   4.674
   18C      C4'  551   3.053   3.772   4.679
   18C      H4'  552   3.070   3.717   4.771
   18C      O4'  553   3.173   3.766   4.601
   18C      C1'  554   3.251   3.882   4.630
   18C      H1'  555   3.352   3.853   4.661
   18C       N1  556   3.262   3.972   4.511
   18C       C6  557   3.177   3.961   4.403
   18C       H6  558   3.095   3.892   4.407
   18C       C5  559   3.197   4.036   4.292
   18C       H5  560   3.132   4.026   4.208
   18C       C4  561   3.306   4.127   4.295
   18C       N4  562   3.332   4.201   4.191
   18C      H41  563   3.417   4.256   4.200
   18C      H42  564   3.307   4.165   4.101
   18C       N3  565   3.387   4.141   4.397
   18C       C2  566   3.366   4.064   4.507
   18C       O2  567   3.441   4.080   4.603
   18C      C3'  568   3.034   3.920   4.716
   18C      H3'  569   3.001   3.975   4.628
   18C      C2'  570   3.181   3.952   4.747
   18C      H2'  571   3.200   4.058   4.747
   18C      O2'  572   3.229   3.889   4.865
   18C     HO2'  573   3.260   3.957   4.929
   18C      O3'  574   2.943   3.939   4.824
   19A        P  575   2.849   4.069   4.832
   19A      OP1  576   2.751   4.049   4.941
   19A      OP2  577   2.796   4.099   4.697
   19A      O5'  578   2.949   4.188   4.871
   19A      C5'  579   3.016   4.189   4.996
   19A      H5'  580   3.050   4.088   5.019
   19A     H5''  581   2.948   4.221   5.074
   19A      C4'  582   3.141   4.280   4.997
   19A      H4'  583   3.192   4.267   5.092
   19A      O4'  584   3.231   4.241   4.894
   19A      C1'  585   3.299   4.355   4.844
   19A      H1'  586   3.408   4.340   4.847
   19A       N9  587   3.257   4.378   4.703
   19A       C8  588   3.165   4.308   4.629
   19A       H8  589   3.103   4.231   4.672
   19A       N7  590   3.159   4.342   4.503
   19A       C5  591   3.256   4.443   4.493
   19A       C6  592   3.306   4.522   4.388
   19A       N6  593   3.274   4.505   4.261
   19A      H61  594   3.330   4.555   4.192
   19A      H62  595   3.235   4.415   4.240
   19A       N1  596   3.398   4.616   4.410
   19A       C2  597   3.444   4.631   4.533
   19A       H2  598   3.519   4.707   4.548
   19A       N3  599   3.410   4.561   4.641
   19A       C4  600   3.314   4.468   4.615
   19A      C3'  601   3.116   4.430   4.978
   19A      H3'  602   3.046   4.445   4.896
   19A      C2'  603   3.258   4.471   4.935
   19A      H2'  604   3.257   4.566   4.882
   19A      O2'  605   3.349   4.475   5.044
   19A     HO2'  606   3.437   4.498   5.006
   19A      O3'  607   3.071   4.494   5.097
   20G        P  608   3.007   4.640   5.096
   20G      OP1  609   2.976   4.674   5.236
   20G      OP2  610   2.895   4.640   4.999
   20G      O5'  611   3.116   4.745   5.045
   20G      C5'  612   3.227   4.782   5.126
   20G      H5'  613   3.288   4.694   5.146
   20G     H5''  614   3.192   4.821   5.221
   20G      C4'  615   3.316   4.888   5.060
   20G      H4'  616   3.409   4.897   5.117
   20G      O4'  617   3.347   4.844   4.928
   20G      C1'  618   3.298   4.938   4.835
   20G      H1'  619   3.381   5.002   4.805
   20G       N9  620   3.238   4.874   4.716
   20G       C8  621   3.151   4.768   4.709
   20G       H8  622   3.123   4.710   4.796
   20G       N7  623   3.104   4.746   4.589
   20G       C5  624   3.170   4.841   4.510
   20G       C6  625   3.165   4.868   4.369
   20G       O6  626   3.100   4.812   4.280
   20G       N1  627   3.241   4.978   4.332
   20G       H1  628   3.245   4.999   4.233
   20G       C2  629   3.309   5.056   4.419
   20G       N2  630   3.360   5.167   4.372
   20G      H21  631   3.362   5.182   4.271
   20G      H22  632   3.415   5.224   4.435
   20G       N3  633   3.311   5.039   4.551
   20G       C4  634   3.245   4.925   4.589
   20G      C3'  635   3.247   5.026   5.050
   20G      H3'  636   3.165   5.035   5.121
   20G      C2'  637   3.192   5.021   4.907
   20G      H2'  638   3.098   4.965   4.909
   20G      O2'  639   3.172   5.145   4.840
   20G     HO2'  640   3.183   5.129   4.746
   20G      O3'  641   3.336   5.136   5.065
   21U        P  642   3.396   5.179   5.207
   21U      OP1  643   3.391   5.064   5.299
   21U      OP2  644   3.339   5.309   5.250
   21U      O5'  645   3.547   5.206   5.164
   21U      C5'  646   3.657   5.133   5.214
   21U      H5'  647   3.655   5.030   5.178
   21U     H5''  648   3.654   5.132   5.323
   21U      C4'  649   3.787   5.202   5.167
   21U      H4'  650   3.872   5.156   5.217
   21U      O4'  651   3.804   5.182   5.027
   21U      C1'  652   3.827   5.304   4.959
   21U      H1'  653   3.926   5.298   4.913
   21U       N1  654   3.728   5.326   4.850
   21U       C6  655   3.605   5.264   4.849
   21U       H6  656   3.577   5.197   4.930
   21U       C5  657   3.518   5.281   4.745
   21U       H5  658   3.423   5.230   4.746
   21U       C4  659   3.552   5.364   4.632
   21U       O4  660   3.481   5.385   4.534
   21U       N3  661   3.676   5.423   4.640
   21U       H3  662   3.705   5.478   4.562
   21U       C2  663   3.765   5.411   4.745
   21U       O2  664   3.870   5.476   4.742
   21U      C3'  665   3.785   5.354   5.193
   21U      H3'  666   3.681   5.385   5.203
   21U      C2'  667   3.829   5.419   5.061
   21U      H2'  668   3.754   5.493   5.033
   21U      O2'  669   3.957   5.480   5.062
   21U     HO2'  670   4.012   5.433   5.130
   21U      O3'  671   3.844   5.406   5.313
   22U        P  672   3.988   5.369   5.370
   22U      OP1  673   4.010   5.460   5.484
   22U      OP2  674   4.085   5.368   5.259
   22U      O5'  675   3.970   5.223   5.431
   22U      C5'  676   4.067   5.120   5.418
   22U      H5'  677   4.164   5.154   5.456
   22U     H5''  678   4.078   5.093   5.313
   22U      C4'  679   4.024   4.995   5.497
   22U      H4'  680   4.097   4.917   5.478
   22U      O4'  681   4.022   5.017   5.638
   22U      C1'  682   3.899   4.970   5.694
   22U      H1'  683   3.920   4.884   5.757
   22U       N1  684   3.840   5.077   5.779
   22U       C6  685   3.855   5.211   5.748
   22U       H6  686   3.892   5.239   5.650
   22U       C5  687   3.829   5.308   5.840
   22U       H5  688   3.842   5.412   5.815
   22U       C4  689   3.784   5.274   5.974
   22U       O4  690   3.767   5.351   6.068
   22U       N3  691   3.761   5.140   5.993
   22U       H3  692   3.731   5.111   6.084
   22U       C2  693   3.784   5.040   5.902
   22U       O2  694   3.754   4.925   5.932
   22U      C3'  695   3.884   4.948   5.454
   22U      H3'  696   3.832   5.032   5.408
   22U      C2'  697   3.804   4.921   5.583
   22U      H2'  698   3.713   4.981   5.581
   22U      O2'  699   3.769   4.786   5.610
   22U     HO2'  700   3.837   4.728   5.566
   22U      O3'  701   3.886   4.849   5.354
   23A        P  702   3.974   4.715   5.359
   23A      OP1  703   3.962   4.658   5.495
   23A      OP2  704   4.108   4.745   5.304
   23A      O5'  705   3.890   4.629   5.257
   23A      C5'  706   3.751   4.606   5.277
   23A      H5'  707   3.710   4.678   5.347
   23A     H5''  708   3.737   4.507   5.319
   23A      C4'  709   3.674   4.619   5.146
   23A      H4'  710   3.570   4.592   5.164
   23A      O4'  711   3.677   4.753   5.098
   23A      C1'  712   3.673   4.750   4.957
   23A      H1'  713   3.580   4.795   4.922
   23A       N9  714   3.784   4.831   4.903
   23A       C8  715   3.913   4.845   4.950
   23A       H8  716   3.950   4.790   5.035
   23A       N7  717   3.985   4.933   4.883
   23A       C5  718   3.895   4.978   4.785
   23A       C6  719   3.901   5.073   4.680
   23A       N6  720   4.007   5.146   4.651
   23A      H61  721   4.002   5.205   4.571
   23A      H62  722   4.090   5.129   4.704
   23A       N1  723   3.796   5.097   4.601
   23A       C2  724   3.685   5.027   4.624
   23A       H2  725   3.601   5.049   4.561
   23A       N3  726   3.663   4.939   4.720
   23A       C4  727   3.773   4.917   4.797
   23A      C3'  728   3.726   4.529   5.034
   23A      H3'  729   3.835   4.528   5.035
   23A      C2'  730   3.676   4.604   4.910
   23A      H2'  731   3.742   4.587   4.825
   23A      O2'  732   3.542   4.570   4.881
   23A     HO2'  733   3.525   4.570   4.785
   23A      O3'  734   3.670   4.400   5.048
   24A        P  735   3.755   4.268   5.022
   24A      OP1  736   3.898   4.297   5.046
   24A      OP2  737   3.712   4.212   4.892
   24A      O5'  738   3.700   4.179   5.144
   24A      C5'  739   3.740   4.211   5.276
   24A      H5'  740   3.713   4.315   5.295
   24A     H5''  741   3.848   4.202   5.283
   24A      C4'  742   3.675   4.127   5.386
   24A      H4'  743   3.721   4.157   5.480
   24A      O4'  744   3.535   4.149   5.399
   24A      C1'  745   3.471   4.025   5.425
   24A      H1'  746   3.411   4.030   5.516
   24A       N9  747   3.382   3.990   5.313
   24A       C8  748   3.381   4.039   5.184
   24A       H8  749   3.455   4.109   5.147
   24A       N7  750   3.281   3.995   5.113
   24A       C5  751   3.212   3.909   5.200
   24A       C6  752   3.096   3.828   5.192
   24A       N6  753   3.018   3.816   5.087
   24A      H61  754   2.935   3.761   5.097
   24A      H62  755   3.039   3.866   5.001
   24A       N1  756   3.054   3.756   5.296
   24A       C2  757   3.125   3.763   5.408
   24A       H2  758   3.089   3.704   5.491
   24A       N3  759   3.235   3.834   5.432
   24A       C4  760   3.274   3.905   5.322
   24A      C3'  761   3.700   3.978   5.369
   24A      H3'  762   3.698   3.949   5.264
   24A      C2'  763   3.580   3.920   5.445
   24A      H2'  764   3.551   3.823   5.405
   24A      O2'  765   3.607   3.911   5.585
   24A     HO2'  766   3.702   3.896   5.588
   24A      O3'  767   3.821   3.941   5.435
   25C        P  768   3.914   3.827   5.376
   25C      OP1  769   4.025   3.812   5.473
   25C      OP2  770   3.942   3.853   5.235
   25C      O5'  771   3.820   3.698   5.390
   25C      C5'  772   3.810   3.634   5.516
   25C      H5'  773   3.789   3.709   5.592
   25C     H5''  774   3.905   3.586   5.538
   25C      C4'  775   3.699   3.530   5.521
   25C      H4'  776   3.695   3.492   5.623
   25C      O4'  777   3.573   3.587   5.490
   25C      C1'  778   3.489   3.485   5.436
   25C      H1'  779   3.404   3.471   5.503
   25C       N1  780   3.436   3.519   5.301
   25C       C6  781   3.489   3.620   5.224
   25C       H6  782   3.580   3.670   5.255
   25C       C5  783   3.428   3.656   5.108
   25C       H5  784   3.469   3.736   5.048
   25C       C4  785   3.311   3.584   5.070
   25C       N4  786   3.247   3.614   4.961
   25C      H41  787   3.165   3.560   4.941
   25C      H42  788   3.271   3.699   4.911
   25C       N3  789   3.260   3.486   5.141
   25C       C2  790   3.320   3.452   5.258
   25C       O2  791   3.273   3.360   5.325
   25C      C3'  792   3.719   3.409   5.430
   25C      H3'  793   3.746   3.441   5.329
   25C      C2'  794   3.574   3.357   5.435
   25C      H2'  795   3.553   3.297   5.347
   25C      O2'  796   3.542   3.283   5.553
   25C     HO2'  797   3.452   3.250   5.542
   25C      O3'  798   3.813   3.318   5.484
   26A        P  799   3.873   3.196   5.401
   26A      OP1  800   3.922   3.100   5.504
   26A      OP2  801   3.970   3.245   5.303
   26A      O5'  802   3.746   3.126   5.329
   26A      C5'  803   3.735   3.112   5.188
   26A      H5'  804   3.787   3.021   5.156
   26A     H5''  805   3.778   3.197   5.135
   26A      C4'  806   3.585   3.102   5.151
   26A      H4'  807   3.532   3.057   5.235
   26A      O4'  808   3.531   3.231   5.128
   26A      C1'  809   3.433   3.227   5.025
   26A      H1'  810   3.337   3.263   5.062
   26A       N9  811   3.477   3.316   4.915
   26A       C8  812   3.585   3.401   4.912
   26A       H8  813   3.662   3.401   4.988
   26A       N7  814   3.587   3.483   4.811
   26A       C5  815   3.470   3.450   4.741
   26A       C6  816   3.408   3.499   4.624
   26A       N6  817   3.458   3.594   4.549
   26A      H61  818   3.413   3.622   4.463
   26A      H62  819   3.550   3.628   4.574
   26A       N1  820   3.291   3.448   4.583
   26A       C2  821   3.237   3.351   4.655
   26A       H2  822   3.143   3.313   4.618
   26A       N3  823   3.282   3.296   4.767
   26A       C4  824   3.401   3.349   4.805
   26A      C3'  825   3.553   3.019   5.028
   26A      H3'  826   3.629   3.035   4.950
   26A      C2'  827   3.419   3.080   4.983
   26A      H2'  828   3.408   3.070   4.875
   26A      O2'  829   3.304   3.027   5.051
   26A     HO2'  830   3.228   3.061   5.003
   26A      O3'  831   3.543   2.882   5.064
   27A        P  832   3.586   2.767   4.963
   27A      OP1  833   3.546   2.640   5.027
   27A      OP2  834   3.729   2.788   4.933
   27A      O5'  835   3.497   2.794   4.832
   27A      C5'  836   3.359   2.764   4.831
   27A      H5'  837   3.311   2.811   4.917
   27A     H5''  838   3.346   2.656   4.840
   27A      C4'  839   3.287   2.812   4.704
   27A      H4'  840   3.183   2.778   4.710
   27A      O4'  841   3.284   2.953   4.692
   27A      C1'  842   3.292   2.986   4.553
   27A      H1'  843   3.205   3.044   4.523
   27A       N9  844   3.411   3.070   4.530
   27A       C8  845   3.525   3.082   4.606
   27A       H8  846   3.545   3.019   4.691
   27A       N7  847   3.606   3.177   4.567
   27A       C5  848   3.540   3.230   4.455
   27A       C6  849   3.568   3.334   4.362
   27A       N6  850   3.675   3.411   4.365
   27A      H61  851   3.688   3.482   4.294
   27A      H62  852   3.746   3.396   4.436
   27A       N1  853   3.485   3.360   4.261
   27A       C2  854   3.375   3.287   4.252
   27A       H2  855   3.309   3.310   4.169
   27A       N3  856   3.333   3.189   4.332
   27A       C4  857   3.423   3.165   4.431
   27A      C3'  858   3.344   2.753   4.576
   27A      H3'  859   3.453   2.752   4.580
   27A      C2'  860   3.295   2.856   4.472
   27A      H2'  861   3.365   2.863   4.388
   27A      O2'  862   3.162   2.832   4.427
   27A     HO2'  863   3.169   2.774   4.350
   27A      O3'  864   3.290   2.622   4.561
   28A        P  865   3.366   2.506   4.483
   28A      OP1  866   3.301   2.381   4.530
   28A      OP2  867   3.511   2.523   4.499
   28A      O5'  868   3.323   2.531   4.331
   28A      C5'  869   3.199   2.482   4.286
   28A      H5'  870   3.123   2.501   4.362
   28A     H5''  871   3.206   2.375   4.270
   28A      C4'  872   3.152   2.550   4.158
   28A      H4'  873   3.049   2.520   4.138
   28A      O4'  874   3.156   2.691   4.174
   28A      C1'  875   3.167   2.748   4.046
   28A      H1'  876   3.074   2.800   4.020
   28A       N9  877   3.276   2.848   4.037
   28A       C8  878   3.404   2.847   4.086
   28A       H8  879   3.445   2.764   4.143
   28A       N7  880   3.470   2.957   4.060
   28A       C5  881   3.380   3.035   3.987
   28A       C6  882   3.378   3.165   3.930
   28A       N6  883   3.476   3.253   3.933
   28A      H61  884   3.464   3.339   3.882
   28A      H62  885   3.569   3.227   3.965
   28A       N1  886   3.271   3.210   3.864
   28A       C2  887   3.167   3.128   3.853
   28A       H2  888   3.083   3.165   3.797
   28A       N3  889   3.151   3.007   3.903
   28A       C4  890   3.263   2.967   3.970
   28A      C3'  891   3.232   2.517   4.031
   28A      H3'  892   3.339   2.522   4.051
   28A      C2'  893   3.187   2.636   3.945
   28A      H2'  894   3.262   2.660   3.871
   28A      O2'  895   3.059   2.616   3.885
   28A     HO2'  896   3.075   2.617   3.790
   28A      O3'  897   3.195   2.393   3.974
   29A        P  898   3.273   2.331   3.850
   29A      OP1  899   3.202   2.205   3.818
   29A      OP2  900   3.416   2.323   3.886
   29A      O5'  901   3.258   2.433   3.726
   29A      C5'  902   3.148   2.426   3.637
   29A      H5'  903   3.057   2.412   3.695
   29A     H5''  904   3.161   2.339   3.572
   29A      C4'  905   3.131   2.552   3.551
   29A      H4'  906   3.033   2.548   3.504
   29A      O4'  907   3.136   2.667   3.634
   29A      C1'  908   3.182   2.779   3.560
   29A      H1'  909   3.105   2.855   3.558
   29A       N9  910   3.305   2.841   3.613
   29A       C8  911   3.409   2.783   3.681
   29A       H8  912   3.409   2.679   3.711
   29A       N7  913   3.507   2.865   3.707
   29A       C5  914   3.466   2.986   3.649
   29A       C6  915   3.522   3.116   3.637
   29A       N6  916   3.638   3.152   3.686
   29A      H61  917   3.668   3.249   3.678
   29A      H62  918   3.699   3.084   3.730
   29A       N1  919   3.456   3.212   3.571
   29A       C2  920   3.337   3.183   3.520
   29A       H2  921   3.288   3.263   3.468
   29A       N3  922   3.271   3.067   3.524
   29A       C4  923   3.343   2.972   3.591
   29A      C3'  924   3.231   2.577   3.438
   29A      H3'  925   3.333   2.557   3.472
   29A      C2'  926   3.209   2.728   3.419
   29A      H2'  927   3.299   2.774   3.379
   29A      O2'  928   3.096   2.765   3.341
   29A     HO2'  929   3.131   2.780   3.252
   29A      O3'  930   3.201   2.501   3.320
   30C        P  931   3.305   2.486   3.200
   30C      OP1  932   3.240   2.410   3.091
   30C      OP2  933   3.433   2.437   3.254
   30C      O5'  934   3.327   2.635   3.147
   30C      C5'  935   3.234   2.697   3.061
   30C      H5'  936   3.133   2.683   3.098
   30C     H5''  937   3.241   2.652   2.962
   30C      C4'  938   3.262   2.848   3.048
   30C      H4'  939   3.176   2.897   3.002
   30C      O4'  940   3.285   2.909   3.175
   30C      C1'  941   3.388   3.006   3.163
   30C      H1'  942   3.351   3.103   3.198
   30C       N1  943   3.510   2.974   3.243
   30C       C6  944   3.536   2.850   3.294
   30C       H6  945   3.475   2.766   3.266
   30C       C5  946   3.638   2.831   3.382
   30C       H5  947   3.656   2.734   3.424
   30C       C4  948   3.718   2.944   3.414
   30C       N4  949   3.815   2.934   3.499
   30C      H41  950   3.857   3.022   3.530
   30C      H42  951   3.818   2.857   3.563
   30C       N3  952   3.697   3.063   3.361
   30C       C2  953   3.594   3.081   3.276
   30C       O2  954   3.574   3.194   3.231
   30C      C3'  955   3.383   2.880   2.962
   30C      H3'  956   3.464   2.809   2.982
   30C      C2'  957   3.420   3.019   3.014
   30C      H2'  958   3.526   3.039   2.997
   30C      O2'  959   3.339   3.126   2.966
   30C     HO2'  960   3.398   3.200   2.951
   30C      O3'  961   3.343   2.877   2.826
   31A        P  962   3.448   2.857   2.710
   31A      OP1  963   3.370   2.864   2.584
   31A      OP2  964   3.523   2.733   2.739
   31A      O5'  965   3.543   2.985   2.721
   31A      C5'  966   3.498   3.112   2.676
   31A      H5'  967   3.409   3.142   2.732
   31A     H5''  968   3.469   3.103   2.571
   31A      C4'  969   3.603   3.223   2.686
   31A      H4'  970   3.560   3.315   2.646
   31A      O4'  971   3.644   3.253   2.819
   31A      C1'  972   3.784   3.283   2.817
   31A      H1'  973   3.803   3.382   2.860
   31A       N9  974   3.849   3.184   2.907
   31A       C8  975   3.799   3.063   2.949
   31A       H8  976   3.716   3.015   2.899
   31A       N7  977   3.855   3.015   3.057
   31A       C5  978   3.954   3.110   3.086
   31A       C6  979   4.054   3.123   3.186
   31A       N6  980   4.071   3.040   3.288
   31A      H61  981   4.145   3.056   3.355
   31A      H62  982   4.000   2.971   3.305
   31A       N1  983   4.143   3.222   3.181
   31A       C2  984   4.130   3.312   3.085
   31A       H2  985   4.202   3.393   3.085
   31A       N3  986   4.040   3.316   2.986
   31A       C4  987   3.955   3.210   2.992
   31A      C3'  988   3.726   3.191   2.601
   31A      H3'  989   3.756   3.087   2.613
   31A      C2'  990   3.829   3.284   2.669
   31A      H2'  991   3.930   3.245   2.658
   31A      O2'  992   3.817   3.417   2.621
   31A     HO2'  993   3.888   3.474   2.656
   31A      O3'  994   3.686   3.219   2.467
   32A        P  995   3.767   3.171   2.338
   32A      OP1  996   3.667   3.153   2.231
   32A      OP2  997   3.855   3.057   2.372
   32A      O5'  998   3.856   3.297   2.300
   32A      C5'  999   3.796   3.413   2.246
   32A      H5' 1000   3.712   3.442   2.310
   32A     H5'' 1001   3.759   3.390   2.146
   32A      C4' 1002   3.893   3.530   2.236
   32A      H4' 1003   3.844   3.612   2.184
   32A      O4' 1004   3.931   3.576   2.366
   32A      C1' 1005   4.071   3.602   2.369
   32A      H1' 1006   4.090   3.703   2.405
   32A       N9 1007   4.140   3.508   2.461
   32A       C8 1008   4.116   3.375   2.487
   32A       H8 1009   4.041   3.318   2.435
   32A       N7 1010   4.189   3.324   2.583
   32A       C5 1011   4.267   3.432   2.625
   32A       C6 1012   4.363   3.454   2.727
   32A       N6 1013   4.403   3.367   2.818
   32A      H61 1014   4.452   3.409   2.895
   32A      H62 1015   4.360   3.276   2.823
   32A       N1 1016   4.422   3.572   2.742
   32A       C2 1017   4.385   3.670   2.661
   32A       H2 1018   4.435   3.765   2.677
   32A       N3 1019   4.297   3.667   2.562
   32A       C4 1020   4.240   3.544   2.549
   32A      C3' 1021   4.020   3.495   2.160
   32A      H3' 1022   4.046   3.393   2.186
   32A      C2' 1023   4.119   3.593   2.224
   32A      H2' 1024   4.221   3.556   2.218
   32A      O2' 1025   4.110   3.722   2.164
   32A     HO2' 1026   4.120   3.707   2.069
   32A      O3' 1027   4.011   3.511   2.019
   33G3       P 1028   4.082   3.409   1.917
   33G3     OP1 1029   4.076   3.468   1.782
   33G3     OP2 1030   4.024   3.274   1.937
   33G3     O5' 1031   4.235   3.409   1.964
   33G3     C5' 1032   4.282   3.317   2.062
   33G3     H5' 1033   4.292   3.219   2.017
   33G3    H5'' 1034   4.209   3.309   2.141
   33G3     C4' 1035   4.414   3.363   2.125
   33G3     H4' 1036   4.445   3.457   2.078
   33G3     O4' 1037   4.398   3.387   2.265
   33G3     C1' 1038   4.489   3.306   2.339
   33G3     H1' 1039   4.529   3.361   2.425
   33G3      N9 1040   4.423   3.183   2.390
   33G3      C8 1041   4.308   3.122   2.345
   33G3      H8 1042   4.241   3.166   2.274
   33G3      N7 1043   4.289   3.002   2.392
   33G3      C5 1044   4.392   2.987   2.484
   33G3      C6 1045   4.425   2.877   2.570
   33G3      O6 1046   4.376   2.765   2.576
   33G3      N1 1047   4.530   2.904   2.654
   33G3      H1 1048   4.549   2.837   2.727
   33G3      C2 1049   4.604   3.017   2.651
   33G3      N2 1050   4.706   3.021   2.732
   33G3     H21 1051   4.723   2.942   2.795
   33G3     H22 1052   4.766   3.100   2.728
   33G3      N3 1053   4.584   3.118   2.565
   33G3      C4 1054   4.473   3.099   2.487
   33G3     C3' 1055   4.526   3.260   2.107
   33G3     H3' 1056   4.484   3.160   2.097
   33G3     C2' 1057   4.602   3.269   2.240
   33G3     H2' 1058   4.646   3.172   2.264
   33G3     O2' 1059   4.702   3.370   2.236
   33G3    HO2' 1060   4.749   3.373   2.321
   33G3     O3' 1061   4.611   3.288   1.999
   33G3    HO3' 1062   4.680   3.344   2.036
   34pq0     N1 1063   3.730   3.621   3.527
   34pq0     C2 1064   3.668   3.516   3.577
   34pq0     N3 1065   3.699   3.442   3.677
   34pq0     C4 1066   3.811   3.488   3.741
   34pq0     C5 1067   3.881   3.597   3.702
   34pq0     C6 1068   3.840   3.672   3.585
   34pq0     O6 1069   3.895   3.769   3.537
   34pq0     C7 1070   3.989   3.616   3.792
   34pq0    C10 1071   4.090   3.718   3.785
   34pq0    N11 1072   4.177   3.795   3.780
   34pq0     C8 1073   3.983   3.515   3.886
   34pq0     N9 1074   3.872   3.436   3.852
   34pq0     N2 1075   3.560   3.486   3.512
   34pq0     H1 1076   3.694   3.668   3.446
   34pq0     H2 1077   4.048   3.493   3.970
   34pq0     H3 1078   3.839   3.351   3.898
   34pq0     H4 1079   3.558   3.516   3.416
   34pq0     H5 1080   3.536   3.390   3.534
   35K+      K+ 1081   4.592   4.008   4.196
   36K+      K+ 1082   4.827   4.105   5.337
   37K+      K+ 1083   2.578   4.250   3.947
   38K+      K+ 1084   4.102   2.360   4.669
   39K+      K+ 1085   5.065   4.644   3.684
   40K+      K+ 1086   4.530   2.947   4.164
   41K+      K+ 1087   3.779   1.669   3.124
   42K+      K+ 1088   2.515   2.937   4.479
   43K+      K+ 1089   4.366   5.331   3.100
   44K+      K+ 1090   3.141   3.489   2.072
   45K+      K+ 1091   4.827   4.950   4.860
   46K+      K+ 1092   3.092   4.626   5.923
   47K+      K+ 1093   3.971   2.323   2.205
   48K+      K+ 1094   3.924   1.600   4.193
   49K+      K+ 1095   2.609   4.636   3.368
   50K+      K+ 1096   4.679   3.190   5.164
   51K+      K+ 1097   2.386   3.144   3.294
   52K+      K+ 1098   4.294   4.161   6.298
   53K+      K+ 1099   2.105   4.286   5.094
   54K+      K+ 1100   5.492   3.435   2.749
   55K+      K+ 1101   4.924   1.996   4.086
   56K+      K+ 1102   3.204   4.670   2.880
   57K+      K+ 1103   3.174   5.890   5.302
   58K+      K+ 1104   3.260   2.777   5.709
   59K+      K+ 1105   4.447   5.856   4.260
   60K+      K+ 1106   4.851   4.441   2.017
   61K+      K+ 1107   3.001   2.391   2.574
   62K+      K+ 1108   2.677   1.790   4.111
   63K+      K+ 1109   3.479   4.455   1.737
   64K+      K+ 1110   2.182   3.421   5.235
   65K+      K+ 1111   5.305   3.219   3.741
   66K+      K+ 1112   4.302   5.479   5.803
   67K+      K+ 1113   2.639   5.199   4.408
   68K+      K+ 1114   4.204   3.121   1.123
   69K+      K+ 1115   4.941   1.851   3.047
   70K+      K+ 1116   3.946   3.257   6.208
   71K+      K+ 1117   2.518   3.943   2.823
   72K+      K+ 1118   4.118   6.170   3.508
   73K+      K+ 1119   3.105   5.439   5.809
   74K+      K+ 1120   3.077   2.086   5.023
   75K+      K+ 1121   3.543   2.877   1.766
   76K+      K+ 1122   5.174   4.221   4.412
   77K+      K+ 1123   4.044   6.120   6.975
   78K+      K+ 1124   1.907   3.638   4.039
   79K+      K+ 1125   5.448   2.968   1.307
   80K+      K+ 1126   6.111   4.740   2.546
   81K+      K+ 1127   2.646   6.229   3.014
   82K+      K+ 1128   2.823   1.369   3.140
   83K+      K+ 1129   4.106   2.202   5.461
   84K+      K+ 1130   3.442   5.023   7.110
   85K+      K+ 1131   6.041   2.158   3.075
   86K+      K+ 1132   4.355   6.660   5.460
   87K+      K+ 1133   3.766   5.028   2.111
   88Cl-    Cl- 1134   3.272   5.504   6.590
   89Cl-    Cl- 1135   5.624   4.018   2.161
   90Cl-    Cl- 1136   2.437   2.525   5.351
   91Cl-    Cl- 1137   3.703   5.710   2.415
   92Cl-    Cl- 1138   5.866   3.616   4.380
   93Cl-    Cl- 1139   3.172   1.313   3.759
   94Cl-    Cl- 1140   4.301   6.443   6.155
   95Cl-    Cl- 1141   1.929   4.146   3.117
   96Cl-    Cl- 1142   3.323   3.578   1.410
   97Cl-    Cl- 1143   4.503   2.859   6.293
   98Cl-    Cl- 1144   1.803   3.623   4.876
   99Cl-    Cl- 1145   5.634   1.589   3.764
  100Cl-    Cl- 1146   2.433   5.564   3.235
  101Cl-    Cl- 1147   4.600   2.430   1.403
  102Cl-    Cl- 1148   4.678   6.713   4.657
  103Cl-    Cl- 1149   3.662   1.522   5.374
  104Cl-    Cl- 1150   3.635   4.254   6.779
  105Cl-    Cl- 1151   4.503   4.677   1.552
  106Cl-    Cl- 1152   5.555   4.528   5.289
  107Cl-    Cl- 1153   3.549   1.614   2.450
  108Cl-    Cl- 1154   6.190   3.134   3.073
  109WAT      O 1155   6.898   6.678   6.381
  109WAT     H1 1156   6.891   6.717   6.303
  109WAT     H2 1157   6.984   6.665   6.389
  109WAT    EPW 1158   6.910   6.682   6.371
  110WAT      O 1159   6.876   7.304   6.829
  110WAT     H1 1160   6.856   7.381   6.864
  110WAT     H2 1161   6.933   7.269   6.886
  110WAT    EPW 1162   6.882   7.310   6.843
  111WAT      O 1163   5.863   7.147   6.053
  111WAT     H1 1164   5.782   7.160   6.022
  111WAT     H2 1165   5.854   7.076   6.103
  111WAT    EPW 1166   5.850   7.138   6.056
  112WAT      O 1167   7.145   7.475   6.494
  112WAT     H1 1168   7.140   7.487   6.408
  112WAT     H2 1169   7.082   7.418   6.510
  112WAT    EPW 1170   7.135   7.469   6.484
  113WAT      O 1171   6.556   6.780   6.251
  113WAT     H1 1172   6.554   6.850   6.198
  113WAT     H2 1173   6.633   6.744   6.234
  113WAT    EPW 1174   6.567   6.785   6.240
  114WAT      O 1175   6.055   7.580   6.394
  114WAT     H1 1176   6.004   7.531   6.344
  114WAT     H2 1177   6.108   7.522   6.432
  114WAT    EPW 1178   6.055   7.564   6.393
  115WAT      O 1179   6.472   7.119   7.018
  115WAT     H1 1180   6.540   7.121   6.963
  115WAT     H2 1181   6.448   7.035   7.017
  115WAT    EPW 1182   6.479   7.107   7.010
  116WAT      O 1183   6.187   7.366   6.526
  116WAT     H1 1184   6.259   7.319   6.533
  116WAT     H2 1185   6.125   7.307   6.506
  116WAT    EPW 1186   6.188   7.351   6.524
  117WAT      O 1187   6.895   7.309   7.492
  117WAT     H1 1188   6.808   7.304   7.488
  117WAT     H2 1189   6.917   7.342   7.414
  117WAT    EPW 1190   6.885   7.313   7.480
  118WAT      O 1191   6.294   6.829   6.353
  118WAT     H1 1192   6.255   6.884   6.297
  118WAT     H2 1193   6.375   6.821   6.321
  118WAT    EPW 1194   6.300   6.836   6.340
  119WAT      O 1195   7.254   6.565   7.323
  119WAT     H1 1196   7.245   6.636   7.273
  119WAT     H2 1197   7.174   6.554   7.357
  119WAT    EPW 1198   7.241   6.574   7.320
  120WAT      O 1199   6.589   6.753   6.528
  120WAT     H1 1200   6.592   6.838   6.549
  120WAT     H2 1201   6.569   6.753   6.443
  120WAT    EPW 1202   6.586   6.765   6.519
  121WAT      O 1203   7.004   6.997   5.802
  121WAT     H1 1204   6.968   7.069   5.836
  121WAT     H2 1205   7.017   6.946   5.871
  121WAT    EPW 1206   7.001   7.000   5.817
  122WAT      O 1207   5.861   7.229   6.734
  122WAT     H1 1208   5.908   7.298   6.761
  122WAT     H2 1209   5.797   7.223   6.793
  122WAT    EPW 1210   5.858   7.238   6.747
  123WAT      O 1211   6.156   6.782   6.768
  123WAT     H1 1212   6.113   6.712   6.736
  123WAT     H2 1213   6.214   6.747   6.823
  123WAT    EPW 1214   6.158   6.766   6.771
  124WAT      O 1215   7.519   7.011   6.367
  124WAT     H1 1216   7.471   7.062   6.419
  124WAT     H2 1217   7.501   6.930   6.395
  124WAT    EPW 1218   7.509   7.007   6.379
  125WAT      O 1219   6.067   6.938   7.562
  125WAT     H1 1220   5.993   6.891   7.566
  125WAT     H2 1221   6.122   6.887   7.518
  125WAT    EPW 1222   6.064   6.923   7.556
  126WAT      O 1223   6.685   6.753   7.544
  126WAT     H1 1224   6.694   6.673   7.508
  126WAT     H2 1225   6.619   6.788   7.499
  126WAT    EPW 1226   6.676   6.746   7.532
  127WAT      O 1227   6.752   7.211   6.405
  127WAT     H1 1228   6.781   7.168   6.335
  127WAT     H2 1229   6.825   7.230   6.448
  127WAT    EPW 1230   6.767   7.207   6.401
  128WAT      O 1231   6.863   7.211   5.929
  128WAT     H1 1232   6.870   7.290   5.965
  128WAT     H2 1233   6.784   7.214   5.891
  128WAT    EPW 1234   6.852   7.223   5.929
  129WAT      O 1235   5.782   6.949   7.307
  129WAT     H1 1236   5.765   7.015   7.361
  129WAT     H2 1237   5.851   6.977   7.261
  129WAT    EPW 1238   5.790   6.963   7.308
  130WAT      O 1239   7.059   6.832   6.014
  130WAT     H1 1240   7.113   6.763   6.016
  130WAT     H2 1241   7.079   6.875   6.087
  130WAT    EPW 1242   7.070   6.828   6.025
  131WAT      O 1243   5.885   6.939   6.248
  131WAT     H1 1244   5.869   6.854   6.238
  131WAT     H2 1245   5.844   6.959   6.323
  131WAT    EPW 1246   5.877   6.930   6.258
  132WAT      O 1247   6.825   7.079   6.170
  132WAT     H1 1248   6.757   7.028   6.148
  132WAT     H2 1249   6.842   7.123   6.097
  132WAT    EPW 1250   6.817   7.078   6.156
  133WAT      O 1251   6.821   6.753   6.125
  133WAT     H1 1252   6.766   6.739   6.058
  133WAT     H2 1253   6.894   6.779   6.087
  133WAT    EPW 1254   6.823   6.755   6.110
  134WAT      O 1255   6.631   7.026   6.573
  134WAT     H1 1256   6.665   7.087   6.520
  134WAT     H2 1257   6.645   7.058   6.653
  134WAT    EPW 1258   6.638   7.040   6.577
  135WAT      O 1259   6.226   6.571   6.428
  135WAT     H1 1260   6.245   6.654   6.409
  135WAT     H2 1261   6.199   6.538   6.351
  135WAT    EPW 1262   6.224   6.578   6.414
  136WAT      O 1263   7.023   6.952   7.159
  136WAT     H1 1264   7.023   6.985   7.240
  136WAT     H2 1265   6.956   6.896   7.160
  136WAT    EPW 1266   7.013   6.949   7.171
  137WAT      O 1267   7.163   6.613   6.430
  137WAT     H1 1268   7.158   6.595   6.516
  137WAT     H2 1269   7.196   6.540   6.396
  137WAT    EPW 1270   7.167   6.600   6.438
  138WAT      O 1271   7.400   7.020   7.270
  138WAT     H1 1272   7.433   7.031   7.350
  138WAT     H2 1273   7.374   7.100   7.247
  138WAT    EPW 1274   7.401   7.033   7.278
  139WAT      O 1275   6.172   6.968   6.564
  139WAT     H1 1276   6.206   6.918   6.501
  139WAT     H2 1277   6.167   6.914   6.632
  139WAT    EPW 1278   6.176   6.952   6.565
  140WAT      O 1279   6.026   7.063   6.881
  140WAT     H1 1280   6.107   7.086   6.859
  140WAT     H2 1281   5.975   7.112   6.830
  140WAT    EPW 1282   6.030   7.073   6.870
  141WAT      O 1283   7.235   7.435   5.953
  141WAT     H1 1284   7.248   7.516   5.922
  141WAT     H2 1285   7.204   7.449   6.033
  141WAT    EPW 1286   7.232   7.449   5.960
  142WAT      O 1287   7.415   6.817   6.133
  142WAT     H1 1288   7.486   6.813   6.082
  142WAT     H2 1289   7.400   6.902   6.140
  142WAT    EPW 1290   7.423   6.829   6.126
  143WAT      O 1291   7.113   7.038   6.602
  143WAT     H1 1292   7.145   6.997   6.673
  143WAT     H2 1293   7.050   6.984   6.574
  143WAT    EPW 1294   7.108   7.024   6.608
  144WAT      O 1295   6.574   6.985   6.072
  144WAT     H1 1296   6.555   6.968   5.988
  144WAT     H2 1297   6.550   7.068   6.082
  144WAT    EPW 1298   6.568   6.995   6.061
  145WAT      O 1299   6.143   7.211   7.538
  145WAT     H1 1300   6.117   7.129   7.552
  145WAT     H2 1301   6.156   7.214   7.452
  145WAT    EPW 1302   6.141   7.199   7.528
  146WAT      O 1303   6.224   7.234   6.041
  146WAT     H1 1304   6.204   7.177   6.104
  146WAT     H2 1305   6.170   7.211   5.976
  146WAT    EPW 1306   6.213   7.222   6.041
  147WAT      O 1307   6.082   7.394   6.790
  147WAT     H1 1308   6.106   7.416   6.709
  147WAT     H2 1309   6.137   7.331   6.812
  147WAT    EPW 1310   6.093   7.388   6.781
  148WAT      O 1311   6.221   7.393   7.057
  148WAT     H1 1312   6.264   7.345   6.997
  148WAT     H2 1313   6.159   7.433   7.010
  148WAT    EPW 1314   6.218   7.392   7.041
  149WAT      O 1315   7.296   7.175   6.890
  149WAT     H1 1316   7.220   7.188   6.931
  149WAT     H2 1317   7.295   7.236   6.827
  149WAT    EPW 1318   7.284   7.186   6.887
  150WAT      O 1319   6.840   6.753   7.225
  150WAT     H1 1320   6.858   6.670   7.205
  150WAT     H2 1321   6.869   6.761   7.307
  150WAT    EPW 1322   6.847   6.741   7.234
  151WAT      O 1323   7.070   6.974   6.248
  151WAT     H1 1324   7.119   7.046   6.254
  151WAT     H2 1325   6.990   7.005   6.232
  151WAT    EPW 1326   7.065   6.989   6.246
  152WAT      O 1327   6.676   7.110   6.830
  152WAT     H1 1328   6.741   7.168   6.834
  152WAT     H2 1329   6.710   7.038   6.864
  152WAT    EPW 1330   6.691   7.108   6.835
  153WAT      O 1331   6.871   7.451   6.080
  153WAT     H1 1332   6.853   7.523   6.035
  153WAT     H2 1333   6.803   7.442   6.135
  153WAT    EPW 1334   6.858   7.460   6.082
  154WAT      O 1335   6.373   6.659   5.995
  154WAT     H1 1336   6.375   6.646   6.081
  154WAT     H2 1337   6.324   6.731   5.986
  154WAT    EPW 1338   6.366   6.668   6.006
  155WAT      O 1339   7.344   6.746   7.521
  155WAT     H1 1340   7.320   6.683   7.465
  155WAT     H2 1341   7.427   6.762   7.501
  155WAT    EPW 1342   7.353   6.739   7.510
  156WAT      O 1343   5.812   6.663   6.228
  156WAT     H1 1344   5.813   6.608   6.160
  156WAT     H2 1345   5.781   6.614   6.294
  156WAT    EPW 1346   5.808   6.648   6.228
  157WAT      O 1347   6.657   7.426   6.259
  157WAT     H1 1348   6.626   7.487   6.312
  157WAT     H2 1349   6.681   7.362   6.313
  157WAT    EPW 1350   6.656   7.425   6.274
  158WAT      O 1351   6.234   6.892   5.944
  158WAT     H1 1352   6.172   6.887   5.883
  158WAT     H2 1353   6.299   6.933   5.904
  158WAT    EPW 1354   6.235   6.897   5.929
  159WAT      O 1355   6.373   7.155   6.588
  159WAT     H1 1356   6.449   7.115   6.576
  159WAT     H2 1357   6.314   7.092   6.575
  159WAT    EPW 1358   6.376   7.140   6.584
  160WAT      O 1359   5.898   7.332   6.272
  160WAT     H1 1360   5.922   7.279   6.337
  160WAT     H2 1361   5.909   7.283   6.200
  160WAT    EPW 1362   5.903   7.317   6.271
  161WAT      O 1363   6.362   7.353   5.815
  161WAT     H1 1364   6.326   7.331   5.891
  161WAT     H2 1365   6.293   7.363   5.762
  161WAT    EPW 1366   6.347   7.351   5.818
  162WAT      O 1367   6.501   7.247   6.101
  162WAT     H1 1368   6.532   7.314   6.148
  162WAT     H2 1369   6.415   7.262   6.098
  162WAT    EPW 1370   6.493   7.259   6.107
  163WAT      O 1371   7.220   6.980   7.603
  163WAT     H1 1372   7.200   6.967   7.687
  163WAT     H2 1373   7.249   6.902   7.576
  163WAT    EPW 1374   7.221   6.967   7.611
  164WAT      O 1375   5.833   6.869   6.735
  164WAT     H1 1376   5.819   6.904   6.657
  164WAT     H2 1377   5.915   6.894   6.754
  164WAT    EPW 1378   5.843   6.878   6.727
  165WAT      O 1379   7.143   7.355   7.620
  165WAT     H1 1380   7.125   7.375   7.703
  165WAT     H2 1381   7.065   7.348   7.584
  165WAT    EPW 1382   7.129   7.357   7.627
  166WAT      O 1383   7.399   7.365   7.509
  166WAT     H1 1384   7.427   7.446   7.527
  166WAT     H2 1385   7.319   7.364   7.542
  166WAT    EPW 1386   7.391   7.377   7.516
  167WAT      O 1387   7.335   7.169   6.504
  167WAT     H1 1388   7.270   7.119   6.536
  167WAT     H2 1389   7.341   7.233   6.563
  167WAT    EPW 1390   7.326   7.171   6.518
  168WAT      O 1391   7.257   6.801   7.174
  168WAT     H1 1392   7.311   6.863   7.204
  168WAT     H2 1393   7.182   6.843   7.162
  168WAT    EPW 1394   7.254   6.816   7.176
  169WAT      O 1395   6.468   7.113   7.298
  169WAT     H1 1396   6.472   7.029   7.321
  169WAT     H2 1397   6.482   7.112   7.212
  169WAT    EPW 1398   6.471   7.100   7.289
  170WAT      O 1399   7.297   6.663   6.935
  170WAT     H1 1400   7.304   6.698   7.015
  170WAT     H2 1401   7.344   6.589   6.941
  170WAT    EPW 1402   7.305   6.657   6.947
  171WAT      O 1403   6.570   6.694   7.158
  171WAT     H1 1404   6.652   6.724   7.163
  171WAT     H2 1405   6.578   6.621   7.111
  171WAT    EPW 1406   6.583   6.688   7.152
  172WAT      O 1407   7.476   7.304   5.873
  172WAT     H1 1408   7.473   7.342   5.794
  172WAT     H2 1409   7.403   7.331   5.911
  172WAT    EPW 1410   7.465   7.314   5.867
  173WAT      O 1411   6.276   7.198   6.844
  173WAT     H1 1412   6.313   7.188   6.765
  173WAT     H2 1413   6.336   7.167   6.899
  173WAT    EPW 1414   6.290   7.192   6.840
  174WAT      O 1415   7.028   7.072   7.421
  174WAT     H1 1416   6.979   7.131   7.463
  174WAT     H2 1417   7.095   7.058   7.476
  174WAT    EPW 1418   7.031   7.079   7.435
  175WAT      O 1419   7.046   7.189   7.012
  175WAT     H1 1420   7.050   7.236   7.086
  175WAT     H2 1421   7.033   7.108   7.040
  175WAT    EPW 1422   7.045   7.184   7.027
  176WAT      O 1423   7.220   7.209   6.256
  176WAT     H1 1424   7.256   7.205   6.335
  176WAT     H2 1425   7.285   7.185   6.203
  176WAT    EPW 1426   7.235   7.205   6.260
  177WAT      O 1427   6.570   6.688   6.803
  177WAT     H1 1428   6.487   6.669   6.825
  177WAT     H2 1429   6.566   6.696   6.716
  177WAT    EPW 1430   6.557   6.686   6.794
  178WAT      O 1431   7.414   6.741   6.405
  178WAT     H1 1432   7.330   6.718   6.418
  178WAT     H2 1433   7.419   6.752   6.319
  178WAT    EPW 1434   7.402   6.739   6.394
  179WAT      O 1435   5.848   6.762   7.500
  179WAT     H1 1436   5.825   6.819   7.439
  179WAT     H2 1437   5.771   6.728   7.526
  179WAT    EPW 1438   5.833   6.765   7.495
  180WAT      O 1439   6.156   7.002   6.189
  180WAT     H1 1440   6.169   6.966   6.110
  180WAT     H2 1441   6.072   6.985   6.206
  180WAT    EPW 1442   6.146   6.994   6.180
  181WAT      O 1443   7.066   7.302   7.261
  181WAT     H1 1444   7.062   7.227   7.305
  181WAT     H2 1445   7.151   7.319   7.255
  181WAT    EPW 1446   7.078   7.294   7.267
  182WAT      O 1447   6.202   7.199   7.259
  182WAT     H1 1448   6.210   7.270   7.208
  182WAT     H2 1449   6.285   7.175   7.274
  182WAT    EPW 1450   6.215   7.206   7.254
  183WAT      O 1451   5.996   7.049   7.153
  183WAT     H1 1452   6.005   7.056   7.066
  183WAT     H2 1453   6.063   7.095   7.185
  183WAT    EPW 1454   6.007   7.057   7.145
  184WAT      O 1455   7.441   7.116   6.116
  184WAT     H1 1456   7.489   7.162   6.060
  184WAT     H2 1457   7.494   7.102   6.183
  184WAT    EPW 1458   7.456   7.121   6.117
  185WAT      O 1459   6.208   6.752   7.403
  185WAT     H1 1460   6.162   6.679   7.418
  185WAT     H2 1461   6.186   6.773   7.321
  185WAT    EPW 1462   6.198   6.744   7.393
  186WAT      O 1463   7.340   7.296   7.243
  186WAT     H1 1464   7.405   7.303   7.185
  186WAT     H2 1465   7.376   7.324   7.318
  186WAT    EPW 1466   7.355   7.301   7.246
  187WAT      O 1467   6.045   7.149   5.841
  187WAT     H1 1468   5.980   7.150   5.900
  187WAT     H2 1469   6.039   7.069   5.806
  187WAT    EPW 1470   6.035   7.137   5.845
  188WAT      O 1471   6.945   6.811   7.480
  188WAT     H1 1472   6.964   6.896   7.472
  188WAT     H2 1473   6.866   6.810   7.516
  188WAT    EPW 1474   6.936   6.823   7.484
  189WAT      O 1475   6.885   6.880   6.570
  189WAT     H1 1476   6.805   6.916   6.568
  189WAT     H2 1477   6.881   6.818   6.509
  189WAT    EPW 1478   6.872   6.876   6.561
  190WAT      O 1479   7.213   6.914   6.829
  190WAT     H1 1480   7.263   6.848   6.856
  190WAT     H2 1481   7.254   6.985   6.859
  190WAT    EPW 1482   7.226   6.915   6.838
  191WAT      O 1483   7.314   7.377   6.692
  191WAT     H1 1484   7.373   7.437   6.713
  191WAT     H2 1485   7.261   7.418   6.636
  191WAT    EPW 1486   7.315   7.392   6.687
  192WAT      O 1487   6.387   6.864   7.031
  192WAT     H1 1488   6.309   6.838   7.060
  192WAT     H2 1489   6.442   6.803   7.063
  192WAT    EPW 1490   6.384   6.851   7.040
  193WAT      O 1491   6.750   6.864   6.923
  193WAT     H1 1492   6.689   6.811   6.891
  193WAT     H2 1493   6.825   6.825   6.899
  193WAT    EPW 1494   6.752   6.850   6.915
  194WAT      O 1495   6.618   7.284   7.463
  194WAT     H1 1496   6.577   7.229   7.408
  194WAT     H2 1497   6.553   7.313   7.514
  194WAT    EPW 1498   6.602   7.280   7.462
  195WAT      O 1499   6.641   6.684   5.930
  195WAT     H1 1500   6.648   6.695   5.844
  195WAT     H2 1501   6.555   6.690   5.944
  195WAT    EPW 1502   6.629   6.687   5.919
  196WAT      O 1503   6.137   6.808   7.145
  196WAT     H1 1504   6.080   6.747   7.122
  196WAT     H2 1505   6.091   6.882   7.142
  196WAT    EPW 1506   6.122   6.810   7.141
  197WAT      O 1507   6.980   6.763   6.803
  197WAT     H1 1508   7.047   6.816   6.822
  197WAT     H2 1509   6.948   6.797   6.729
  197WAT    EPW 1510   6.985   6.776   6.795
  198WAT      O 1511   6.968   7.272   6.567
  198WAT     H1 1512   7.018   7.201   6.577
  198WAT     H2 1513   6.938   7.287   6.647
  198WAT    EPW 1514   6.971   7.264   6.580
  199WAT      O 1515   5.990   7.175   6.489
  199WAT     H1 1516   5.937   7.181   6.558
  199WAT     H2 1517   6.035   7.101   6.504
  199WAT    EPW 1518   5.989   7.165   6.501
  200WAT      O 1519   7.124   7.462   6.207
  200WAT     H1 1520   7.148   7.379   6.222
  200WAT     H2 1521   7.043   7.454   6.177
  200WAT    EPW 1522   7.115   7.448   6.205
  201WAT      O 1523   7.467   7.089   7.531
  201WAT     H1 1524   7.461   7.176   7.531
  201WAT     H2 1525   7.391   7.063   7.564
  201WAT    EPW 1526   7.455   7.098   7.535
  202WAT      O 1527   7.518   7.256   7.036
  202WAT     H1 1528   7.454   7.225   6.986
  202WAT     H2 1529   7.575   7.191   7.039
  202WAT    EPW 1530   7.517   7.242   7.029
  203WAT      O 1531   6.475   6.836   7.377
  203WAT     H1 1532   6.496   6.791   7.305
  203WAT     H2 1533   6.392   6.813   7.392
  203WAT    EPW 1534   6.465   6.826   7.369
  204WAT      O 1535   6.899   6.679   4.483
  204WAT     H1 1536   6.892   6.719   4.405
  204WAT     H2 1537   6.984   6.667   4.492
  204WAT    EPW 1538   6.910   6.683   4.473
  205WAT      O 1539   6.877   7.298   4.936
  205WAT     H1 1540   6.856   7.377   4.966
  205WAT     H2 1541   6.932   7.267   4.995
  205WAT    EPW 1542   6.882   7.305   4.949
  206WAT      O 1543   5.863   7.147   4.154
  206WAT     H1 1544   5.782   7.160   4.124
  206WAT     H2 1545   5.855   7.076   4.204
  206WAT    EPW 1546   5.849   7.138   4.157
  207WAT      O 1547   7.139   7.473   4.595
  207WAT     H1 1548   7.135   7.484   4.509
  207WAT     H2 1549   7.077   7.414   4.611
  207WAT    EPW 1550   7.129   7.466   4.585
  208WAT      O 1551   6.564   6.786   4.369
  208WAT     H1 1552   6.559   6.852   4.313
  208WAT     H2 1553   6.641   6.749   4.351
  208WAT    EPW 1554   6.575   6.790   4.358
  209WAT      O 1555   6.056   7.578   4.497
  209WAT     H1 1556   6.005   7.529   4.447
  209WAT     H2 1557   6.110   7.520   4.534
  209WAT    EPW 1558   6.056   7.562   4.495
  210WAT      O 1559   6.470   7.119   5.135
  210WAT     H1 1560   6.538   7.119   5.082
  210WAT     H2 1561   6.448   7.034   5.140
  210WAT    EPW 1562   6.477   7.106   5.128
  211WAT      O 1563   6.190   7.364   4.626
  211WAT     H1 1564   6.262   7.316   4.637
  211WAT     H2 1565   6.129   7.305   4.607
  211WAT    EPW 1566   6.192   7.348   4.625
  212WAT      O 1567   6.897   7.326   5.576
  212WAT     H1 1568   6.811   7.329   5.560
  212WAT     H2 1569   6.932   7.364   5.505
  212WAT    EPW 1570   6.889   7.332   5.563
  213WAT      O 1571   6.296   6.826   4.456
  213WAT     H1 1572   6.259   6.881   4.399
  213WAT     H2 1573   6.379   6.821   4.429
  213WAT    EPW 1574   6.302   6.833   4.444
  214WAT      O 1575   7.253   6.567   5.450
  214WAT     H1 1576   7.249   6.642   5.406
  214WAT     H2 1577   7.175   6.562   5.489
  214WAT    EPW 1578   7.241   6.577   5.449
  215WAT      O 1579   6.590   6.744   4.651
  215WAT     H1 1580   6.594   6.828   4.675
  215WAT     H2 1581   6.570   6.748   4.566
  215WAT    EPW 1582   6.588   6.757   4.642
  216WAT      O 1583   7.005   6.997   3.901
  216WAT     H1 1584   6.969   7.069   3.935
  216WAT     H2 1585   7.017   6.945   3.970
  216WAT    EPW 1586   7.001   7.000   3.917
  217WAT      O 1587   5.865   7.216   4.835
  217WAT     H1 1588   5.908   7.286   4.865
  217WAT     H2 1589   5.798   7.208   4.891
  217WAT    EPW 1590   5.862   7.225   4.848
  218WAT      O 1591   6.131   6.784   4.866
  218WAT     H1 1592   6.101   6.709   4.832
  218WAT     H2 1593   6.186   6.757   4.928
  218WAT    EPW 1594   6.135   6.769   4.871
  219WAT      O 1595   6.468   6.978   5.805
  219WAT     H1 1596   6.470   6.947   5.724
  219WAT     H2 1597   6.509   7.055   5.799
  219WAT    EPW 1598   6.474   6.985   5.792
  220WAT      O 1599   7.528   7.018   4.470
  220WAT     H1 1600   7.480   7.069   4.523
  220WAT     H2 1601   7.504   6.938   4.492
  220WAT    EPW 1602   7.517   7.014   4.481
  221WAT      O 1603   6.044   6.888   5.738
  221WAT     H1 1604   5.964   6.858   5.719
  221WAT     H2 1605   6.093   6.861   5.670
  221WAT    EPW 1606   6.039   6.879   5.725
  222WAT      O 1607   6.660   6.711   5.658
  222WAT     H1 1608   6.673   6.637   5.613
  222WAT     H2 1609   6.593   6.749   5.617
  222WAT    EPW 1610   6.652   6.705   5.645
  223WAT      O 1611   6.750   7.205   4.512
  223WAT     H1 1612   6.778   7.163   4.441
  223WAT     H2 1613   6.824   7.225   4.555
  223WAT    EPW 1614   6.765   7.201   4.508
  224WAT      O 1615   6.863   7.209   4.031
  224WAT     H1 1616   6.870   7.288   4.067
  224WAT     H2 1617   6.785   7.211   3.993
  224WAT    EPW 1618   6.852   7.221   4.031
  225WAT      O 1619   5.794   7.005   5.468
  225WAT     H1 1620   5.780   7.082   5.506
  225WAT     H2 1621   5.854   7.023   5.407
  225WAT    EPW 1622   5.801   7.019   5.464
  226WAT      O 1623   7.057   6.831   4.113
  226WAT     H1 1624   7.111   6.762   4.115
  226WAT     H2 1625   7.078   6.875   4.186
  226WAT    EPW 1626   7.068   6.827   4.124
  227WAT      O 1627   5.886   6.939   4.348
  227WAT     H1 1628   5.868   6.854   4.338
  227WAT     H2 1629   5.846   6.960   4.423
  227WAT    EPW 1630   5.878   6.930   4.358
  228WAT      O 1631   6.822   7.078   4.274
  228WAT     H1 1632   6.756   7.026   4.251
  228WAT     H2 1633   6.840   7.122   4.200
  228WAT    EPW 1634   6.815   7.077   4.260
  229WAT      O 1635   6.820   6.754   4.228
  229WAT     H1 1636   6.764   6.739   4.162
  229WAT     H2 1637   6.893   6.780   4.187
  229WAT    EPW 1638   6.823   6.756   4.212
  230WAT      O 1639   6.632   7.022   4.685
  230WAT     H1 1640   6.664   7.083   4.632
  230WAT     H2 1641   6.645   7.055   4.765
  230WAT    EPW 1642   6.638   7.036   4.689
  231WAT      O 1643   6.230   6.567   4.531
  231WAT     H1 1644   6.249   6.650   4.512
  231WAT     H2 1645   6.202   6.534   4.455
  231WAT    EPW 1646   6.229   6.575   4.517
  232WAT      O 1647   7.034   6.952   5.264
  232WAT     H1 1648   7.033   6.991   5.342
  232WAT     H2 1649   6.967   6.896   5.268
  232WAT    EPW 1650   7.024   6.949   5.276
  233WAT      O 1651   7.163   6.616   4.533
  233WAT     H1 1652   7.163   6.597   4.618
  233WAT     H2 1653   7.194   6.544   4.496
  233WAT    EPW 1654   7.168   6.603   4.540
  234WAT      O 1655   7.404   7.017   5.448
  234WAT     H1 1656   7.481   7.022   5.488
  234WAT     H2 1657   7.347   7.007   5.514
  234WAT    EPW 1658   7.407   7.016   5.464
  235WAT      O 1659   6.175   6.968   4.665
  235WAT     H1 1660   6.209   6.917   4.603
  235WAT     H2 1661   6.163   6.913   4.732
  235WAT    EPW 1662   6.179   6.952   4.665
  236WAT      O 1663   6.037   7.077   5.010
  236WAT     H1 1664   6.115   7.102   4.980
  236WAT     H2 1665   5.982   7.106   4.949
  236WAT    EPW 1666   6.040   7.085   4.996
  237WAT      O 1667   7.232   7.435   4.054
  237WAT     H1 1668   7.246   7.516   4.024
  237WAT     H2 1669   7.202   7.448   4.134
  237WAT    EPW 1670   7.230   7.449   4.061
  238WAT      O 1671   6.612   7.217   5.799
  238WAT     H1 1672   6.544   7.264   5.828
  238WAT     H2 1673   6.621   7.244   5.716
  238WAT    EPW 1674   6.603   7.228   5.791
  239WAT      O 1675   7.413   6.817   4.219
  239WAT     H1 1676   7.484   6.804   4.170
  239WAT     H2 1677   7.402   6.904   4.216
  239WAT    EPW 1678   7.422   6.828   4.211
  240WAT      O 1679   7.119   7.033   4.704
  240WAT     H1 1680   7.151   6.991   4.773
  240WAT     H2 1681   7.055   6.982   4.676
  240WAT    EPW 1682   7.115   7.020   4.710
  241WAT      O 1683   6.572   6.981   4.177
  241WAT     H1 1684   6.554   6.962   4.094
  241WAT     H2 1685   6.548   7.065   4.185
  241WAT    EPW 1686   6.566   6.991   4.166
  242WAT      O 1687   6.119   7.349   5.664
  242WAT     H1 1688   6.094   7.279   5.710
  242WAT     H2 1689   6.130   7.318   5.583
  242WAT    EPW 1690   6.117   7.334   5.659
  243WAT      O 1691   6.226   7.231   4.141
  243WAT     H1 1692   6.206   7.175   4.205
  243WAT     H2 1693   6.171   7.210   4.076
  243WAT    EPW 1694   6.215   7.220   4.141
  244WAT      O 1695   6.081   7.394   4.889
  244WAT     H1 1696   6.105   7.415   4.807
  244WAT     H2 1697   6.139   7.334   4.912
  244WAT    EPW 1698   6.093   7.388   4.880
  245WAT      O 1699   6.200   7.388   5.168
  245WAT     H1 1700   6.244   7.342   5.109
  245WAT     H2 1701   6.138   7.427   5.120
  245WAT    EPW 1702   6.197   7.387   5.152
  246WAT      O 1703   7.284   7.170   4.986
  246WAT     H1 1704   7.211   7.185   5.031
  246WAT     H2 1705   7.283   7.232   4.924
  246WAT    EPW 1706   7.273   7.182   4.983
  247WAT      O 1707   6.848   6.756   5.341
  247WAT     H1 1708   6.867   6.673   5.322
  247WAT     H2 1709   6.875   6.765   5.423
  247WAT    EPW 1710   6.855   6.745   5.350
  248WAT      O 1711   7.067   6.971   4.349
  248WAT     H1 1712   7.117   7.042   4.356
  248WAT     H2 1713   6.988   7.003   4.333
  248WAT    EPW 1714   7.063   6.986   4.347
  249WAT      O 1715   6.672   7.108   4.943
  249WAT     H1 1716   6.738   7.165   4.946
  249WAT     H2 1717   6.707   7.034   4.974
  249WAT    EPW 1718   6.687   7.105   4.948
  250WAT      O 1719   6.870   7.447   4.183
  250WAT     H1 1720   6.851   7.520   4.139
  250WAT     H2 1721   6.802   7.438   4.238
  250WAT    EPW 1722   6.857   7.457   4.185
  251WAT      O 1723   6.372   6.658   4.099
  251WAT     H1 1724   6.370   6.644   4.185
  251WAT     H2 1725   6.323   6.730   4.088
  251WAT    EPW 1726   6.364   6.667   4.110
  252WAT      O 1727   7.328   6.700   5.689
  252WAT     H1 1728   7.318   6.652   5.617
  252WAT     H2 1729   7.365   6.645   5.746
  252WAT    EPW 1730   7.332   6.685   5.687
  253WAT      O 1731   5.811   6.663   4.328
  253WAT     H1 1732   5.811   6.608   4.260
  253WAT     H2 1733   5.781   6.615   4.394
  253WAT    EPW 1734   5.806   6.648   4.328
  254WAT      O 1735   6.657   7.419   4.363
  254WAT     H1 1736   6.625   7.481   4.416
  254WAT     H2 1737   6.680   7.356   4.418
  254WAT    EPW 1738   6.655   7.419   4.379
  255WAT      O 1739   6.233   6.890   4.044
  255WAT     H1 1740   6.171   6.887   3.983
  255WAT     H2 1741   6.298   6.932   4.004
  255WAT    EPW 1742   6.233   6.896   4.029
  256WAT      O 1743   6.375   7.154   4.698
  256WAT     H1 1744   6.451   7.112   4.687
  256WAT     H2 1745   6.316   7.092   4.684
  256WAT    EPW 1746   6.378   7.139   4.694
  257WAT      O 1747   5.899   7.332   4.373
  257WAT     H1 1748   5.923   7.279   4.438
  257WAT     H2 1749   5.909   7.282   4.302
  257WAT    EPW 1750   5.904   7.316   4.372
  258WAT      O 1751   6.364   7.351   3.913
  258WAT     H1 1752   6.328   7.330   3.990
  258WAT     H2 1753   6.295   7.360   3.860
  258WAT    EPW 1754   6.349   7.350   3.917
  259WAT      O 1755   6.503   7.245   4.199
  259WAT     H1 1756   6.534   7.310   4.248
  259WAT     H2 1757   6.417   7.259   4.196
  259WAT    EPW 1758   6.495   7.256   4.206
  260WAT      O 1759   7.253   6.967   5.677
  260WAT     H1 1760   7.187   6.981   5.733
  260WAT     H2 1761   7.270   6.882   5.687
  260WAT    EPW 1762   7.245   6.957   5.687
  261WAT      O 1763   5.834   6.871   4.837
  261WAT     H1 1764   5.822   6.905   4.758
  261WAT     H2 1765   5.921   6.869   4.846
  261WAT    EPW 1766   5.845   6.875   4.827
  262WAT      O 1767   7.145   7.301   5.719
  262WAT     H1 1768   7.152   7.330   5.800
  262WAT     H2 1769   7.062   7.318   5.698
  262WAT    EPW 1770   7.133   7.308   5.728
  263WAT      O 1771   7.386   7.410   5.629
  263WAT     H1 1772   7.399   7.383   5.547
  263WAT     H2 1773   7.307   7.377   5.649
  263WAT    EPW 1774   7.376   7.401   5.620
  264WAT      O 1775   7.338   7.172   4.606
  264WAT     H1 1776   7.274   7.120   4.637
  264WAT     H2 1777   7.341   7.237   4.664
  264WAT    EPW 1778   7.329   7.174   4.619
  265WAT      O 1779   7.270   6.806   5.299
  265WAT     H1 1780   7.323   6.865   5.336
  265WAT     H2 1781   7.197   6.851   5.284
  265WAT    EPW 1782   7.267   6.822   5.302
  266WAT      O 1783   6.442   7.138   5.415
  266WAT     H1 1784   6.445   7.056   5.444
  266WAT     H2 1785   6.458   7.130   5.330
  266WAT    EPW 1786   6.445   7.125   5.407
  267WAT      O 1787   7.298   6.656   5.061
  267WAT     H1 1788   7.304   6.694   5.139
  267WAT     H2 1789   7.343   6.582   5.071
  267WAT    EPW 1790   7.306   6.651   5.074
  268WAT      O 1791   6.570   6.722   5.338
  268WAT     H1 1792   6.655   6.737   5.328
  268WAT     H2 1793   6.564   6.635   5.339
  268WAT    EPW 1794   6.582   6.711   5.336
  269WAT      O 1795   7.472   7.298   3.979
  269WAT     H1 1796   7.471   7.336   3.900
  269WAT     H2 1797   7.399   7.328   4.017
  269WAT    EPW 1798   7.461   7.308   3.973
  270WAT      O 1799   6.283   7.207   4.954
  270WAT     H1 1800   6.319   7.194   4.876
  270WAT     H2 1801   6.342   7.175   5.010
  270WAT    EPW 1802   6.297   7.200   4.951
  271WAT      O 1803   7.047   7.093   5.502
  271WAT     H1 1804   6.988   7.140   5.545
  271WAT     H2 1805   7.105   7.071   5.564
  271WAT    EPW 1806   7.047   7.097   5.518
  272WAT      O 1807   7.047   7.196   5.126
  272WAT     H1 1808   7.063   7.244   5.197
  272WAT     H2 1809   7.036   7.116   5.158
  272WAT    EPW 1810   7.048   7.191   5.141
  273WAT      O 1811   7.220   7.204   4.358
  273WAT     H1 1812   7.257   7.202   4.437
  273WAT     H2 1813   7.284   7.177   4.305
  273WAT    EPW 1814   7.235   7.200   4.361
  274WAT      O 1815   6.564   6.673   4.937
  274WAT     H1 1816   6.479   6.666   4.958
  274WAT     H2 1817   6.562   6.677   4.850
  274WAT    EPW 1818   6.551   6.672   4.927
  275WAT      O 1819   7.408   6.755   4.493
  275WAT     H1 1820   7.325   6.731   4.509
  275WAT     H2 1821   7.409   6.767   4.407
  275WAT    EPW 1822   7.396   6.754   4.483
  276WAT      O 1823   5.802   6.778   5.626
  276WAT     H1 1824   5.804   6.850   5.577
  276WAT     H2 1825   5.717   6.759   5.632
  276WAT    EPW 1826   5.790   6.785   5.620
  277WAT      O 1827   6.159   6.999   4.290
  277WAT     H1 1828   6.170   6.963   4.211
  277WAT     H2 1829   6.075   6.984   4.308
  277WAT    EPW 1830   6.148   6.991   4.281
  278WAT      O 1831   7.103   7.325   5.363
  278WAT     H1 1832   7.093   7.253   5.410
  278WAT     H2 1833   7.190   7.338   5.363
  278WAT    EPW 1834   7.115   7.316   5.370
  279WAT      O 1835   6.179   7.240   5.403
  279WAT     H1 1836   6.185   7.297   5.338
  279WAT     H2 1837   6.260   7.209   5.410
  279WAT    EPW 1838   6.192   7.244   5.394
  280WAT      O 1839   5.992   7.073   5.278
  280WAT     H1 1840   6.008   7.077   5.192
  280WAT     H2 1841   6.054   7.124   5.312
  280WAT    EPW 1842   6.003   7.081   5.270
  281WAT      O 1843   7.435   7.100   4.218
  281WAT     H1 1844   7.484   7.148   4.164
  281WAT     H2 1845   7.486   7.089   4.288
  281WAT    EPW 1846   7.450   7.105   4.220
  282WAT      O 1847   6.191   6.770   5.533
  282WAT     H1 1848   6.161   6.689   5.538
  282WAT     H2 1849   6.174   6.794   5.451
  282WAT    EPW 1850   6.184   6.762   5.521
  283WAT      O 1851   7.382   7.288   5.374
  283WAT     H1 1852   7.427   7.295   5.299
  283WAT     H2 1853   7.388   7.204   5.394
  283WAT    EPW 1854   7.390   7.277   5.366
  284WAT      O 1855   6.045   7.150   3.942
  284WAT     H1 1856   5.980   7.152   4.000
  284WAT     H2 1857   6.038   7.070   3.906
  284WAT    EPW 1858   6.034   7.138   3.945
  285WAT      O 1859   6.916   6.805   5.611
  285WAT     H1 1860   6.943   6.872   5.661
  285WAT     H2 1861   6.835   6.790   5.639
  285WAT    EPW 1862   6.908   6.813   5.623
  286WAT      O 1863   6.886   6.882   4.670
  286WAT     H1 1864   6.806   6.916   4.671
  286WAT     H2 1865   6.881   6.820   4.609
  286WAT    EPW 1866   6.874   6.878   4.661
  287WAT      O 1867   7.217   6.904   4.931
  287WAT     H1 1868   7.266   6.842   4.969
  287WAT     H2 1869   7.253   6.978   4.961
  287WAT    EPW 1870   7.230   6.905   4.941
  288WAT      O 1871   7.306   7.378   4.795
  288WAT     H1 1872   7.359   7.441   4.824
  288WAT     H2 1873   7.254   7.418   4.738
  288WAT    EPW 1874   7.306   7.393   4.791
  289WAT      O 1875   6.391   6.864   5.176
  289WAT     H1 1876   6.310   6.840   5.200
  289WAT     H2 1877   6.442   6.807   5.218
  289WAT    EPW 1878   6.386   6.852   5.186
  290WAT      O 1879   6.754   6.860   5.024
  290WAT     H1 1880   6.691   6.802   5.005
  290WAT     H2 1881   6.827   6.819   4.999
  290WAT    EPW 1882   6.756   6.845   5.017
  291WAT      O 1883   6.614   7.320   5.540
  291WAT     H1 1884   6.566   7.262   5.496
  291WAT     H2 1885   6.559   7.385   5.556
  291WAT    EPW 1886   6.599   7.321   5.536
  292WAT      O 1887   6.640   6.684   4.033
  292WAT     H1 1888   6.647   6.695   3.947
  292WAT     H2 1889   6.554   6.689   4.047
  292WAT    EPW 1890   6.628   6.686   4.022
  293WAT      O 1891   6.129   6.827   5.273
  293WAT     H1 1892   6.074   6.764   5.251
  293WAT     H2 1893   6.081   6.900   5.266
  293WAT    EPW 1894   6.114   6.829   5.269
  294WAT      O 1895   6.983   6.758   4.899
  294WAT     H1 1896   7.049   6.811   4.920
  294WAT     H2 1897   6.950   6.795   4.826
  294WAT    EPW 1898   6.987   6.772   4.891
  295WAT      O 1899   6.968   7.265   4.673
  295WAT     H1 1900   7.020   7.195   4.682
  295WAT     H2 1901   6.939   7.280   4.754
  295WAT    EPW 1902   6.972   7.257   4.686
  296WAT      O 1903   5.993   7.173   4.589
  296WAT     H1 1904   5.941   7.179   4.659
  296WAT     H2 1905   6.039   7.100   4.603
  296WAT    EPW 1906   5.992   7.163   4.601
  297WAT      O 1907   7.123   7.457   4.309
  297WAT     H1 1908   7.147   7.375   4.323
  297WAT     H2 1909   7.041   7.450   4.278
  297WAT    EPW 1910   7.114   7.444   4.306
  298WAT      O 1911   7.516   7.063   5.727
  298WAT     H1 1912   7.512   7.136   5.775
  298WAT     H2 1913   7.434   7.034   5.728
  298WAT    EPW 1914   7.503   7.070   5.734
  299WAT      O 1915   7.502   7.273   5.124
  299WAT     H1 1916   7.437   7.235   5.079
  299WAT     H2 1917   7.573   7.232   5.095
  299WAT    EPW 1918   7.503   7.261   5.113
  300WAT      O 1919   6.452   6.872   5.536
  300WAT     H1 1920   6.487   6.831   5.466
  300WAT     H2 1921   6.371   6.839   5.540
  300WAT    EPW 1922   6.445   6.861   5.526
  301WAT      O 1923   6.896   6.679   2.582
  301WAT     H1 1924   6.890   6.719   2.504
  301WAT     H2 1925   6.982   6.666   2.591
  301WAT    EPW 1926   6.908   6.683   2.572
  302WAT      O 1927   6.877   7.298   3.035
  302WAT     H1 1928   6.857   7.378   3.066
  302WAT     H2 1929   6.933   7.267   3.094
  302WAT    EPW 1930   6.882   7.305   3.049
  303WAT      O 1931   5.862   7.145   2.251
  303WAT     H1 1932   5.781   7.156   2.220
  303WAT     H2 1933   5.854   7.075   2.302
  303WAT    EPW 1934   5.849   7.136   2.254
  304WAT      O 1935   7.139   7.474   2.695
  304WAT     H1 1936   7.135   7.485   2.608
  304WAT     H2 1937   7.077   7.415   2.711
  304WAT    EPW 1938   7.129   7.467   2.684
  305WAT      O 1939   6.564   6.785   2.468
  305WAT     H1 1940   6.559   6.852   2.412
  305WAT     H2 1941   6.641   6.748   2.450
  305WAT    EPW 1942   6.575   6.790   2.457
  306WAT      O 1943   6.055   7.577   2.591
  306WAT     H1 1944   6.003   7.528   2.542
  306WAT     H2 1945   6.109   7.519   2.629
  306WAT    EPW 1946   6.055   7.561   2.590
  307WAT      O 1947   6.469   7.118   3.235
  307WAT     H1 1948   6.538   7.118   3.181
  307WAT     H2 1949   6.448   7.033   3.239
  307WAT    EPW 1950   6.476   7.105   3.227
  308WAT      O 1951   6.190   7.364   2.721
  308WAT     H1 1952   6.262   7.316   2.733
  308WAT     H2 1953   6.129   7.305   2.702
  308WAT    EPW 1954   6.192   7.348   2.720
  309WAT      O 1955   6.896   7.326   3.675
  309WAT     H1 1956   6.810   7.329   3.660
  309WAT     H2 1957   6.930   7.364   3.605
  309WAT    EPW 1958   6.888   7.332   3.662
  310WAT      O 1959   6.296   6.828   2.556
  310WAT     H1 1960   6.259   6.882   2.498
  310WAT     H2 1961   6.379   6.823   2.528
  310WAT    EPW 1962   6.303   6.835   2.543
  311WAT      O 1963   7.253   6.566   3.550
  311WAT     H1 1964   7.248   6.641   3.506
  311WAT     H2 1965   7.175   6.560   3.589
  311WAT    EPW 1966   7.240   6.576   3.549
  312WAT      O 1967   6.590   6.745   2.750
  312WAT     H1 1968   6.594   6.829   2.773
  312WAT     H2 1969   6.571   6.748   2.665
  312WAT    EPW 1970   6.588   6.758   2.741
  313WAT      O 1971   7.003   6.997   2.002
  313WAT     H1 1972   6.967   7.069   2.037
  313WAT     H2 1973   7.016   6.946   2.071
  313WAT    EPW 1974   7.000   7.000   2.017
  314WAT      O 1975   5.868   7.221   2.931
  314WAT     H1 1976   5.911   7.292   2.959
  314WAT     H2 1977   5.802   7.214   2.987
  314WAT    EPW 1978   5.865   7.230   2.943
  315WAT      O 1979   6.153   6.785   2.969
  315WAT     H1 1980   6.112   6.715   2.936
  315WAT     H2 1981   6.207   6.751   3.028
  315WAT    EPW 1982   6.155   6.770   2.973
  316WAT      O 1983   6.469   6.975   3.908
  316WAT     H1 1984   6.470   6.944   3.826
  316WAT     H2 1985   6.510   7.051   3.902
  316WAT    EPW 1986   6.475   6.982   3.895
  317WAT      O 1987   7.524   7.016   2.569
  317WAT     H1 1988   7.476   7.067   2.621
  317WAT     H2 1989   7.503   6.935   2.594
  317WAT    EPW 1990   7.514   7.012   2.580
  318WAT      O 1991   6.042   6.889   3.837
  318WAT     H1 1992   5.963   6.861   3.815
  318WAT     H2 1993   6.092   6.863   3.770
  318WAT    EPW 1994   6.038   6.881   3.824
  319WAT      O 1995   6.659   6.710   3.760
  319WAT     H1 1996   6.673   6.637   3.714
  319WAT     H2 1997   6.593   6.749   3.719
  319WAT    EPW 1998   6.652   6.705   3.747
  320WAT      O 1999   6.750   7.205   2.612
  320WAT     H1 2000   6.778   7.163   2.541
  320WAT     H2 2001   6.824   7.225   2.655
  320WAT    EPW 2002   6.765   7.202   2.608
  321WAT      O 2003   6.862   7.209   2.132
  321WAT     H1 2004   6.869   7.289   2.168
  321WAT     H2 2005   6.784   7.211   2.093
  321WAT    EPW 2006   6.851   7.221   2.132
  322WAT      O 2007   5.790   7.007   3.560
  322WAT     H1 2008   5.778   7.084   3.599
  322WAT     H2 2009   5.849   7.024   3.499
  322WAT    EPW 2010   5.797   7.021   3.557
  323WAT      O 2011   7.058   6.831   2.213
  323WAT     H1 2012   7.112   6.762   2.215
  323WAT     H2 2013   7.078   6.875   2.286
  323WAT    EPW 2014   7.069   6.827   2.224
  324WAT      O 2015   5.885   6.939   2.447
  324WAT     H1 2016   5.866   6.854   2.437
  324WAT     H2 2017   5.845   6.960   2.522
  324WAT    EPW 2018   5.876   6.929   2.457
  325WAT      O 2019   6.823   7.078   2.374
  325WAT     H1 2020   6.756   7.025   2.352
  325WAT     H2 2021   6.840   7.122   2.301
  325WAT    EPW 2022   6.815   7.076   2.360
  326WAT      O 2023   6.820   6.755   2.327
  326WAT     H1 2024   6.765   6.740   2.262
  326WAT     H2 2025   6.894   6.779   2.286
  326WAT    EPW 2026   6.823   6.756   2.311
  327WAT      O 2027   6.631   7.023   2.785
  327WAT     H1 2028   6.665   7.083   2.732
  327WAT     H2 2029   6.645   7.055   2.865
  327WAT    EPW 2030   6.638   7.036   2.789
  328WAT      O 2031   6.232   6.569   2.632
  328WAT     H1 2032   6.250   6.652   2.613
  328WAT     H2 2033   6.204   6.537   2.556
  328WAT    EPW 2034   6.230   6.577   2.618
  329WAT      O 2035   7.033   6.952   3.364
  329WAT     H1 2036   7.032   6.991   3.442
  329WAT     H2 2037   6.966   6.896   3.367
  329WAT    EPW 2038   7.023   6.950   3.376
  330WAT      O 2039   7.160   6.613   2.629
  330WAT     H1 2040   7.157   6.593   2.714
  330WAT     H2 2041   7.194   6.541   2.592
  330WAT    EPW 2042   7.164   6.599   2.636
  331WAT      O 2043   7.404   7.017   3.548
  331WAT     H1 2044   7.483   7.020   3.587
  331WAT     H2 2045   7.349   7.007   3.615
  331WAT    EPW 2046   7.408   7.016   3.564
  332WAT      O 2047   6.175   6.969   2.764
  332WAT     H1 2048   6.209   6.918   2.701
  332WAT     H2 2049   6.169   6.915   2.832
  332WAT    EPW 2050   6.179   6.953   2.765
  333WAT      O 2051   6.031   7.070   3.098
  333WAT     H1 2052   6.112   7.093   3.072
  333WAT     H2 2053   5.980   7.111   3.041
  333WAT    EPW 2054   6.036   7.079   3.086
  334WAT      O 2055   7.234   7.435   2.153
  334WAT     H1 2056   7.247   7.516   2.123
  334WAT     H2 2057   7.203   7.449   2.234
  334WAT    EPW 2058   7.231   7.449   2.161
  335WAT      O 2059   6.613   7.213   3.900
  335WAT     H1 2060   6.547   7.260   3.930
  335WAT     H2 2061   6.622   7.240   3.817
  335WAT    EPW 2062   6.605   7.224   3.892
  336WAT      O 2063   7.415   6.819   2.326
  336WAT     H1 2064   7.489   6.808   2.281
  336WAT     H2 2065   7.402   6.905   2.324
  336WAT    EPW 2066   7.424   6.830   2.319
  337WAT      O 2067   7.118   7.034   2.804
  337WAT     H1 2068   7.152   6.991   2.872
  337WAT     H2 2069   7.054   6.982   2.776
  337WAT    EPW 2070   7.114   7.020   2.810
  338WAT      O 2071   6.572   6.981   2.277
  338WAT     H1 2072   6.554   6.963   2.194
  338WAT     H2 2073   6.549   7.064   2.286
  338WAT    EPW 2074   6.566   6.990   2.266
  339WAT      O 2075   6.123   7.345   3.761
  339WAT     H1 2076   6.096   7.276   3.807
  339WAT     H2 2077   6.131   7.313   3.680
  339WAT    EPW 2078   6.121   7.330   3.756
  340WAT      O 2079   6.225   7.231   2.241
  340WAT     H1 2080   6.205   7.174   2.305
  340WAT     H2 2081   6.172   7.209   2.176
  340WAT    EPW 2082   6.215   7.219   2.241
  341WAT      O 2083   6.085   7.394   2.985
  341WAT     H1 2084   6.110   7.414   2.903
  341WAT     H2 2085   6.143   7.334   3.009
  341WAT    EPW 2086   6.097   7.388   2.976
  342WAT      O 2087   6.199   7.386   3.266
  342WAT     H1 2088   6.243   7.339   3.207
  342WAT     H2 2089   6.138   7.427   3.218
  342WAT    EPW 2090   6.196   7.385   3.250
  343WAT      O 2091   7.285   7.170   3.085
  343WAT     H1 2092   7.212   7.185   3.130
  343WAT     H2 2093   7.284   7.232   3.023
  343WAT    EPW 2094   7.274   7.182   3.083
  344WAT      O 2095   6.847   6.756   3.441
  344WAT     H1 2096   6.867   6.673   3.422
  344WAT     H2 2097   6.875   6.765   3.524
  344WAT    EPW 2098   6.854   6.745   3.451
  345WAT      O 2099   7.069   6.973   2.447
  345WAT     H1 2100   7.119   7.044   2.454
  345WAT     H2 2101   6.989   7.005   2.432
  345WAT    EPW 2102   7.065   6.988   2.446
  346WAT      O 2103   6.673   7.108   3.044
  346WAT     H1 2104   6.739   7.165   3.046
  346WAT     H2 2105   6.708   7.034   3.074
  346WAT    EPW 2106   6.688   7.105   3.048
  347WAT      O 2107   6.869   7.448   2.283
  347WAT     H1 2108   6.849   7.521   2.238
  347WAT     H2 2109   6.802   7.439   2.338
  347WAT    EPW 2110   6.856   7.458   2.284
  348WAT      O 2111   6.371   6.657   2.199
  348WAT     H1 2112   6.369   6.644   2.285
  348WAT     H2 2113   6.323   6.729   2.188
  348WAT    EPW 2114   6.364   6.666   2.210
  349WAT      O 2115   7.328   6.699   3.788
  349WAT     H1 2116   7.317   6.651   3.716
  349WAT     H2 2117   7.365   6.644   3.845
  349WAT    EPW 2118   7.332   6.684   3.786
  350WAT      O 2119   5.806   6.664   2.426
  350WAT     H1 2120   5.807   6.609   2.359
  350WAT     H2 2121   5.778   6.616   2.493
  350WAT    EPW 2122   5.802   6.649   2.426
  351WAT      O 2123   6.657   7.420   2.463
  351WAT     H1 2124   6.625   7.481   2.516
  351WAT     H2 2125   6.680   7.356   2.518
  351WAT    EPW 2126   6.656   7.419   2.479
  352WAT      O 2127   6.232   6.889   2.143
  352WAT     H1 2128   6.170   6.885   2.082
  352WAT     H2 2129   6.298   6.931   2.103
  352WAT    EPW 2130   6.233   6.894   2.128
  353WAT      O 2131   6.375   7.155   2.797
  353WAT     H1 2132   6.451   7.113   2.786
  353WAT     H2 2133   6.316   7.093   2.782
  353WAT    EPW 2134   6.378   7.140   2.793
  354WAT      O 2135   5.894   7.331   2.469
  354WAT     H1 2136   5.919   7.278   2.534
  354WAT     H2 2137   5.905   7.282   2.398
  354WAT    EPW 2138   5.899   7.316   2.468
  355WAT      O 2139   6.364   7.353   2.016
  355WAT     H1 2140   6.328   7.330   2.092
  355WAT     H2 2141   6.296   7.362   1.963
  355WAT    EPW 2142   6.349   7.351   2.020
  356WAT      O 2143   6.503   7.244   2.300
  356WAT     H1 2144   6.533   7.309   2.349
  356WAT     H2 2145   6.417   7.259   2.298
  356WAT    EPW 2146   6.495   7.256   2.307
  357WAT      O 2147   7.253   6.967   3.777
  357WAT     H1 2148   7.187   6.981   3.832
  357WAT     H2 2149   7.270   6.881   3.786
  357WAT    EPW 2150   7.246   6.956   3.787
  358WAT      O 2151   5.843   6.865   2.932
  358WAT     H1 2152   5.827   6.904   2.855
  358WAT     H2 2153   5.925   6.887   2.950
  358WAT    EPW 2154   5.853   6.874   2.923
  359WAT      O 2155   7.143   7.301   3.818
  359WAT     H1 2156   7.150   7.331   3.900
  359WAT     H2 2157   7.061   7.319   3.797
  359WAT    EPW 2158   7.132   7.308   3.827
  360WAT      O 2159   7.389   7.404   3.732
  360WAT     H1 2160   7.401   7.380   3.650
  360WAT     H2 2161   7.309   7.373   3.751
  360WAT    EPW 2162   7.379   7.396   3.723
  361WAT      O 2163   7.336   7.172   2.705
  361WAT     H1 2164   7.273   7.120   2.736
  361WAT     H2 2165   7.341   7.237   2.763
  361WAT    EPW 2166   7.328   7.174   2.718
  362WAT      O 2167   7.269   6.807   3.402
  362WAT     H1 2168   7.322   6.866   3.438
  362WAT     H2 2169   7.196   6.851   3.385
  362WAT    EPW 2170   7.266   6.822   3.405
  363WAT      O 2171   6.442   7.137   3.515
  363WAT     H1 2172   6.446   7.055   3.544
  363WAT     H2 2173   6.458   7.129   3.429
  363WAT    EPW 2174   6.445   7.124   3.506
  364WAT      O 2175   7.296   6.659   3.162
  364WAT     H1 2176   7.303   6.695   3.241
  364WAT     H2 2177   7.341   6.584   3.170
  364WAT    EPW 2178   7.304   6.653   3.175
  365WAT      O 2179   6.570   6.722   3.437
  365WAT     H1 2180   6.655   6.737   3.428
  365WAT     H2 2181   6.564   6.635   3.437
  365WAT    EPW 2182   6.581   6.711   3.436
  366WAT      O 2183   7.474   7.302   2.075
  366WAT     H1 2184   7.472   7.340   1.997
  366WAT     H2 2185   7.401   7.330   2.114
  366WAT    EPW 2186   7.463   7.311   2.069
  367WAT      O 2187   6.281   7.203   3.054
  367WAT     H1 2188   6.318   7.191   2.976
  367WAT     H2 2189   6.340   7.171   3.110
  367WAT    EPW 2190   6.295   7.196   3.051
  368WAT      O 2191   7.047   7.094   3.602
  368WAT     H1 2192   6.987   7.141   3.644
  368WAT     H2 2193   7.104   7.073   3.664
  368WAT    EPW 2194   7.046   7.098   3.617
  369WAT      O 2195   7.048   7.196   3.225
  369WAT     H1 2196   7.063   7.244   3.296
  369WAT     H2 2197   7.036   7.116   3.257
  369WAT    EPW 2198   7.048   7.191   3.240
  370WAT      O 2199   7.221   7.207   2.456
  370WAT     H1 2200   7.257   7.204   2.535
  370WAT     H2 2201   7.285   7.181   2.403
  370WAT    EPW 2202   7.236   7.203   2.460
  371WAT      O 2203   6.568   6.672   3.035
  371WAT     H1 2204   6.484   6.664   3.057
  371WAT     H2 2205   6.566   6.677   2.948
  371WAT    EPW 2206   6.555   6.672   3.025
  372WAT      O 2207   7.408   6.750   2.599
  372WAT     H1 2208   7.325   6.726   2.612
  372WAT     H2 2209   7.411   6.763   2.513
  372WAT    EPW 2210   7.396   6.748   2.588
  373WAT      O 2211   5.802   6.783   3.723
  373WAT     H1 2212   5.802   6.854   3.673
  373WAT     H2 2213   5.717   6.766   3.735
  373WAT    EPW 2214   5.790   6.791   3.718
  374WAT      O 2215   6.158   6.998   2.389
  374WAT     H1 2216   6.169   6.962   2.310
  374WAT     H2 2217   6.073   6.983   2.406
  374WAT    EPW 2218   6.147   6.990   2.380
  375WAT      O 2219   7.103   7.325   3.462
  375WAT     H1 2220   7.093   7.253   3.509
  375WAT     H2 2221   7.190   7.338   3.463
  375WAT    EPW 2222   7.115   7.317   3.469
  376WAT      O 2223   6.177   7.234   3.498
  376WAT     H1 2224   6.184   7.293   3.434
  376WAT     H2 2225   6.258   7.204   3.507
  376WAT    EPW 2226   6.190   7.238   3.490
  377WAT      O 2227   5.989   7.071   3.368
  377WAT     H1 2228   6.004   7.074   3.282
  377WAT     H2 2229   6.053   7.120   3.402
  377WAT    EPW 2230   6.001   7.079   3.360
  378WAT      O 2231   7.437   7.105   2.316
  378WAT     H1 2232   7.486   7.152   2.261
  378WAT     H2 2233   7.489   7.093   2.385
  378WAT    EPW 2234   7.452   7.110   2.318
  379WAT      O 2235   6.191   6.772   3.634
  379WAT     H1 2236   6.161   6.690   3.639
  379WAT     H2 2237   6.174   6.795   3.551
  379WAT    EPW 2238   6.184   6.763   3.622
  380WAT      O 2239   7.382   7.288   3.474
  380WAT     H1 2240   7.427   7.295   3.400
  380WAT     H2 2241   7.388   7.204   3.494
  380WAT    EPW 2242   7.390   7.277   3.466
  381WAT      O 2243   6.046   7.147   2.041
  381WAT     H1 2244   5.981   7.150   2.099
  381WAT     H2 2245   6.039   7.068   2.005
  381WAT    EPW 2246   6.036   7.136   2.044
  382WAT      O 2247   6.916   6.805   3.712
  382WAT     H1 2248   6.943   6.872   3.761
  382WAT     H2 2249   6.835   6.790   3.740
  382WAT    EPW 2250   6.908   6.813   3.723
  383WAT      O 2251   6.886   6.882   2.770
  383WAT     H1 2252   6.806   6.916   2.772
  383WAT     H2 2253   6.881   6.820   2.709
  383WAT    EPW 2254   6.874   6.878   2.762
  384WAT      O 2255   7.220   6.903   3.029
  384WAT     H1 2256   7.266   6.841   3.068
  384WAT     H2 2257   7.255   6.977   3.060
  384WAT    EPW 2258   7.232   6.905   3.039
  385WAT      O 2259   7.307   7.377   2.894
  385WAT     H1 2260   7.359   7.441   2.923
  385WAT     H2 2261   7.255   7.418   2.837
  385WAT    EPW 2262   7.307   7.393   2.890
  386WAT      O 2263   6.391   6.862   3.273
  386WAT     H1 2264   6.311   6.840   3.299
  386WAT     H2 2265   6.443   6.807   3.316
  386WAT    EPW 2266   6.387   6.851   3.283
  387WAT      O 2267   6.757   6.860   3.122
  387WAT     H1 2268   6.695   6.802   3.104
  387WAT     H2 2269   6.831   6.820   3.098
  387WAT    EPW 2270   6.759   6.845   3.116
  388WAT      O 2271   6.612   7.319   3.642
  388WAT     H1 2272   6.564   7.261   3.597
  388WAT     H2 2273   6.556   7.383   3.661
  388WAT    EPW 2274   6.597   7.320   3.638
  389WAT      O 2275   6.639   6.683   2.134
  389WAT     H1 2276   6.646   6.695   2.048
  389WAT     H2 2277   6.553   6.688   2.148
  389WAT    EPW 2278   6.628   6.686   2.123
  390WAT      O 2279   6.130   6.828   3.373
  390WAT     H1 2280   6.076   6.764   3.351
  390WAT     H2 2281   6.081   6.900   3.364
  390WAT    EPW 2282   6.115   6.829   3.369
  391WAT      O 2283   6.986   6.758   2.998
  391WAT     H1 2284   7.052   6.811   3.019
  391WAT     H2 2285   6.953   6.794   2.926
  391WAT    EPW 2286   6.991   6.771   2.990
  392WAT      O 2287   6.968   7.266   2.773
  392WAT     H1 2288   7.019   7.196   2.782
  392WAT     H2 2289   6.939   7.281   2.853
  392WAT    EPW 2290   6.972   7.258   2.786
  393WAT      O 2291   5.993   7.173   2.684
  393WAT     H1 2292   5.942   7.180   2.754
  393WAT     H2 2293   6.039   7.101   2.699
  393WAT    EPW 2294   5.992   7.164   2.696
  394WAT      O 2295   7.123   7.460   2.408
  394WAT     H1 2296   7.147   7.377   2.422
  394WAT     H2 2297   7.041   7.452   2.378
  394WAT    EPW 2298   7.114   7.446   2.406
  395WAT      O 2299   7.516   7.057   3.835
  395WAT     H1 2300   7.510   7.131   3.882
  395WAT     H2 2301   7.433   7.029   3.831
  395WAT    EPW 2302   7.503   7.064   3.841
  396WAT      O 2303   7.502   7.272   3.224
  396WAT     H1 2304   7.438   7.235   3.179
  396WAT     H2 2305   7.574   7.230   3.196
  396WAT    EPW 2306   7.503   7.261   3.213
  397WAT      O 2307   6.453   6.871   3.636
  397WAT     H1 2308   6.487   6.830   3.567
  397WAT     H2 2309   6.372   6.838   3.641
  397WAT    EPW 2310   6.446   6.860   3.627
  398WAT      O 2311   6.930   6.683   0.649
  398WAT     H1 2312   6.954   6.718   0.573
  398WAT     H2 2313   7.005   6.656   0.684
  398WAT    EPW 2314   6.945   6.684   0.643
  399WAT      O 2315   6.876   7.308   1.144
  399WAT     H1 2316   6.856   7.386   1.178
  399WAT     H2 2317   6.933   7.275   1.201
  399WAT    EPW 2318   6.882   7.315   1.158
  400WAT      O 2319   5.905   7.161   0.381
  400WAT     H1 2320   5.836   7.170   0.329
  400WAT     H2 2321   5.887   7.090   0.428
  400WAT    EPW 2322   5.892   7.152   0.380
  401WAT      O 2323   7.154   7.490   0.819
  401WAT     H1 2324   7.156   7.505   0.733
  401WAT     H2 2325   7.089   7.433   0.829
  401WAT    EPW 2326   7.145   7.484   0.808
  402WAT      O 2327   6.590   6.780   0.604
  402WAT     H1 2328   6.598   6.855   0.562
  402WAT     H2 2329   6.619   6.721   0.547
  402WAT    EPW 2330   6.595   6.782   0.589
  403WAT      O 2331   6.073   7.584   0.695
  403WAT     H1 2332   6.015   7.535   0.654
  403WAT     H2 2333   6.125   7.526   0.735
  403WAT    EPW 2334   6.072   7.569   0.695
  404WAT      O 2335   6.470   7.122   1.338
  404WAT     H1 2336   6.540   7.122   1.286
  404WAT     H2 2337   6.449   7.037   1.343
  404WAT    EPW 2338   6.477   7.109   1.331
  405WAT      O 2339   6.197   7.367   0.828
  405WAT     H1 2340   6.268   7.319   0.841
  405WAT     H2 2341   6.135   7.308   0.812
  405WAT    EPW 2342   6.198   7.351   0.828
  406WAT      O 2343   6.897   7.325   1.777
  406WAT     H1 2344   6.812   7.328   1.761
  406WAT     H2 2345   6.933   7.362   1.706
  406WAT    EPW 2346   6.890   7.331   1.764
  407WAT      O 2347   6.318   6.811   0.682
  407WAT     H1 2348   6.269   6.841   0.616
  407WAT     H2 2349   6.397   6.803   0.647
  407WAT    EPW 2350   6.322   6.814   0.667
  408WAT      O 2351   7.253   6.565   1.648
  408WAT     H1 2352   7.249   6.641   1.606
  408WAT     H2 2353   7.175   6.559   1.687
  408WAT    EPW 2354   7.241   6.575   1.647
  409WAT      O 2355   6.613   6.748   0.878
  409WAT     H1 2356   6.603   6.831   0.904
  409WAT     H2 2357   6.600   6.751   0.792
  409WAT    EPW 2358   6.610   6.761   0.869
  410WAT      O 2359   5.867   7.221   1.042
  410WAT     H1 2360   5.910   7.292   1.070
  410WAT     H2 2361   5.800   7.214   1.098
  410WAT    EPW 2362   5.864   7.231   1.054
  411WAT      O 2363   6.132   6.786   1.075
  411WAT     H1 2364   6.103   6.712   1.040
  411WAT     H2 2365   6.187   6.759   1.137
  411WAT    EPW 2366   6.136   6.771   1.079
  412WAT      O 2367   6.469   6.976   2.008
  412WAT     H1 2368   6.471   6.945   1.926
  412WAT     H2 2369   6.510   7.052   2.002
  412WAT    EPW 2370   6.475   6.982   1.995
  413WAT      O 2371   7.507   7.013   0.660
  413WAT     H1 2372   7.463   7.059   0.719
  413WAT     H2 2373   7.490   6.930   0.682
  413WAT    EPW 2374   7.498   7.008   0.672
  414WAT      O 2375   6.041   6.886   1.936
  414WAT     H1 2376   5.962   6.858   1.914
  414WAT     H2 2377   6.091   6.860   1.870
  414WAT    EPW 2378   6.037   6.878   1.923
  415WAT      O 2379   6.660   6.711   1.862
  415WAT     H1 2380   6.673   6.637   1.817
  415WAT     H2 2381   6.593   6.749   1.820
  415WAT    EPW 2382   6.652   6.705   1.849
  416WAT      O 2383   6.761   7.208   0.722
  416WAT     H1 2384   6.795   7.168   0.653
  416WAT     H2 2385   6.830   7.234   0.768
  416WAT    EPW 2386   6.776   7.206   0.719
  417WAT      O 2387   6.886   7.272   0.276
  417WAT     H1 2388   6.885   7.348   0.318
  417WAT     H2 2389   6.814   7.274   0.227
  417WAT    EPW 2390   6.875   7.283   0.275
  418WAT      O 2391   5.782   7.003   1.658
  418WAT     H1 2392   5.774   7.079   1.699
  418WAT     H2 2393   5.844   7.019   1.598
  418WAT    EPW 2394   5.790   7.016   1.655
  419WAT      O 2395   7.039   6.756   0.405
  419WAT     H1 2396   7.103   6.697   0.402
  419WAT     H2 2397   7.080   6.830   0.427
  419WAT    EPW 2398   7.054   6.758   0.408
  420WAT      O 2399   5.866   6.938   0.552
  420WAT     H1 2400   5.839   6.857   0.533
  420WAT     H2 2401   5.826   6.955   0.628
  420WAT    EPW 2402   5.856   6.928   0.560
  421WAT      O 2403   6.848   7.093   0.484
  421WAT     H1 2404   6.776   7.049   0.459
  421WAT     H2 2405   6.863   7.147   0.417
  421WAT    EPW 2406   6.839   7.094   0.470
  422WAT      O 2407   6.765   6.740   0.346
  422WAT     H1 2408   6.735   6.821   0.334
  422WAT     H2 2409   6.852   6.751   0.350
  422WAT    EPW 2410   6.773   6.754   0.345
  423WAT      O 2411   6.632   7.030   0.894
  423WAT     H1 2412   6.671   7.087   0.841
  423WAT     H2 2413   6.649   7.061   0.973
  423WAT    EPW 2414   6.640   7.043   0.898
  424WAT      O 2415   6.245   6.554   0.746
  424WAT     H1 2416   6.268   6.636   0.729
  424WAT     H2 2417   6.211   6.527   0.670
  424WAT    EPW 2418   6.243   6.562   0.732
  425WAT      O 2419   7.033   6.951   1.464
  425WAT     H1 2420   7.031   6.989   1.543
  425WAT     H2 2421   6.966   6.895   1.467
  425WAT    EPW 2422   7.023   6.949   1.476
  426WAT      O 2423   7.171   6.605   0.750
  426WAT     H1 2424   7.167   6.588   0.835
  426WAT     H2 2425   7.212   6.536   0.717
  426WAT    EPW 2426   7.177   6.592   0.757
  427WAT      O 2427   7.404   7.018   1.648
  427WAT     H1 2428   7.482   7.022   1.689
  427WAT     H2 2429   7.348   7.008   1.714
  427WAT    EPW 2430   7.408   7.017   1.664
  428WAT      O 2431   6.183   6.966   0.871
  428WAT     H1 2432   6.222   6.914   0.813
  428WAT     H2 2433   6.169   6.914   0.940
  428WAT    EPW 2434   6.187   6.951   0.873
  429WAT      O 2435   6.039   7.080   1.213
  429WAT     H1 2436   6.117   7.106   1.183
  429WAT     H2 2437   5.983   7.111   1.153
  429WAT    EPW 2438   6.042   7.089   1.199
  430WAT      O 2439   7.238   7.396   0.270
  430WAT     H1 2440   7.166   7.348   0.264
  430WAT     H2 2441   7.227   7.441   0.344
  430WAT    EPW 2442   7.226   7.396   0.280
  431WAT      O 2443   6.612   7.214   2.000
  431WAT     H1 2444   6.545   7.261   2.030
  431WAT     H2 2445   6.621   7.241   1.918
  431WAT    EPW 2446   6.604   7.225   1.992
  432WAT      O 2447   7.412   6.786   0.432
  432WAT     H1 2448   7.440   6.756   0.355
  432WAT     H2 2449   7.405   6.872   0.420
  432WAT    EPW 2450   7.415   6.794   0.419
  433WAT      O 2451   7.105   7.043   0.916
  433WAT     H1 2452   7.139   6.998   0.982
  433WAT     H2 2453   7.045   6.989   0.883
  433WAT    EPW 2454   7.101   7.028   0.921
  434WAT      O 2455   6.602   6.977   0.400
  434WAT     H1 2456   6.541   6.920   0.374
  434WAT     H2 2457   6.563   7.054   0.392
  434WAT    EPW 2458   6.588   6.980   0.395
  435WAT      O 2459   6.124   7.347   1.865
  435WAT     H1 2460   6.097   7.278   1.910
  435WAT     H2 2461   6.132   7.317   1.784
  435WAT    EPW 2462   6.121   7.333   1.860
  436WAT      O 2463   6.197   7.154   0.362
  436WAT     H1 2464   6.191   7.094   0.425
  436WAT     H2 2465   6.115   7.181   0.352
  436WAT    EPW 2466   6.184   7.149   0.370
  437WAT      O 2467   6.084   7.398   1.090
  437WAT     H1 2468   6.109   7.419   1.009
  437WAT     H2 2469   6.142   7.338   1.114
  437WAT    EPW 2470   6.096   7.392   1.081
  438WAT      O 2471   6.201   7.391   1.371
  438WAT     H1 2472   6.245   7.345   1.312
  438WAT     H2 2473   6.137   7.429   1.325
  438WAT    EPW 2474   6.198   7.390   1.356
  439WAT      O 2475   7.285   7.165   1.194
  439WAT     H1 2476   7.211   7.180   1.238
  439WAT     H2 2477   7.287   7.228   1.133
  439WAT    EPW 2478   7.274   7.176   1.191
  440WAT      O 2479   6.847   6.754   1.543
  440WAT     H1 2480   6.868   6.671   1.525
  440WAT     H2 2481   6.875   6.764   1.625
  440WAT    EPW 2482   6.855   6.743   1.553
  441WAT      O 2483   7.115   7.005   0.500
  441WAT     H1 2484   7.161   7.075   0.522
  441WAT     H2 2485   7.032   7.033   0.501
  441WAT    EPW 2486   7.109   7.019   0.503
  442WAT      O 2487   6.677   7.113   1.152
  442WAT     H1 2488   6.742   7.171   1.154
  442WAT     H2 2489   6.714   7.039   1.180
  442WAT    EPW 2490   6.692   7.111   1.157
  443WAT      O 2491   6.889   7.500   0.434
  443WAT     H1 2492   6.871   7.581   0.405
  443WAT     H2 2493   6.818   7.480   0.481
  443WAT    EPW 2494   6.876   7.509   0.437
  444WAT      O 2495   6.412   6.781   0.346
  444WAT     H1 2496   6.394   6.699   0.370
  444WAT     H2 2497   6.343   6.805   0.298
  444WAT    EPW 2498   6.399   6.772   0.342
  445WAT      O 2499   7.326   6.699   1.887
  445WAT     H1 2500   7.316   6.651   1.815
  445WAT     H2 2501   7.363   6.645   1.944
  445WAT    EPW 2502   7.330   6.684   1.885
  446WAT      O 2503   5.783   6.669   0.500
  446WAT     H1 2504   5.787   6.611   0.435
  446WAT     H2 2505   5.760   6.621   0.570
  446WAT    EPW 2506   5.780   6.654   0.501
  447WAT      O 2507   6.662   7.423   0.575
  447WAT     H1 2508   6.623   7.477   0.631
  447WAT     H2 2509   6.686   7.355   0.624
  447WAT    EPW 2510   6.660   7.421   0.590
  448WAT      O 2511   6.191   6.905   0.221
  448WAT     H1 2512   6.163   6.904   0.138
  448WAT     H2 2513   6.200   6.990   0.238
  448WAT    EPW 2514   6.188   6.918   0.211
  449WAT      O 2515   6.379   7.158   0.902
  449WAT     H1 2516   6.456   7.118   0.893
  449WAT     H2 2517   6.321   7.094   0.888
  449WAT    EPW 2518   6.382   7.143   0.898
  450WAT      O 2519   5.908   7.344   0.595
  450WAT     H1 2520   5.928   7.290   0.661
  450WAT     H2 2521   5.920   7.295   0.524
  450WAT    EPW 2522   5.913   7.329   0.594
  451WAT      O 2523   6.478   7.222   0.382
  451WAT     H1 2524   6.491   7.292   0.432
  451WAT     H2 2525   6.392   7.219   0.373
  451WAT    EPW 2526   6.468   7.232   0.388
  452WAT      O 2527   7.251   6.967   1.876
  452WAT     H1 2528   7.186   6.981   1.932
  452WAT     H2 2529   7.268   6.882   1.885
  452WAT    EPW 2530   7.244   6.957   1.886
  453WAT      O 2531   5.837   6.869   1.040
  453WAT     H1 2532   5.822   6.901   0.960
  453WAT     H2 2533   5.924   6.868   1.046
  453WAT    EPW 2534   5.847   6.873   1.029
  454WAT      O 2535   7.145   7.302   1.919
  454WAT     H1 2536   7.152   7.331   2.000
  454WAT     H2 2537   7.062   7.318   1.897
  454WAT    EPW 2538   7.134   7.308   1.927
  455WAT      O 2539   7.388   7.409   1.831
  455WAT     H1 2540   7.401   7.383   1.748
  455WAT     H2 2541   7.309   7.377   1.850
  455WAT    EPW 2542   7.378   7.401   1.821
  456WAT      O 2543   7.337   7.162   0.826
  456WAT     H1 2544   7.268   7.117   0.856
  456WAT     H2 2545   7.344   7.227   0.883
  456WAT    EPW 2546   7.328   7.165   0.839
  457WAT      O 2547   7.270   6.807   1.503
  457WAT     H1 2548   7.322   6.867   1.539
  457WAT     H2 2549   7.197   6.852   1.486
  457WAT    EPW 2550   7.267   6.823   1.506
  458WAT      O 2551   6.442   7.139   1.618
  458WAT     H1 2552   6.446   7.056   1.647
  458WAT     H2 2553   6.458   7.131   1.532
  458WAT    EPW 2554   6.445   7.126   1.610
  459WAT      O 2555   7.297   6.661   1.263
  459WAT     H1 2556   7.304   6.698   1.342
  459WAT     H2 2557   7.345   6.588   1.271
  459WAT    EPW 2558   7.305   6.656   1.276
  460WAT      O 2559   6.571   6.719   1.541
  460WAT     H1 2560   6.656   6.733   1.532
  460WAT     H2 2561   6.564   6.632   1.546
  460WAT    EPW 2562   6.582   6.708   1.540
  461WAT      O 2563   7.472   7.245   0.229
  461WAT     H1 2564   7.515   7.282   0.163
  461WAT     H2 2565   7.400   7.294   0.237
  461WAT    EPW 2566   7.467   7.258   0.220
  462WAT      O 2567   6.285   7.211   1.157
  462WAT     H1 2568   6.321   7.197   1.079
  462WAT     H2 2569   6.343   7.179   1.213
  462WAT    EPW 2570   6.299   7.204   1.154
  463WAT      O 2571   7.047   7.092   1.702
  463WAT     H1 2572   6.988   7.138   1.747
  463WAT     H2 2573   7.105   7.068   1.763
  463WAT    EPW 2574   7.047   7.095   1.718
  464WAT      O 2575   7.046   7.196   1.329
  464WAT     H1 2576   7.063   7.244   1.400
  464WAT     H2 2577   7.034   7.116   1.360
  464WAT    EPW 2578   7.047   7.191   1.344
  465WAT      O 2579   7.247   7.240   0.577
  465WAT     H1 2580   7.263   7.220   0.661
  465WAT     H2 2581   7.326   7.248   0.542
  465WAT    EPW 2582   7.261   7.238   0.584
  466WAT      O 2583   6.568   6.672   1.158
  466WAT     H1 2584   6.483   6.667   1.176
  466WAT     H2 2585   6.571   6.675   1.070
  466WAT    EPW 2586   6.556   6.672   1.147
  467WAT      O 2587   7.416   6.742   0.706
  467WAT     H1 2588   7.333   6.723   0.723
  467WAT     H2 2589   7.420   6.745   0.619
  467WAT    EPW 2590   7.405   6.739   0.695
  468WAT      O 2591   5.802   6.780   1.822
  468WAT     H1 2592   5.800   6.851   1.771
  468WAT     H2 2593   5.717   6.763   1.836
  468WAT    EPW 2594   5.789   6.788   1.816
  469WAT      O 2595   6.139   6.919   0.503
  469WAT     H1 2596   6.135   6.887   0.422
  469WAT     H2 2597   6.056   6.923   0.528
  469WAT    EPW 2598   6.126   6.915   0.494
  470WAT      O 2599   7.104   7.325   1.565
  470WAT     H1 2600   7.095   7.252   1.612
  470WAT     H2 2601   7.191   7.338   1.565
  470WAT    EPW 2602   7.116   7.316   1.572
  471WAT      O 2603   6.178   7.238   1.603
  471WAT     H1 2604   6.185   7.296   1.539
  471WAT     H2 2605   6.260   7.207   1.612
  471WAT    EPW 2606   6.191   7.242   1.595
  472WAT      O 2607   5.991   7.071   1.479
  472WAT     H1 2608   6.007   7.076   1.394
  472WAT     H2 2609   6.053   7.121   1.515
  472WAT    EPW 2610   6.003   7.079   1.472
  473WAT      O 2611   7.511   7.252   0.504
  473WAT     H1 2612   7.515   7.238   0.418
  473WAT     H2 2613   7.530   7.174   0.539
  473WAT    EPW 2614   7.515   7.238   0.497
  474WAT      O 2615   6.194   6.772   1.734
  474WAT     H1 2616   6.169   6.688   1.738
  474WAT     H2 2617   6.176   6.795   1.651
  474WAT    EPW 2618   6.188   6.763   1.722
  475WAT      O 2619   7.383   7.290   1.574
  475WAT     H1 2620   7.428   7.296   1.500
  475WAT     H2 2621   7.390   7.205   1.594
  475WAT    EPW 2622   7.391   7.278   1.566
  476WAT      O 2623   6.916   6.805   1.813
  476WAT     H1 2624   6.943   6.872   1.862
  476WAT     H2 2625   6.835   6.789   1.841
  476WAT    EPW 2626   6.908   6.812   1.824
  477WAT      O 2627   6.895   6.874   0.848
  477WAT     H1 2628   6.810   6.892   0.855
  477WAT     H2 2629   6.900   6.819   0.781
  477WAT    EPW 2630   6.884   6.868   0.839
  478WAT      O 2631   7.215   6.902   1.130
  478WAT     H1 2632   7.261   6.838   1.169
  478WAT     H2 2633   7.251   6.975   1.162
  478WAT    EPW 2634   7.227   6.903   1.141
  479WAT      O 2635   7.318   7.374   1.009
  479WAT     H1 2636   7.376   7.432   1.039
  479WAT     H2 2637   7.268   7.419   0.954
  479WAT    EPW 2638   7.319   7.389   1.006
  480WAT      O 2639   6.394   6.866   1.380
  480WAT     H1 2640   6.313   6.843   1.403
  480WAT     H2 2641   6.445   6.808   1.420
  480WAT    EPW 2642   6.390   6.854   1.390
  481WAT      O 2643   6.764   6.863   1.223
  481WAT     H1 2644   6.700   6.805   1.214
  481WAT     H2 2645   6.834   6.822   1.192
  481WAT    EPW 2646   6.765   6.849   1.217
  482WAT      O 2647   6.615   7.320   1.743
  482WAT     H1 2648   6.566   7.263   1.699
  482WAT     H2 2649   6.559   7.385   1.760
  482WAT    EPW 2650   6.599   7.321   1.739
  483WAT      O 2651   6.132   6.828   1.474
  483WAT     H1 2652   6.078   6.763   1.453
  483WAT     H2 2653   6.082   6.900   1.467
  483WAT    EPW 2654   6.117   6.829   1.470
  484WAT      O 2655   6.982   6.756   1.086
  484WAT     H1 2656   7.048   6.810   1.109
  484WAT     H2 2657   6.954   6.789   1.011
  484WAT    EPW 2658   6.988   6.769   1.079
  485WAT      O 2659   6.973   7.285   0.882
  485WAT     H1 2660   7.019   7.212   0.892
  485WAT     H2 2661   6.941   7.300   0.962
  485WAT    EPW 2662   6.975   7.276   0.896
  486WAT      O 2663   6.000   7.173   0.800
  486WAT     H1 2664   5.948   7.178   0.870
  486WAT     H2 2665   6.045   7.100   0.814
  486WAT    EPW 2666   5.999   7.163   0.813
  487WAT      O 2667   7.156   7.494   0.531
  487WAT     H1 2668   7.178   7.411   0.547
  487WAT     H2 2669   7.071   7.489   0.508
  487WAT    EPW 2670   7.146   7.481   0.530
  488WAT      O 2671   7.515   7.062   1.928
  488WAT     H1 2672   7.511   7.135   1.976
  488WAT     H2 2673   7.432   7.033   1.928
  488WAT    EPW 2674   7.502   7.068   1.935
  489WAT      O 2675   7.505   7.272   1.324
  489WAT     H1 2676   7.439   7.232   1.283
  489WAT     H2 2677   7.575   7.227   1.299
  489WAT    EPW 2678   7.506   7.259   1.315
  490WAT      O 2679   6.454   6.872   1.737
  490WAT     H1 2680   6.489   6.832   1.668
  490WAT     H2 2681   6.373   6.840   1.741
  490WAT    EPW 2682   6.447   6.861   1.727
  491WAT      O 2683   6.899   4.838   6.375
  491WAT     H1 2684   6.892   4.878   6.297
  491WAT     H2 2685   6.985   4.827   6.384
  491WAT    EPW 2686   6.911   4.843   6.365
  492WAT      O 2687   6.877   5.463   6.843
  492WAT     H1 2688   6.845   5.541   6.868
  492WAT     H2 2689   6.933   5.443   6.907
  492WAT    EPW 2690   6.881   5.472   6.856
  493WAT      O 2691   5.856   5.942   6.355
  493WAT     H1 2692   5.834   5.945   6.440
  493WAT     H2 2693   5.850   5.857   6.336
  493WAT    EPW 2694   5.852   5.930   6.365
  494WAT      O 2695   7.471   6.364   6.121
  494WAT     H1 2696   7.548   6.353   6.160
  494WAT     H2 2697   7.455   6.286   6.085
  494WAT    EPW 2698   7.480   6.351   6.122
  495WAT      O 2699   5.828   5.274   5.996
  495WAT     H1 2700   5.767   5.327   5.964
  495WAT     H2 2701   5.793   5.194   5.987
  495WAT    EPW 2702   5.814   5.270   5.990
  496WAT      O 2703   6.171   5.878   5.921
  496WAT     H1 2704   6.135   5.836   5.854
  496WAT     H2 2705   6.172   5.817   5.984
  496WAT    EPW 2706   6.166   5.863   5.921
  497WAT      O 2707   7.126   5.655   6.498
  497WAT     H1 2708   7.134   5.645   6.411
  497WAT     H2 2709   7.069   5.592   6.520
  497WAT    EPW 2710   7.119   5.644   6.488
  498WAT      O 2711   6.105   6.055   6.312
  498WAT     H1 2712   6.159   6.016   6.368
  498WAT     H2 2713   6.029   6.014   6.325
  498WAT    EPW 2714   6.102   6.043   6.322
  499WAT      O 2715   6.560   4.957   6.254
  499WAT     H1 2716   6.554   5.027   6.202
  499WAT     H2 2717   6.636   4.921   6.232
  499WAT    EPW 2718   6.570   4.962   6.243
  500WAT      O 2719   5.994   6.334   5.912
  500WAT     H1 2720   6.041   6.341   5.839
  500WAT     H2 2721   6.029   6.265   5.953
  500WAT    EPW 2722   6.006   6.325   5.907
  501WAT      O 2723   5.891   6.151   7.038
  501WAT     H1 2724   5.920   6.125   7.116
  501WAT     H2 2725   5.820   6.101   7.025
  501WAT    EPW 2726   5.885   6.139   7.048
  502WAT      O 2727   6.549   6.000   7.481
  502WAT     H1 2728   6.556   5.954   7.555
  502WAT     H2 2729   6.473   5.973   7.447
  502WAT    EPW 2730   6.539   5.989   7.487
  503WAT      O 2731   6.049   5.688   6.491
  503WAT     H1 2732   6.000   5.686   6.419
  503WAT     H2 2733   6.104   5.621   6.481
  503WAT    EPW 2734   6.050   5.678   6.479
  504WAT      O 2735   6.482   5.274   7.039
  504WAT     H1 2736   6.550   5.278   6.985
  504WAT     H2 2737   6.456   5.191   7.032
  504WAT    EPW 2738   6.488   5.262   7.030
  505WAT      O 2739   6.504   6.239   7.231
  505WAT     H1 2740   6.484   6.315   7.193
  505WAT     H2 2741   6.590   6.246   7.244
  505WAT    EPW 2742   6.514   6.252   7.227
  506WAT      O 2743   6.219   5.471   6.478
  506WAT     H1 2744   6.285   5.419   6.501
  506WAT     H2 2745   6.150   5.418   6.477
  506WAT    EPW 2746   6.219   5.456   6.481
  507WAT      O 2747   6.617   6.112   6.654
  507WAT     H1 2748   6.643   6.030   6.670
  507WAT     H2 2749   6.691   6.156   6.647
  507WAT    EPW 2750   6.632   6.106   6.655
  508WAT      O 2751   6.666   6.017   6.268
  508WAT     H1 2752   6.703   5.956   6.318
  508WAT     H2 2753   6.696   6.000   6.188
  508WAT    EPW 2754   6.676   6.006   6.264
  509WAT      O 2755   6.854   5.450   7.447
  509WAT     H1 2756   6.771   5.458   7.419
  509WAT     H2 2757   6.857   5.504   7.516
  509WAT    EPW 2758   6.842   5.459   7.453
  510WAT      O 2759   6.292   4.987   6.354
  510WAT     H1 2760   6.253   5.043   6.300
  510WAT     H2 2761   6.373   4.982   6.323
  510WAT    EPW 2762   6.298   4.994   6.341
  511WAT      O 2763   7.251   4.742   7.321
  511WAT     H1 2764   7.241   4.818   7.278
  511WAT     H2 2765   7.172   4.728   7.357
  511WAT    EPW 2766   7.238   4.751   7.320
  512WAT      O 2767   6.595   4.913   6.530
  512WAT     H1 2768   6.604   4.996   6.553
  512WAT     H2 2769   6.575   4.918   6.445
  512WAT    EPW 2770   6.593   4.926   6.521
  513WAT      O 2771   7.049   5.159   5.780
  513WAT     H1 2772   7.003   5.225   5.815
  513WAT     H2 2773   7.054   5.100   5.844
  513WAT    EPW 2774   7.043   5.160   5.794
  514WAT      O 2775   5.869   5.431   6.739
  514WAT     H1 2776   5.869   5.517   6.751
  514WAT     H2 2777   5.802   5.404   6.788
  514WAT    EPW 2778   5.859   5.440   6.748
  515WAT      O 2779   5.851   6.389   6.569
  515WAT     H1 2780   5.789   6.438   6.534
  515WAT     H2 2781   5.893   6.356   6.500
  515WAT    EPW 2782   5.848   6.391   6.554
  516WAT      O 2783   6.443   6.176   6.263
  516WAT     H1 2784   6.409   6.172   6.343
  516WAT     H2 2785   6.518   6.132   6.269
  516WAT    EPW 2786   6.449   6.169   6.276
  517WAT      O 2787   7.042   6.413   6.064
  517WAT     H1 2788   7.106   6.472   6.070
  517WAT     H2 2789   7.083   6.337   6.073
  517WAT    EPW 2790   7.057   6.410   6.066
  518WAT      O 2791   6.843   6.441   6.251
  518WAT     H1 2792   6.864   6.514   6.294
  518WAT     H2 2793   6.908   6.431   6.194
  518WAT    EPW 2794   6.855   6.450   6.249
  519WAT      O 2795   6.155   4.931   6.781
  519WAT     H1 2796   6.109   4.864   6.747
  519WAT     H2 2797   6.215   4.892   6.830
  519WAT    EPW 2798   6.157   4.915   6.783
  520WAT      O 2799   5.991   6.306   6.339
  520WAT     H1 2800   6.040   6.235   6.348
  520WAT     H2 2801   6.040   6.359   6.289
  520WAT    EPW 2802   6.005   6.303   6.333
  521WAT      O 2803   7.511   5.198   6.352
  521WAT     H1 2804   7.471   5.241   6.417
  521WAT     H2 2805   7.491   5.115   6.367
  521WAT    EPW 2806   7.503   5.192   6.364
  522WAT      O 2807   7.076   6.509   7.025
  522WAT     H1 2808   7.133   6.566   6.992
  522WAT     H2 2809   7.064   6.452   6.959
  522WAT    EPW 2810   7.083   6.509   7.010
  523WAT      O 2811   6.036   5.125   7.554
  523WAT     H1 2812   5.968   5.071   7.550
  523WAT     H2 2813   6.100   5.080   7.515
  523WAT    EPW 2814   6.035   5.110   7.548
  524WAT      O 2815   6.132   6.115   6.683
  524WAT     H1 2816   6.194   6.109   6.622
  524WAT     H2 2817   6.160   6.062   6.747
  524WAT    EPW 2818   6.145   6.106   6.684
  525WAT      O 2819   6.415   6.439   6.596
  525WAT     H1 2820   6.496   6.455   6.567
  525WAT     H2 2821   6.365   6.487   6.545
  525WAT    EPW 2822   6.420   6.449   6.585
  526WAT      O 2823   6.681   4.906   7.547
  526WAT     H1 2824   6.692   4.829   7.508
  526WAT     H2 2825   6.615   4.942   7.503
  526WAT    EPW 2826   6.673   4.900   7.535
  527WAT      O 2827   6.763   5.375   6.413
  527WAT     H1 2828   6.793   5.333   6.343
  527WAT     H2 2829   6.835   5.391   6.460
  527WAT    EPW 2830   6.778   5.371   6.410
  528WAT      O 2831   6.873   5.342   5.915
  528WAT     H1 2832   6.895   5.422   5.942
  528WAT     H2 2833   6.799   5.355   5.871
  528WAT    EPW 2834   6.865   5.355   5.913
  529WAT      O 2835   7.233   6.619   6.048
  529WAT     H1 2836   7.281   6.586   5.982
  529WAT     H2 2837   7.288   6.674   6.087
  529WAT    EPW 2838   7.248   6.622   6.044
  530WAT      O 2839   6.336   6.458   7.153
  530WAT     H1 2840   6.343   6.481   7.237
  530WAT     H2 2841   6.256   6.423   7.148
  530WAT    EPW 2842   6.325   6.456   7.165
  531WAT      O 2843   5.756   5.118   7.280
  531WAT     H1 2844   5.751   5.182   7.340
  531WAT     H2 2845   5.820   5.144   7.228
  531WAT    EPW 2846   5.765   5.131   7.282
  532WAT      O 2847   7.005   6.259   7.446
  532WAT     H1 2848   7.019   6.343   7.465
  532WAT     H2 2849   7.085   6.226   7.438
  532WAT    EPW 2850   7.019   6.266   7.448
  533WAT      O 2851   6.730   6.232   5.869
  533WAT     H1 2852   6.698   6.291   5.924
  533WAT     H2 2853   6.808   6.265   5.847
  533WAT    EPW 2854   6.737   6.246   5.874
  534WAT      O 2855   7.059   4.984   5.994
  534WAT     H1 2856   7.110   4.913   5.998
  534WAT     H2 2857   7.080   5.029   6.065
  534WAT    EPW 2858   7.070   4.980   6.005
  535WAT      O 2859   5.902   5.074   6.274
  535WAT     H1 2860   5.877   4.992   6.256
  535WAT     H2 2861   5.853   5.096   6.343
  535WAT    EPW 2862   5.891   5.065   6.282
  536WAT      O 2863   6.073   6.370   7.056
  536WAT     H1 2864   6.017   6.303   7.055
  536WAT     H2 2865   6.109   6.367   6.977
  536WAT    EPW 2866   6.070   6.360   7.044
  537WAT      O 2867   6.830   5.245   6.173
  537WAT     H1 2868   6.759   5.197   6.156
  537WAT     H2 2869   6.851   5.279   6.095
  537WAT    EPW 2870   6.822   5.243   6.159
  538WAT      O 2871   6.840   6.480   7.156
  538WAT     H1 2872   6.918   6.485   7.117
  538WAT     H2 2873   6.784   6.480   7.090
  538WAT    EPW 2874   6.844   6.481   7.140
  539WAT      O 2875   6.821   4.920   6.121
  539WAT     H1 2876   6.766   4.900   6.056
  539WAT     H2 2877   6.894   4.943   6.079
  539WAT    EPW 2878   6.824   4.920   6.105
  540WAT      O 2879   7.440   6.500   6.574
  540WAT     H1 2880   7.456   6.575   6.532
  540WAT     H2 2881   7.400   6.451   6.514
  540WAT    EPW 2882   7.436   6.504   6.559
  541WAT      O 2883   6.646   5.185   6.582
  541WAT     H1 2884   6.674   5.250   6.531
  541WAT     H2 2885   6.657   5.216   6.663
  541WAT    EPW 2886   6.651   5.199   6.586
  542WAT      O 2887   7.201   6.111   6.341
  542WAT     H1 2888   7.271   6.060   6.350
  542WAT     H2 2889   7.141   6.072   6.391
  542WAT    EPW 2890   7.202   6.098   6.350
  543WAT      O 2891   6.249   6.185   7.338
  543WAT     H1 2892   6.326   6.211   7.307
  543WAT     H2 2893   6.233   6.240   7.403
  543WAT    EPW 2894   6.258   6.197   7.343
  544WAT      O 2895   6.225   4.726   6.423
  544WAT     H1 2896   6.243   4.809   6.404
  544WAT     H2 2897   6.197   4.693   6.348
  544WAT    EPW 2898   6.223   4.734   6.409
  545WAT      O 2899   6.434   5.792   6.769
  545WAT     H1 2900   6.458   5.776   6.851
  545WAT     H2 2901   6.378   5.727   6.751
  545WAT    EPW 2902   6.429   5.780   6.778
  546WAT      O 2903   7.016   5.134   7.167
  546WAT     H1 2904   7.016   5.162   7.249
  546WAT     H2 2905   6.951   5.076   7.164
  546WAT    EPW 2906   7.007   5.129   7.179
  547WAT      O 2907   6.541   5.802   7.024
  547WAT     H1 2908   6.518   5.886   7.030
  547WAT     H2 2909   6.509   5.766   7.097
  547WAT    EPW 2910   6.533   5.809   7.035
  548WAT      O 2911   7.134   5.903   7.022
  548WAT     H1 2912   7.070   5.866   7.068
  548WAT     H2 2913   7.129   5.987   7.046
  548WAT    EPW 2914   7.124   5.910   7.033
  549WAT      O 2915   7.164   4.779   6.425
  549WAT     H1 2916   7.163   4.761   6.511
  549WAT     H2 2917   7.196   4.706   6.389
  549WAT    EPW 2918   7.169   4.766   6.433
  550WAT      O 2919   7.396   5.216   7.287
  550WAT     H1 2920   7.440   5.194   7.358
  550WAT     H2 2921   7.349   5.285   7.312
  550WAT    EPW 2922   7.395   5.223   7.301
  551WAT      O 2923   6.170   5.113   6.575
  551WAT     H1 2924   6.200   5.062   6.511
  551WAT     H2 2925   6.164   5.058   6.643
  551WAT    EPW 2926   6.173   5.097   6.576
  552WAT      O 2927   7.484   5.866   5.998
  552WAT     H1 2928   7.465   5.818   6.068
  552WAT     H2 2929   7.562   5.837   5.974
  552WAT    EPW 2930   7.492   5.854   6.005
  553WAT      O 2931   6.238   5.891   6.490
  553WAT     H1 2932   6.294   5.857   6.432
  553WAT     H2 2933   6.178   5.829   6.500
  553WAT    EPW 2934   6.238   5.877   6.483
  554WAT      O 2935   6.061   6.549   6.649
  554WAT     H1 2936   5.987   6.509   6.625
  554WAT     H2 2937   6.106   6.555   6.574
  554WAT    EPW 2938   6.057   6.544   6.634
  555WAT      O 2939   6.032   5.245   6.863
  555WAT     H1 2940   6.115   5.271   6.858
  555WAT     H2 2941   5.988   5.311   6.826
  555WAT    EPW 2942   6.038   5.259   6.857
  556WAT      O 2943   7.251   5.562   5.947
  556WAT     H1 2944   7.247   5.643   5.915
  556WAT     H2 2945   7.219   5.570   6.028
  556WAT    EPW 2946   7.246   5.575   5.954
  557WAT      O 2947   6.385   5.824   6.259
  557WAT     H1 2948   6.424   5.901   6.249
  557WAT     H2 2949   6.441   5.767   6.224
  557WAT    EPW 2950   6.399   5.827   6.253
  558WAT      O 2951   5.877   5.999   6.645
  558WAT     H1 2952   5.825   6.059   6.682
  558WAT     H2 2953   5.956   6.035   6.649
  558WAT    EPW 2954   5.881   6.013   6.651
  559WAT      O 2955   5.908   5.679   6.256
  559WAT     H1 2956   5.893   5.593   6.252
  559WAT     H2 2957   5.980   5.689   6.208
  559WAT    EPW 2958   5.917   5.668   6.248
  560WAT      O 2959   7.422   4.967   6.101
  560WAT     H1 2960   7.490   4.947   6.050
  560WAT     H2 2961   7.409   5.052   6.085
  560WAT    EPW 2962   7.430   4.977   6.091
  561WAT      O 2963   6.840   6.273   6.628
  561WAT     H1 2964   6.795   6.344   6.606
  561WAT     H2 2965   6.865   6.239   6.552
  561WAT    EPW 2966   6.837   6.278   6.614
  562WAT      O 2967   5.823   6.152   6.181
  562WAT     H1 2968   5.876   6.207   6.223
  562WAT     H2 2969   5.815   6.085   6.236
  562WAT    EPW 2970   5.829   6.150   6.195
  563WAT      O 2971   6.238   5.952   6.880
  563WAT     H1 2972   6.290   5.995   6.936
  563WAT     H2 2973   6.293   5.906   6.831
  563WAT    EPW 2974   6.254   5.952   6.881
  564WAT      O 2975   7.116   5.199   6.610
  564WAT     H1 2976   7.146   5.158   6.681
  564WAT     H2 2977   7.053   5.146   6.581
  564WAT    EPW 2978   7.111   5.185   6.616
  565WAT      O 2979   5.843   5.994   5.946
  565WAT     H1 2980   5.918   5.949   5.942
  565WAT     H2 2981   5.854   6.046   6.015
  565WAT    EPW 2982   5.856   5.995   5.955
  566WAT      O 2983   5.903   5.732   6.723
  566WAT     H1 2984   5.954   5.709   6.655
  566WAT     H2 2985   5.893   5.818   6.713
  566WAT    EPW 2986   5.909   5.741   6.711
  567WAT      O 2987   6.571   5.163   6.072
  567WAT     H1 2988   6.563   5.132   5.991
  567WAT     H2 2989   6.534   5.242   6.067
  567WAT    EPW 2990   6.565   5.170   6.059
  568WAT      O 2991   7.298   6.326   7.176
  568WAT     H1 2992   7.281   6.404   7.210
  568WAT     H2 2993   7.340   6.344   7.102
  568WAT    EPW 2994   7.302   6.340   7.170
  569WAT      O 2995   6.369   6.178   6.528
  569WAT     H1 2996   6.377   6.261   6.551
  569WAT     H2 2997   6.439   6.140   6.564
  569WAT    EPW 2998   6.380   6.184   6.537
  570WAT      O 2999   5.997   5.398   7.486
  570WAT     H1 3000   6.017   5.321   7.522
  570WAT     H2 3001   6.043   5.399   7.412
  570WAT    EPW 3002   6.007   5.387   7.481
  571WAT      O 3003   6.182   5.419   6.074
  571WAT     H1 3004   6.167   5.353   6.129
  571WAT     H2 3005   6.142   5.394   6.001
  571WAT    EPW 3006   6.174   5.405   6.071
  572WAT      O 3007   6.246   5.597   6.728
  572WAT     H1 3008   6.238   5.567   6.647
  572WAT     H2 3009   6.259   5.524   6.775
  572WAT    EPW 3010   6.247   5.581   6.723
  573WAT      O 3011   6.233   5.564   7.074
  573WAT     H1 3012   6.256   5.512   7.008
  573WAT     H2 3013   6.177   5.621   7.037
  573WAT    EPW 3014   6.228   5.565   7.059
  574WAT      O 3015   7.282   5.338   6.895
  574WAT     H1 3016   7.213   5.358   6.944
  574WAT     H2 3017   7.281   5.398   6.832
  574WAT    EPW 3018   7.272   5.350   6.893
  575WAT      O 3019   6.635   6.481   6.976
  575WAT     H1 3020   6.596   6.411   6.941
  575WAT     H2 3021   6.628   6.542   6.913
  575WAT    EPW 3022   6.628   6.480   6.961
  576WAT      O 3023   6.844   4.917   7.229
  576WAT     H1 3024   6.862   4.834   7.207
  576WAT     H2 3025   6.873   4.922   7.311
  576WAT    EPW 3026   6.851   4.905   7.238
  577WAT      O 3027   7.078   5.126   6.227
  577WAT     H1 3028   7.131   5.194   6.240
  577WAT     H2 3029   6.999   5.163   6.220
  577WAT    EPW 3030   7.074   5.142   6.228
  578WAT      O 3031   5.919   5.663   7.575
  578WAT     H1 3032   5.966   5.719   7.528
  578WAT     H2 3033   5.950   5.585   7.551
  578WAT    EPW 3034   5.930   5.660   7.564
  579WAT      O 3035   7.214   5.912   7.438
  579WAT     H1 3036   7.230   5.998   7.437
  579WAT     H2 3037   7.265   5.880   7.376
  579WAT    EPW 3038   7.224   5.920   7.429
  580WAT      O 3039   6.588   6.287   7.530
  580WAT     H1 3040   6.601   6.277   7.616
  580WAT     H2 3041   6.576   6.206   7.502
  580WAT    EPW 3042   6.588   6.274   7.539
  581WAT      O 3043   6.680   5.267   6.843
  581WAT     H1 3044   6.745   5.325   6.849
  581WAT     H2 3045   6.716   5.194   6.875
  581WAT    EPW 3046   6.695   5.265   6.848
  582WAT      O 3047   6.936   5.586   6.042
  582WAT     H1 3048   6.912   5.638   5.976
  582WAT     H2 3049   6.876   5.601   6.103
  582WAT    EPW 3050   6.924   5.596   6.041
  583WAT      O 3051   7.424   5.946   6.363
  583WAT     H1 3052   7.460   5.932   6.441
  583WAT     H2 3053   7.428   5.868   6.324
  583WAT    EPW 3054   7.430   5.933   6.368
  584WAT      O 3055   7.042   6.326   6.817
  584WAT     H1 3056   6.974   6.301   6.768
  584WAT     H2 3057   7.084   6.384   6.767
  584WAT    EPW 3058   7.038   6.331   6.802
  585WAT      O 3059   7.050   5.999   6.776
  585WAT     H1 3060   6.975   6.035   6.801
  585WAT     H2 3061   7.073   5.950   6.845
  585WAT    EPW 3062   7.042   5.997   6.790
  586WAT      O 3063   6.430   6.445   6.196
  586WAT     H1 3064   6.434   6.367   6.234
  586WAT     H2 3065   6.499   6.446   6.143
  586WAT    EPW 3066   6.440   6.434   6.194
  587WAT      O 3067   6.371   4.816   5.989
  587WAT     H1 3068   6.368   4.797   6.074
  587WAT     H2 3069   6.323   4.889   5.983
  587WAT    EPW 3070   6.363   4.824   6.001
  588WAT      O 3071   6.657   6.434   6.043
  588WAT     H1 3072   6.717   6.441   6.106
  588WAT     H2 3073   6.662   6.510   6.001
  588WAT    EPW 3074   6.667   6.446   6.046
  589WAT      O 3075   7.412   5.822   7.259
  589WAT     H1 3076   7.402   5.747   7.216
  589WAT     H2 3077   7.428   5.880   7.195
  589WAT    EPW 3078   7.413   5.820   7.243
  590WAT      O 3079   7.329   4.906   7.541
  590WAT     H1 3080   7.316   4.849   7.477
  590WAT     H2 3081   7.408   4.938   7.523
  590WAT    EPW 3082   7.339   4.902   7.529
  591WAT      O 3083   6.158   5.699   6.134
  591WAT     H1 3084   6.175   5.614   6.123
  591WAT     H2 3085   6.226   5.727   6.182
  591WAT    EPW 3086   6.171   5.690   6.139
  592WAT      O 3087   6.929   5.778   7.153
  592WAT     H1 3088   6.877   5.821   7.209
  592WAT     H2 3089   6.960   5.712   7.201
  592WAT    EPW 3090   6.926   5.774   7.169
  593WAT      O 3091   5.797   4.813   6.222
  593WAT     H1 3092   5.801   4.756   6.156
  593WAT     H2 3093   5.768   4.765   6.289
  593WAT    EPW 3094   5.793   4.798   6.222
  594WAT      O 3095   6.778   5.615   6.269
  594WAT     H1 3096   6.789   5.682   6.325
  594WAT     H2 3097   6.767   5.546   6.321
  594WAT    EPW 3098   6.778   5.615   6.285
  595WAT      O 3099   7.309   6.141   6.844
  595WAT     H1 3100   7.233   6.108   6.814
  595WAT     H2 3101   7.338   6.079   6.898
  595WAT    EPW 3102   7.302   6.127   6.847
  596WAT      O 3103   6.245   5.059   5.945
  596WAT     H1 3104   6.185   5.054   5.883
  596WAT     H2 3105   6.314   5.094   5.904
  596WAT    EPW 3106   6.246   5.064   5.930
  597WAT      O 3107   6.691   5.843   6.685
  597WAT     H1 3108   6.609   5.820   6.701
  597WAT     H2 3109   6.735   5.811   6.754
  597WAT    EPW 3110   6.686   5.835   6.698
  598WAT      O 3111   6.354   6.445   5.819
  598WAT     H1 3112   6.378   6.375   5.866
  598WAT     H2 3113   6.361   6.511   5.875
  598WAT    EPW 3114   6.359   6.444   5.834
  599WAT      O 3115   6.059   5.752   6.959
  599WAT     H1 3116   6.111   5.820   6.941
  599WAT     H2 3117   6.017   5.737   6.885
  599WAT    EPW 3118   6.061   5.760   6.946
  600WAT      O 3119   6.380   5.285   6.612
  600WAT     H1 3120   6.457   5.247   6.597
  600WAT     H2 3121   6.323   5.221   6.599
  600WAT    EPW 3122   6.383   5.270   6.608
  601WAT      O 3123   5.872   5.399   6.258
  601WAT     H1 3124   5.905   5.361   6.330
  601WAT     H2 3125   5.879   5.337   6.198
  601WAT    EPW 3126   5.878   5.385   6.260
  602WAT      O 3127   7.321   5.725   6.921
  602WAT     H1 3128   7.336   5.670   6.987
  602WAT     H2 3129   7.254   5.774   6.949
  602WAT    EPW 3130   7.314   5.724   6.935
  603WAT      O 3131   6.383   5.594   5.813
  603WAT     H1 3132   6.376   5.536   5.878
  603WAT     H2 3133   6.323   5.568   5.755
  603WAT    EPW 3134   6.373   5.581   5.814
  604WAT      O 3135   6.032   5.851   7.395
  604WAT     H1 3136   5.998   5.805   7.329
  604WAT     H2 3137   6.005   5.932   7.379
  604WAT    EPW 3138   6.023   5.856   7.383
  605WAT      O 3139   6.450   5.412   6.023
  605WAT     H1 3140   6.480   5.481   6.067
  605WAT     H2 3141   6.367   5.406   6.048
  605WAT    EPW 3142   6.443   5.421   6.033
  606WAT      O 3143   7.222   5.153   7.617
  606WAT     H1 3144   7.191   5.149   7.699
  606WAT     H2 3145   7.234   5.069   7.596
  606WAT    EPW 3146   7.219   5.140   7.626
  607WAT      O 3147   5.843   5.044   6.739
  607WAT     H1 3148   5.825   5.074   6.659
  607WAT     H2 3149   5.918   5.084   6.759
  607WAT    EPW 3150   5.852   5.054   6.730
  608WAT      O 3151   7.148   5.514   7.633
  608WAT     H1 3152   7.194   5.586   7.651
  608WAT     H2 3153   7.065   5.539   7.648
  608WAT    EPW 3154   7.142   5.528   7.638
  609WAT      O 3155   7.294   5.472   7.400
  609WAT     H1 3156   7.363   5.521   7.423
  609WAT     H2 3157   7.247   5.467   7.473
  609WAT    EPW 3158   7.297   5.479   7.414
  610WAT      O 3159   7.402   6.134   5.982
  610WAT     H1 3160   7.429   6.053   5.997
  610WAT     H2 3161   7.319   6.134   6.008
  610WAT    EPW 3162   7.393   6.122   5.988
  611WAT      O 3163   7.337   5.338   6.523
  611WAT     H1 3164   7.274   5.287   6.555
  611WAT     H2 3165   7.340   5.405   6.579
  611WAT    EPW 3166   7.328   5.340   6.536
  612WAT      O 3167   7.015   5.950   5.920
  612WAT     H1 3168   7.089   5.903   5.915
  612WAT     H2 3169   6.987   5.953   5.837
  612WAT    EPW 3170   7.022   5.944   5.907
  613WAT      O 3171   6.454   6.068   7.021
  613WAT     H1 3172   6.465   6.112   7.095
  613WAT     H2 3173   6.467   6.128   6.959
  613WAT    EPW 3174   6.457   6.084   7.023
  614WAT      O 3175   6.302   5.914   7.371
  614WAT     H1 3176   6.224   5.881   7.389
  614WAT     H2 3177   6.286   5.998   7.352
  614WAT    EPW 3178   6.288   5.921   7.371
  615WAT      O 3179   7.255   4.989   7.183
  615WAT     H1 3180   7.305   5.053   7.215
  615WAT     H2 3181   7.178   5.028   7.170
  615WAT    EPW 3182   7.251   5.004   7.186
  616WAT      O 3183   6.784   5.715   6.924
  616WAT     H1 3184   6.838   5.736   6.990
  616WAT     H2 3185   6.705   5.732   6.956
  616WAT    EPW 3186   6.781   5.721   6.939
  617WAT      O 3187   6.424   5.272   7.311
  617WAT     H1 3188   6.443   5.192   7.339
  617WAT     H2 3189   6.451   5.272   7.228
  617WAT    EPW 3190   6.431   5.260   7.303
  618WAT      O 3191   6.681   6.476   6.510
  618WAT     H1 3192   6.687   6.562   6.518
  618WAT     H2 3193   6.706   6.461   6.428
  618WAT    EPW 3194   6.685   6.486   6.499
  619WAT      O 3195   7.297   4.823   6.957
  619WAT     H1 3196   7.300   4.864   7.033
  619WAT     H2 3197   7.347   4.752   6.969
  619WAT    EPW 3198   7.305   4.818   6.970
  620WAT      O 3199   6.569   4.855   7.165
  620WAT     H1 3200   6.650   4.887   7.167
  620WAT     H2 3201   6.577   4.783   7.117
  620WAT    EPW 3202   6.582   4.849   7.158
  621WAT      O 3203   6.498   6.276   6.841
  621WAT     H1 3204   6.443   6.322   6.792
  621WAT     H2 3205   6.542   6.228   6.783
  621WAT    EPW 3206   6.496   6.276   6.825
  622WAT      O 3207   6.946   5.851   7.504
  622WAT     H1 3208   7.027   5.873   7.481
  622WAT     H2 3209   6.896   5.892   7.446
  622WAT    EPW 3210   6.951   5.860   7.492
  623WAT      O 3211   7.275   6.184   7.415
  623WAT     H1 3212   7.331   6.225   7.467
  623WAT     H2 3213   7.290   6.219   7.337
  623WAT    EPW 3214   7.285   6.195   7.412
  624WAT      O 3215   7.508   5.483   5.884
  624WAT     H1 3216   7.521   5.531   5.812
  624WAT     H2 3217   7.426   5.503   5.907
  624WAT    EPW 3218   7.498   5.493   5.876
  625WAT      O 3219   6.616   5.733   5.872
  625WAT     H1 3220   6.544   5.696   5.838
  625WAT     H2 3221   6.594   5.817   5.876
  625WAT    EPW 3222   6.602   5.740   5.867
  626WAT      O 3223   6.292   5.360   6.864
  626WAT     H1 3224   6.325   5.333   6.788
  626WAT     H2 3225   6.350   5.332   6.923
  626WAT    EPW 3226   6.306   5.352   6.861
  627WAT      O 3227   7.020   5.225   7.430
  627WAT     H1 3228   6.970   5.294   7.449
  627WAT     H2 3229   7.083   5.228   7.490
  627WAT    EPW 3230   7.022   5.236   7.442
  628WAT      O 3231   7.052   5.384   7.045
  628WAT     H1 3232   7.049   5.436   7.115
  628WAT     H2 3233   7.034   5.305   7.078
  628WAT    EPW 3234   7.049   5.380   7.060
  629WAT      O 3235   6.739   6.502   7.423
  629WAT     H1 3236   6.754   6.488   7.338
  629WAT     H2 3237   6.708   6.426   7.452
  629WAT    EPW 3238   6.737   6.489   7.415
  630WAT      O 3239   7.237   5.354   6.266
  630WAT     H1 3240   7.261   5.349   6.350
  630WAT     H2 3241   7.313   5.363   6.223
  630WAT    EPW 3242   7.252   5.355   6.272
  631WAT      O 3243   6.571   4.844   6.803
  631WAT     H1 3244   6.488   4.825   6.825
  631WAT     H2 3245   6.568   4.852   6.717
  631WAT    EPW 3246   6.558   4.842   6.794
  632WAT      O 3247   7.409   4.923   6.380
  632WAT     H1 3248   7.326   4.900   6.395
  632WAT     H2 3249   7.414   4.928   6.293
  632WAT    EPW 3250   7.398   4.921   6.369
  633WAT      O 3251   7.417   5.704   6.216
  633WAT     H1 3252   7.456   5.626   6.216
  633WAT     H2 3253   7.332   5.685   6.219
  633WAT    EPW 3254   7.410   5.690   6.217
  634WAT      O 3255   6.771   5.955   7.310
  634WAT     H1 3256   6.697   5.957   7.356
  634WAT     H2 3257   6.785   6.038   7.289
  634WAT    EPW 3258   6.762   5.968   7.314
  635WAT      O 3259   5.832   4.935   7.478
  635WAT     H1 3260   5.813   4.989   7.412
  635WAT     H2 3261   5.754   4.908   7.505
  635WAT    EPW 3262   5.818   4.939   7.472
  636WAT      O 3263   6.328   6.584   6.900
  636WAT     H1 3264   6.336   6.554   6.982
  636WAT     H2 3265   6.295   6.516   6.857
  636WAT    EPW 3266   6.324   6.570   6.906
  637WAT      O 3267   6.154   5.164   6.191
  637WAT     H1 3268   6.169   5.128   6.113
  637WAT     H2 3269   6.074   5.136   6.211
  637WAT    EPW 3270   6.144   5.154   6.182
  638WAT      O 3271   7.055   5.926   6.506
  638WAT     H1 3272   7.053   5.952   6.590
  638WAT     H2 3273   7.085   5.845   6.511
  638WAT    EPW 3274   7.059   5.918   6.519
  639WAT      O 3275   6.802   5.839   6.431
  639WAT     H1 3276   6.763   5.836   6.510
  639WAT     H2 3277   6.880   5.873   6.448
  639WAT    EPW 3278   6.807   5.844   6.446
  640WAT      O 3279   6.795   6.229   7.267
  640WAT     H1 3280   6.856   6.232   7.329
  640WAT     H2 3281   6.819   6.292   7.212
  640WAT    EPW 3282   6.808   6.239   7.268
  641WAT      O 3283   7.043   5.549   7.272
  641WAT     H1 3284   6.981   5.518   7.325
  641WAT     H2 3285   7.117   5.538   7.317
  641WAT    EPW 3286   7.045   5.542   7.286
  642WAT      O 3287   5.986   6.543   7.408
  642WAT     H1 3288   5.927   6.479   7.399
  642WAT     H2 3289   5.940   6.608   7.444
  642WAT    EPW 3290   5.970   6.543   7.412
  643WAT      O 3291   6.891   5.629   7.655
  643WAT     H1 3292   6.908   5.702   7.610
  643WAT     H2 3293   6.825   5.653   7.707
  643WAT    EPW 3294   6.884   5.644   7.656
  644WAT      O 3295   7.142   6.560   6.701
  644WAT     H1 3296   7.087   6.618   6.737
  644WAT     H2 3297   7.218   6.578   6.739
  644WAT    EPW 3298   7.145   6.571   6.712
  645WAT      O 3299   6.835   6.082   6.947
  645WAT     H1 3300   6.777   6.042   6.997
  645WAT     H2 3301   6.893   6.114   7.004
  645WAT    EPW 3302   6.835   6.081   6.963
  646WAT      O 3303   6.160   5.365   7.257
  646WAT     H1 3304   6.179   5.433   7.206
  646WAT     H2 3305   6.238   5.335   7.281
  646WAT    EPW 3306   6.175   5.371   7.253
  647WAT      O 3307   5.970   5.207   7.127
  647WAT     H1 3308   5.986   5.218   7.042
  647WAT     H2 3309   6.028   5.259   7.166
  647WAT    EPW 3310   5.981   5.216   7.120
  648WAT      O 3311   7.494   5.430   6.180
  648WAT     H1 3312   7.525   5.419   6.099
  648WAT     H2 3313   7.525   5.360   6.222
  648WAT    EPW 3314   7.503   5.418   6.174
  649WAT      O 3315   6.194   4.936   7.407
  649WAT     H1 3316   6.153   4.861   7.423
  649WAT     H2 3317   6.174   4.953   7.324
  649WAT    EPW 3318   6.185   4.927   7.397
  650WAT      O 3319   6.870   6.187   6.367
  650WAT     H1 3320   6.862   6.262   6.324
  650WAT     H2 3321   6.805   6.139   6.334
  650WAT    EPW 3322   6.859   6.191   6.356
  651WAT      O 3323   7.380   5.572   7.145
  651WAT     H1 3324   7.434   5.511   7.114
  651WAT     H2 3325   7.338   5.530   7.210
  651WAT    EPW 3326   7.382   5.557   7.150
  652WAT      O 3327   5.905   5.720   7.188
  652WAT     H1 3328   5.948   5.734   7.113
  652WAT     H2 3329   5.882   5.636   7.184
  652WAT    EPW 3330   5.908   5.710   7.176
  653WAT      O 3331   6.053   5.319   5.841
  653WAT     H1 3332   5.979   5.310   5.885
  653WAT     H2 3333   6.063   5.243   5.800
  653WAT    EPW 3334   6.044   5.307   5.841
  654WAT      O 3335   6.944   4.966   7.490
  654WAT     H1 3336   6.961   5.051   7.479
  654WAT     H2 3337   6.863   4.965   7.524
  654WAT    EPW 3338   6.934   4.978   7.494
  655WAT      O 3339   6.893   5.038   6.568
  655WAT     H1 3340   6.814   5.077   6.568
  655WAT     H2 3341   6.885   4.978   6.506
  655WAT    EPW 3342   6.880   5.035   6.559
  656WAT      O 3343   6.383   6.209   5.981
  656WAT     H1 3344   6.418   6.208   6.061
  656WAT     H2 3345   6.299   6.188   5.995
  656WAT    EPW 3346   6.375   6.206   5.995
  657WAT      O 3347   7.209   5.073   6.839
  657WAT     H1 3348   7.262   5.011   6.870
  657WAT     H2 3349   7.244   5.146   6.869
  657WAT    EPW 3350   7.222   5.074   6.848
  658WAT      O 3351   6.421   5.689   7.245
  658WAT     H1 3352   6.380   5.755   7.284
  658WAT     H2 3353   6.358   5.650   7.199
  658WAT    EPW 3354   6.406   5.693   7.244
  659WAT      O 3355   7.289   5.550   6.705
  659WAT     H1 3356   7.304   5.611   6.765
  659WAT     H2 3357   7.241   5.592   6.645
  659WAT    EPW 3358   7.284   5.565   6.705
  660WAT      O 3359   7.295   6.381   6.347
  660WAT     H1 3360   7.262   6.300   6.352
  660WAT     H2 3361   7.343   6.379   6.274
  660WAT    EPW 3362   7.297   6.369   6.337
  661WAT      O 3363   6.127   6.122   6.039
  661WAT     H1 3364   6.125   6.104   6.124
  661WAT     H2 3365   6.140   6.045   6.001
  661WAT    EPW 3366   6.128   6.108   6.046
  662WAT      O 3367   6.442   5.964   5.850
  662WAT     H1 3368   6.364   5.928   5.865
  662WAT     H2 3369   6.436   6.043   5.889
  662WAT    EPW 3370   6.429   5.971   5.858
  663WAT      O 3371   6.384   5.023   7.034
  663WAT     H1 3372   6.304   4.999   7.061
  663WAT     H2 3373   6.436   4.961   7.067
  663WAT    EPW 3374   6.380   5.010   7.043
  664WAT      O 3375   6.755   5.015   6.925
  664WAT     H1 3376   6.692   4.964   6.892
  664WAT     H2 3377   6.828   4.977   6.899
  664WAT    EPW 3378   6.756   5.002   6.916
  665WAT      O 3379   7.081   6.179   7.059
  665WAT     H1 3380   7.139   6.226   7.104
  665WAT     H2 3381   7.082   6.217   6.980
  665WAT    EPW 3382   7.090   6.192   7.054
  666WAT      O 3383   7.011   6.542   7.463
  666WAT     H1 3384   6.926   6.525   7.454
  666WAT     H2 3385   7.013   6.625   7.488
  666WAT    EPW 3386   6.999   6.552   7.465
  667WAT      O 3387   6.589   5.494   7.372
  667WAT     H1 3388   6.537   5.424   7.363
  667WAT     H2 3389   6.543   5.558   7.334
  667WAT    EPW 3390   6.574   5.493   7.365
  668WAT      O 3391   6.639   4.844   5.932
  668WAT     H1 3392   6.650   4.852   5.846
  668WAT     H2 3393   6.553   4.846   5.942
  668WAT    EPW 3394   6.628   4.846   5.921
  669WAT      O 3395   7.456   5.953   7.007
  669WAT     H1 3396   7.426   5.879   6.970
  669WAT     H2 3397   7.536   5.962   6.972
  669WAT    EPW 3398   7.464   5.943   6.996
  670WAT      O 3399   6.416   6.490   7.426
  670WAT     H1 3400   6.459   6.565   7.440
  670WAT     H2 3401   6.471   6.429   7.453
  670WAT    EPW 3402   6.430   6.492   7.432
  671WAT      O 3403   7.397   6.399   6.895
  671WAT     H1 3404   7.442   6.420   6.823
  671WAT     H2 3405   7.364   6.321   6.876
  671WAT    EPW 3406   7.398   6.391   6.881
  672WAT      O 3407   6.129   4.976   7.144
  672WAT     H1 3408   6.076   4.911   7.120
  672WAT     H2 3409   6.080   5.048   7.132
  672WAT    EPW 3410   6.114   4.977   7.138
  673WAT      O 3411   6.983   4.915   6.800
  673WAT     H1 3412   7.047   4.970   6.823
  673WAT     H2 3413   6.952   4.950   6.726
  673WAT    EPW 3414   6.988   4.929   6.792
  674WAT      O 3415   6.183   6.378   7.524
  674WAT     H1 3416   6.255   6.425   7.509
  674WAT     H2 3417   6.118   6.430   7.497
  674WAT    EPW 3418   6.184   6.393   7.518
  675WAT      O 3419   6.974   5.437   6.583
  675WAT     H1 3420   7.023   5.366   6.594
  675WAT     H2 3421   6.942   5.452   6.663
  675WAT    EPW 3422   6.976   5.428   6.596
  676WAT      O 3423   5.990   5.320   6.503
  676WAT     H1 3424   5.946   5.346   6.574
  676WAT     H2 3425   6.029   5.246   6.529
  676WAT    EPW 3426   5.989   5.313   6.517
  677WAT      O 3427   5.979   6.115   7.299
  677WAT     H1 3428   5.930   6.181   7.327
  677WAT     H2 3429   6.060   6.145   7.304
  677WAT    EPW 3430   5.983   6.129   7.304
  678WAT      O 3431   7.153   5.607   6.216
  678WAT     H1 3432   7.168   5.523   6.233
  678WAT     H2 3433   7.078   5.606   6.171
  678WAT    EPW 3434   7.144   5.594   6.212
  679WAT      O 3435   6.154   6.457   6.171
  679WAT     H1 3436   6.126   6.457   6.089
  679WAT     H2 3437   6.240   6.447   6.164
  679WAT    EPW 3438   6.163   6.455   6.158
  680WAT      O 3439   6.548   5.647   6.127
  680WAT     H1 3440   6.575   5.682   6.051
  680WAT     H2 3441   6.621   5.638   6.173
  680WAT    EPW 3442   6.563   5.651   6.122
  681WAT      O 3443   7.417   6.499   5.876
  681WAT     H1 3444   7.446   6.467   5.951
  681WAT     H2 3445   7.412   6.430   5.824
  681WAT    EPW 3446   7.420   6.484   5.880
  682WAT      O 3447   7.497   5.661   7.472
  682WAT     H1 3448   7.584   5.661   7.483
  682WAT     H2 3449   7.484   5.721   7.410
  682WAT    EPW 3450   7.508   5.670   7.465
  683WAT      O 3451   7.143   6.154   6.073
  683WAT     H1 3452   7.146   6.131   6.157
  683WAT     H2 3453   7.091   6.094   6.037
  683WAT    EPW 3454   7.136   6.142   6.080
  684WAT      O 3455   7.492   5.163   7.544
  684WAT     H1 3456   7.542   5.215   7.594
  684WAT     H2 3457   7.412   5.174   7.577
  684WAT    EPW 3458   7.488   5.173   7.556
  685WAT      O 3459   7.520   5.361   7.042
  685WAT     H1 3460   7.455   5.345   6.985
  685WAT     H2 3461   7.511   5.297   7.101
  685WAT    EPW 3462   7.509   5.349   7.042
  686WAT      O 3463   6.468   4.995   7.386
  686WAT     H1 3464   6.489   4.955   7.312
  686WAT     H2 3465   6.384   4.975   7.397
  686WAT    EPW 3466   6.458   4.986   7.377
  687WAT      O 3467   7.297   5.746   7.652
  687WAT     H1 3468   7.371   5.722   7.612
  687WAT     H2 3469   7.263   5.806   7.599
  687WAT    EPW 3470   7.303   5.752   7.638
  688WAT      O 3471   6.183   6.359   6.803
  688WAT     H1 3472   6.170   6.282   6.765
  688WAT     H2 3473   6.142   6.415   6.750
  688WAT    EPW 3474   6.175   6.356   6.790
  689WAT      O 3475   6.752   5.989   6.009
  689WAT     H1 3476   6.835   5.969   5.990
  689WAT     H2 3477   6.738   6.062   5.962
  689WAT    EPW 3478   6.762   5.997   5.999
  690WAT      O 3479   5.946   6.605   7.139
  690WAT     H1 3480   5.959   6.587   7.223
  690WAT     H2 3481   5.979   6.535   7.098
  690WAT    EPW 3482   5.953   6.592   7.145
  691WAT      O 3483   6.906   4.842   4.479
  691WAT     H1 3484   6.900   4.882   4.402
  691WAT     H2 3485   6.992   4.832   4.489
  691WAT    EPW 3486   6.918   4.846   4.469
  692WAT      O 3487   6.878   5.466   4.950
  692WAT     H1 3488   6.845   5.543   4.976
  692WAT     H2 3489   6.932   5.445   5.015
  692WAT    EPW 3490   6.881   5.474   4.964
  693WAT      O 3491   5.856   5.945   4.460
  693WAT     H1 3492   5.843   5.949   4.546
  693WAT     H2 3493   5.851   5.860   4.442
  693WAT    EPW 3494   5.853   5.933   4.470
  694WAT      O 3495   7.470   6.363   4.220
  694WAT     H1 3496   7.545   6.352   4.263
  694WAT     H2 3497   7.455   6.285   4.184
  694WAT    EPW 3498   7.478   6.350   4.221
  695WAT      O 3499   5.843   5.284   4.105
  695WAT     H1 3500   5.778   5.332   4.074
  695WAT     H2 3501   5.813   5.202   4.101
  695WAT    EPW 3502   5.829   5.279   4.100
  696WAT      O 3503   6.173   5.876   4.023
  696WAT     H1 3504   6.137   5.835   3.955
  696WAT     H2 3505   6.173   5.815   4.086
  696WAT    EPW 3506   6.168   5.861   4.022
  697WAT      O 3507   7.130   5.655   4.605
  697WAT     H1 3508   7.138   5.645   4.519
  697WAT     H2 3509   7.073   5.592   4.627
  697WAT    EPW 3510   7.123   5.644   4.596
  698WAT      O 3511   6.106   6.055   4.413
  698WAT     H1 3512   6.159   6.017   4.471
  698WAT     H2 3513   6.029   6.015   4.426
  698WAT    EPW 3514   6.102   6.043   4.424
  699WAT      O 3515   6.568   4.968   4.372
  699WAT     H1 3516   6.561   5.035   4.317
  699WAT     H2 3517   6.644   4.931   4.349
  699WAT    EPW 3518   6.578   4.972   4.361
  700WAT      O 3519   5.993   6.334   4.014
  700WAT     H1 3520   6.040   6.341   3.942
  700WAT     H2 3521   6.029   6.265   4.055
  700WAT    EPW 3522   6.006   6.325   4.010
  701WAT      O 3523   5.877   6.152   5.135
  701WAT     H1 3524   5.911   6.131   5.212
  701WAT     H2 3525   5.808   6.099   5.128
  701WAT    EPW 3526   5.872   6.141   5.145
  702WAT      O 3527   6.534   5.988   5.585
  702WAT     H1 3528   6.512   5.976   5.668
  702WAT     H2 3529   6.462   5.966   5.541
  702WAT    EPW 3530   6.520   5.983   5.591
  703WAT      O 3531   6.044   5.687   4.599
  703WAT     H1 3532   5.997   5.686   4.525
  703WAT     H2 3533   6.097   5.619   4.590
  703WAT    EPW 3534   6.045   5.677   4.586
  704WAT      O 3535   6.494   5.280   5.152
  704WAT     H1 3536   6.560   5.281   5.096
  704WAT     H2 3537   6.465   5.197   5.148
  704WAT    EPW 3538   6.499   5.268   5.144
  705WAT      O 3539   6.514   6.274   5.319
  705WAT     H1 3540   6.523   6.339   5.262
  705WAT     H2 3541   6.596   6.255   5.342
  705WAT    EPW 3542   6.527   6.281   5.314
  706WAT      O 3543   6.212   5.469   4.590
  706WAT     H1 3544   6.278   5.417   4.613
  706WAT     H2 3545   6.143   5.415   4.590
  706WAT    EPW 3546   6.212   5.453   4.593
  707WAT      O 3547   6.626   6.109   4.744
  707WAT     H1 3548   6.650   6.027   4.762
  707WAT     H2 3549   6.702   6.152   4.741
  707WAT    EPW 3550   6.641   6.103   4.746
  708WAT      O 3551   6.679   6.025   4.368
  708WAT     H1 3552   6.710   5.960   4.418
  708WAT     H2 3553   6.705   6.003   4.288
  708WAT    EPW 3554   6.687   6.012   4.364
  709WAT      O 3555   6.830   5.506   5.537
  709WAT     H1 3556   6.744   5.501   5.522
  709WAT     H2 3557   6.835   5.552   5.611
  709WAT    EPW 3558   6.818   5.512   5.546
  710WAT      O 3559   6.294   4.987   4.453
  710WAT     H1 3560   6.256   5.044   4.399
  710WAT     H2 3561   6.377   4.985   4.427
  710WAT    EPW 3562   6.301   4.995   4.441
  711WAT      O 3563   7.252   4.723   5.456
  711WAT     H1 3564   7.238   4.795   5.408
  711WAT     H2 3565   7.176   4.713   5.499
  711WAT    EPW 3566   7.239   4.732   5.455
  712WAT      O 3567   6.596   4.908   4.650
  712WAT     H1 3568   6.605   4.990   4.678
  712WAT     H2 3569   6.576   4.917   4.565
  712WAT    EPW 3570   6.595   4.921   4.641
  713WAT      O 3571   7.049   5.159   3.883
  713WAT     H1 3572   7.002   5.225   3.918
  713WAT     H2 3573   7.054   5.101   3.947
  713WAT    EPW 3574   7.043   5.160   3.897
  714WAT      O 3575   5.869   5.408   4.854
  714WAT     H1 3576   5.864   5.494   4.868
  714WAT     H2 3577   5.803   5.376   4.900
  714WAT    EPW 3578   5.859   5.416   4.863
  715WAT      O 3579   5.852   6.386   4.671
  715WAT     H1 3580   5.790   6.436   4.637
  715WAT     H2 3581   5.893   6.352   4.601
  715WAT    EPW 3582   5.849   6.388   4.656
  716WAT      O 3583   6.443   6.163   4.357
  716WAT     H1 3584   6.410   6.161   4.438
  716WAT     H2 3585   6.521   6.125   4.366
  716WAT    EPW 3586   6.449   6.157   4.371
  717WAT      O 3587   7.041   6.412   4.164
  717WAT     H1 3588   7.105   6.471   4.170
  717WAT     H2 3589   7.083   6.336   4.175
  717WAT    EPW 3590   7.057   6.409   4.167
  718WAT      O 3591   6.843   6.443   4.352
  718WAT     H1 3592   6.864   6.517   4.394
  718WAT     H2 3593   6.908   6.433   4.294
  718WAT    EPW 3594   6.856   6.452   4.350
  719WAT      O 3595   6.092   4.934   4.869
  719WAT     H1 3596   6.081   4.856   4.831
  719WAT     H2 3597   6.148   4.916   4.935
  719WAT    EPW 3598   6.099   4.920   4.873
  720WAT      O 3599   6.480   5.134   5.798
  720WAT     H1 3600   6.481   5.096   5.720
  720WAT     H2 3601   6.524   5.209   5.785
  720WAT    EPW 3602   6.487   5.140   5.785
  721WAT      O 3603   5.990   6.305   4.439
  721WAT     H1 3604   6.039   6.234   4.448
  721WAT     H2 3605   6.038   6.358   4.390
  721WAT    EPW 3606   6.004   6.303   4.433
  722WAT      O 3607   7.515   5.209   4.462
  722WAT     H1 3608   7.474   5.250   4.527
  722WAT     H2 3609   7.491   5.126   4.472
  722WAT    EPW 3610   7.505   5.203   4.473
  723WAT      O 3611   7.065   6.504   5.108
  723WAT     H1 3612   7.129   6.560   5.091
  723WAT     H2 3613   7.064   6.452   5.037
  723WAT    EPW 3614   7.074   6.504   5.095
  724WAT      O 3615   6.069   5.062   5.728
  724WAT     H1 3616   5.989   5.032   5.711
  724WAT     H2 3617   6.118   5.027   5.665
  724WAT    EPW 3618   6.064   5.052   5.716
  725WAT      O 3619   6.140   6.119   4.793
  725WAT     H1 3620   6.201   6.110   4.731
  725WAT     H2 3621   6.167   6.066   4.856
  725WAT    EPW 3622   6.153   6.110   4.793
  726WAT      O 3623   6.419   6.431   4.699
  726WAT     H1 3624   6.499   6.449   4.671
  726WAT     H2 3625   6.368   6.481   4.649
  726WAT    EPW 3626   6.423   6.441   4.688
  727WAT      O 3627   6.672   4.865   5.660
  727WAT     H1 3628   6.687   4.791   5.616
  727WAT     H2 3629   6.605   4.901   5.618
  727WAT    EPW 3630   6.665   4.859   5.648
  728WAT      O 3631   6.765   5.375   4.518
  728WAT     H1 3632   6.796   5.333   4.448
  728WAT     H2 3633   6.836   5.391   4.566
  728WAT    EPW 3634   6.780   5.371   4.515
  729WAT      O 3635   6.872   5.342   4.016
  729WAT     H1 3636   6.894   5.422   4.043
  729WAT     H2 3637   6.798   5.355   3.972
  729WAT    EPW 3638   6.864   5.356   4.013
  730WAT      O 3639   7.231   6.618   4.145
  730WAT     H1 3640   7.278   6.584   4.080
  730WAT     H2 3641   7.285   6.676   4.182
  730WAT    EPW 3642   7.246   6.621   4.141
  731WAT      O 3643   6.295   6.515   5.291
  731WAT     H1 3644   6.326   6.499   5.371
  731WAT     H2 3645   6.230   6.457   5.282
  731WAT    EPW 3646   6.290   6.504   5.302
  732WAT      O 3647   5.772   5.167   5.457
  732WAT     H1 3648   5.767   5.240   5.503
  732WAT     H2 3649   5.835   5.183   5.400
  732WAT    EPW 3650   5.780   5.180   5.456
  733WAT      O 3651   6.968   6.207   5.563
  733WAT     H1 3652   6.966   6.244   5.642
  733WAT     H2 3653   7.053   6.195   5.549
  733WAT    EPW 3654   6.980   6.211   5.573
  734WAT      O 3655   6.730   6.232   3.969
  734WAT     H1 3656   6.698   6.291   4.025
  734WAT     H2 3657   6.808   6.264   3.947
  734WAT    EPW 3658   6.737   6.245   3.974
  735WAT      O 3659   7.059   4.986   4.097
  735WAT     H1 3660   7.110   4.915   4.101
  735WAT     H2 3661   7.082   5.031   4.169
  735WAT    EPW 3662   7.070   4.982   4.109
  736WAT      O 3663   5.900   5.075   4.378
  736WAT     H1 3664   5.879   4.992   4.362
  736WAT     H2 3665   5.849   5.095   4.446
  736WAT    EPW 3666   5.889   5.065   4.386
  737WAT      O 3667   6.059   6.377   5.169
  737WAT     H1 3668   6.000   6.313   5.164
  737WAT     H2 3669   6.099   6.374   5.092
  737WAT    EPW 3670   6.056   6.367   5.157
  738WAT      O 3671   6.831   5.247   4.276
  738WAT     H1 3672   6.761   5.198   4.259
  738WAT     H2 3673   6.852   5.280   4.197
  738WAT    EPW 3674   6.824   5.245   4.262
  739WAT      O 3675   6.841   6.479   5.260
  739WAT     H1 3676   6.913   6.484   5.211
  739WAT     H2 3677   6.777   6.475   5.200
  739WAT    EPW 3678   6.842   6.479   5.244
  740WAT      O 3679   6.822   4.926   4.227
  740WAT     H1 3680   6.765   4.908   4.163
  740WAT     H2 3681   6.895   4.947   4.184
  740WAT    EPW 3682   6.825   4.926   4.211
  741WAT      O 3683   7.455   6.507   4.636
  741WAT     H1 3684   7.460   6.585   4.597
  741WAT     H2 3685   7.406   6.460   4.581
  741WAT    EPW 3686   7.448   6.512   4.622
  742WAT      O 3687   6.645   5.186   4.688
  742WAT     H1 3688   6.673   5.250   4.636
  742WAT     H2 3689   6.658   5.218   4.768
  742WAT    EPW 3690   6.651   5.200   4.692
  743WAT      O 3691   7.202   6.110   4.446
  743WAT     H1 3692   7.272   6.059   4.455
  743WAT     H2 3693   7.141   6.072   4.495
  743WAT    EPW 3694   7.203   6.097   4.454
  744WAT      O 3695   6.254   6.216   5.442
  744WAT     H1 3696   6.329   6.249   5.413
  744WAT     H2 3697   6.238   6.260   5.515
  744WAT    EPW 3698   6.262   6.227   5.448
  745WAT      O 3699   6.225   4.724   4.507
  745WAT     H1 3700   6.244   4.807   4.490
  745WAT     H2 3701   6.196   4.693   4.431
  745WAT    EPW 3702   6.224   4.732   4.493
  746WAT      O 3703   6.436   5.801   4.881
  746WAT     H1 3704   6.459   5.780   4.963
  746WAT     H2 3705   6.380   5.738   4.859
  746WAT    EPW 3706   6.431   5.789   4.890
  747WAT      O 3707   7.017   5.130   5.277
  747WAT     H1 3708   7.010   5.167   5.356
  747WAT     H2 3709   6.952   5.073   5.276
  747WAT    EPW 3710   7.007   5.127   5.289
  748WAT      O 3711   6.535   5.797   5.141
  748WAT     H1 3712   6.517   5.882   5.149
  748WAT     H2 3713   6.505   5.762   5.215
  748WAT    EPW 3714   6.528   5.804   5.153
  749WAT      O 3715   7.130   5.932   5.120
  749WAT     H1 3716   7.072   5.883   5.163
  749WAT     H2 3717   7.114   6.013   5.147
  749WAT    EPW 3718   7.119   5.937   5.130
  750WAT      O 3719   7.172   4.785   4.537
  750WAT     H1 3720   7.172   4.765   4.622
  750WAT     H2 3721   7.193   4.709   4.499
  750WAT    EPW 3722   7.175   4.771   4.544
  751WAT      O 3723   5.793   6.205   5.758
  751WAT     H1 3724   5.851   6.252   5.802
  751WAT     H2 3725   5.798   6.126   5.794
  751WAT    EPW 3726   5.802   6.200   5.770
  752WAT      O 3727   7.400   5.130   5.420
  752WAT     H1 3728   7.427   5.208   5.392
  752WAT     H2 3729   7.381   5.144   5.504
  752WAT    EPW 3730   7.401   5.144   5.429
  753WAT      O 3731   6.173   5.112   4.675
  753WAT     H1 3732   6.204   5.061   4.611
  753WAT     H2 3733   6.151   5.056   4.737
  753WAT    EPW 3734   6.174   5.096   4.675
  754WAT      O 3735   7.484   5.866   4.097
  754WAT     H1 3736   7.464   5.818   4.167
  754WAT     H2 3737   7.563   5.837   4.074
  754WAT    EPW 3738   7.492   5.855   4.104
  755WAT      O 3739   6.235   5.890   4.594
  755WAT     H1 3740   6.289   5.856   4.535
  755WAT     H2 3741   6.175   5.828   4.606
  755WAT    EPW 3742   6.234   5.876   4.587
  756WAT      O 3743   6.063   6.544   4.750
  756WAT     H1 3744   5.990   6.503   4.726
  756WAT     H2 3745   6.109   6.549   4.676
  756WAT    EPW 3746   6.059   6.539   4.735
  757WAT      O 3747   6.054   5.288   5.031
  757WAT     H1 3748   6.133   5.310   5.002
  757WAT     H2 3749   6.001   5.318   4.968
  757WAT    EPW 3750   6.058   5.296   5.017
  758WAT      O 3751   7.248   5.559   4.046
  758WAT     H1 3752   7.245   5.641   4.015
  758WAT     H2 3753   7.217   5.567   4.127
  758WAT    EPW 3754   7.243   5.573   4.053
  759WAT      O 3755   6.374   5.825   4.357
  759WAT     H1 3756   6.404   5.905   4.341
  759WAT     H2 3757   6.435   5.772   4.324
  759WAT    EPW 3758   6.387   5.829   4.350
  760WAT      O 3759   5.885   6.003   4.745
  760WAT     H1 3760   5.832   6.062   4.782
  760WAT     H2 3761   5.964   6.039   4.753
  760WAT    EPW 3762   5.889   6.017   4.751
  761WAT      O 3763   6.618   5.380   5.788
  761WAT     H1 3764   6.564   5.410   5.850
  761WAT     H2 3765   6.595   5.425   5.717
  761WAT    EPW 3766   6.606   5.391   5.787
  762WAT      O 3767   5.907   5.682   4.361
  762WAT     H1 3768   5.891   5.596   4.359
  762WAT     H2 3769   5.980   5.690   4.312
  762WAT    EPW 3770   5.916   5.671   4.353
  763WAT      O 3771   7.429   4.963   4.195
  763WAT     H1 3772   7.504   4.925   4.170
  763WAT     H2 3773   7.431   5.041   4.156
  763WAT    EPW 3774   7.440   4.969   4.186
  764WAT      O 3775   6.854   6.269   4.730
  764WAT     H1 3776   6.806   6.340   4.712
  764WAT     H2 3777   6.876   6.238   4.652
  764WAT    EPW 3778   6.850   6.275   4.716
  765WAT      O 3779   5.819   6.151   4.283
  765WAT     H1 3780   5.873   6.207   4.323
  765WAT     H2 3781   5.812   6.085   4.339
  765WAT    EPW 3782   5.826   6.149   4.297
  766WAT      O 3783   6.242   5.960   4.996
  766WAT     H1 3784   6.293   6.001   5.053
  766WAT     H2 3785   6.298   5.913   4.948
  766WAT    EPW 3786   6.257   5.959   4.997
  767WAT      O 3787   7.119   5.201   4.717
  767WAT     H1 3788   7.148   5.158   4.787
  767WAT     H2 3789   7.055   5.149   4.686
  767WAT    EPW 3790   7.114   5.187   4.723
  768WAT      O 3791   5.835   5.992   4.049
  768WAT     H1 3792   5.909   5.946   4.048
  768WAT     H2 3793   5.844   6.044   4.119
  768WAT    EPW 3794   5.847   5.993   4.059
  769WAT      O 3795   5.900   5.736   4.831
  769WAT     H1 3796   5.950   5.710   4.764
  769WAT     H2 3797   5.893   5.822   4.818
  769WAT    EPW 3798   5.907   5.745   4.820
  770WAT      O 3799   6.570   5.164   4.178
  770WAT     H1 3800   6.560   5.130   4.098
  770WAT     H2 3801   6.535   5.244   4.171
  770WAT    EPW 3802   6.563   5.171   4.165
  771WAT      O 3803   7.275   6.329   5.303
  771WAT     H1 3804   7.268   6.406   5.343
  771WAT     H2 3805   7.325   6.346   5.234
  771WAT    EPW 3806   7.281   6.343   5.299
  772WAT      O 3807   6.373   6.171   4.624
  772WAT     H1 3808   6.381   6.255   4.648
  772WAT     H2 3809   6.444   6.134   4.659
  772WAT    EPW 3810   6.385   6.178   4.633
  773WAT      O 3811   6.163   5.506   5.662
  773WAT     H1 3812   6.123   5.445   5.710
  773WAT     H2 3813   6.164   5.471   5.582
  773WAT    EPW 3814   6.157   5.492   5.657
  774WAT      O 3815   6.184   5.415   4.170
  774WAT     H1 3816   6.169   5.348   4.224
  774WAT     H2 3817   6.145   5.390   4.095
  774WAT    EPW 3818   6.176   5.401   4.167
  775WAT      O 3819   6.250   5.607   4.833
  775WAT     H1 3820   6.238   5.573   4.753
  775WAT     H2 3821   6.269   5.538   4.882
  775WAT    EPW 3822   6.251   5.592   4.828
  776WAT      O 3823   6.229   5.569   5.189
  776WAT     H1 3824   6.254   5.516   5.124
  776WAT     H2 3825   6.174   5.624   5.151
  776WAT    EPW 3826   6.225   5.569   5.174
  777WAT      O 3827   7.278   5.335   5.007
  777WAT     H1 3828   7.207   5.354   5.054
  777WAT     H2 3829   7.279   5.397   4.946
  777WAT    EPW 3830   7.267   5.347   5.005
  778WAT      O 3831   6.613   6.452   5.106
  778WAT     H1 3832   6.589   6.388   5.051
  778WAT     H2 3833   6.601   6.525   5.060
  778WAT    EPW 3834   6.607   6.453   5.091
  779WAT      O 3835   6.848   4.912   5.340
  779WAT     H1 3836   6.868   4.830   5.320
  779WAT     H2 3837   6.879   4.921   5.421
  779WAT    EPW 3838   6.855   4.901   5.349
  780WAT      O 3839   7.078   5.127   4.332
  780WAT     H1 3840   7.132   5.194   4.346
  780WAT     H2 3841   7.000   5.165   4.324
  780WAT    EPW 3842   7.074   5.142   4.333
  781WAT      O 3843   6.037   5.744   5.720
  781WAT     H1 3844   6.032   5.788   5.645
  781WAT     H2 3845   6.082   5.672   5.699
  781WAT    EPW 3846   6.043   5.740   5.706
  782WAT      O 3847   7.235   5.902   5.581
  782WAT     H1 3848   7.238   5.988   5.566
  782WAT     H2 3849   7.287   5.869   5.519
  782WAT    EPW 3850   7.243   5.910   5.569
  783WAT      O 3851   6.611   6.258   5.619
  783WAT     H1 3852   6.642   6.250   5.700
  783WAT     H2 3853   6.586   6.177   5.599
  783WAT    EPW 3854   6.612   6.245   5.628
  784WAT      O 3855   6.682   5.269   4.948
  784WAT     H1 3856   6.747   5.327   4.954
  784WAT     H2 3857   6.717   5.195   4.978
  784WAT    EPW 3858   6.697   5.267   4.953
  785WAT      O 3859   6.936   5.586   4.144
  785WAT     H1 3860   6.911   5.639   4.079
  785WAT     H2 3861   6.875   5.600   4.205
  785WAT    EPW 3862   6.923   5.596   4.143
  786WAT      O 3863   7.424   5.944   4.466
  786WAT     H1 3864   7.463   5.928   4.543
  786WAT     H2 3865   7.428   5.867   4.425
  786WAT    EPW 3866   7.431   5.930   4.472
  787WAT      O 3867   7.077   6.308   4.900
  787WAT     H1 3868   7.007   6.283   4.855
  787WAT     H2 3869   7.108   6.375   4.854
  787WAT    EPW 3870   7.071   6.314   4.886
  788WAT      O 3871   6.993   5.979   4.878
  788WAT     H1 3872   6.922   6.015   4.913
  788WAT     H2 3873   7.037   5.948   4.948
  788WAT    EPW 3874   6.989   5.980   4.894
  789WAT      O 3875   6.429   6.436   4.297
  789WAT     H1 3876   6.435   6.356   4.333
  789WAT     H2 3877   6.499   6.440   4.245
  789WAT    EPW 3878   6.440   6.425   4.294
  790WAT      O 3879   6.369   4.814   4.078
  790WAT     H1 3880   6.362   4.786   4.160
  790WAT     H2 3881   6.319   4.885   4.076
  790WAT    EPW 3882   6.361   4.820   4.090
  791WAT      O 3883   6.657   6.433   4.145
  791WAT     H1 3884   6.716   6.440   4.208
  791WAT     H2 3885   6.661   6.509   4.103
  791WAT    EPW 3886   6.667   6.445   4.148
  792WAT      O 3887   7.436   5.817   5.401
  792WAT     H1 3888   7.422   5.743   5.357
  792WAT     H2 3889   7.456   5.875   5.339
  792WAT    EPW 3890   7.437   5.815   5.386
  793WAT      O 3891   6.970   6.359   5.801
  793WAT     H1 3892   6.997   6.381   5.881
  793WAT     H2 3893   6.995   6.426   5.751
  793WAT    EPW 3894   6.978   6.372   5.805
  794WAT      O 3895   7.347   4.853   5.691
  794WAT     H1 3896   7.329   4.809   5.618
  794WAT     H2 3897   7.376   4.791   5.745
  794WAT    EPW 3898   7.348   4.837   5.688
  795WAT      O 3899   6.154   5.694   4.232
  795WAT     H1 3900   6.172   5.609   4.222
  795WAT     H2 3901   6.221   5.723   4.281
  795WAT    EPW 3902   6.167   5.685   4.238
  796WAT      O 3903   6.933   5.795   5.253
  796WAT     H1 3904   6.882   5.831   5.314
  796WAT     H2 3905   6.965   5.724   5.294
  796WAT    EPW 3906   6.930   5.790   5.268
  797WAT      O 3907   5.809   4.809   4.327
  797WAT     H1 3908   5.814   4.755   4.259
  797WAT     H2 3909   5.778   4.758   4.391
  797WAT    EPW 3910   5.805   4.793   4.327
  798WAT      O 3911   6.777   5.614   4.371
  798WAT     H1 3912   6.787   5.680   4.426
  798WAT     H2 3913   6.766   5.544   4.423
  798WAT    EPW 3914   6.777   5.613   4.386
  799WAT      O 3915   7.298   6.129   4.970
  799WAT     H1 3916   7.235   6.163   4.920
  799WAT     H2 3917   7.260   6.061   5.008
  799WAT    EPW 3918   7.283   6.124   4.968
  800WAT      O 3919   6.236   5.054   4.042
  800WAT     H1 3920   6.176   5.049   3.978
  800WAT     H2 3921   6.304   5.092   4.002
  800WAT    EPW 3922   6.237   5.059   4.026
  801WAT      O 3923   6.692   5.840   4.788
  801WAT     H1 3924   6.609   5.821   4.808
  801WAT     H2 3925   6.737   5.810   4.857
  801WAT    EPW 3926   6.686   5.833   4.801
  802WAT      O 3927   6.352   6.446   3.920
  802WAT     H1 3928   6.376   6.376   3.967
  802WAT     H2 3929   6.360   6.512   3.977
  802WAT    EPW 3930   6.357   6.445   3.936
  803WAT      O 3931   6.058   5.758   5.068
  803WAT     H1 3932   6.111   5.826   5.050
  803WAT     H2 3933   6.017   5.743   4.993
  803WAT    EPW 3934   6.060   5.766   5.055
  804WAT      O 3935   6.381   5.286   4.721
  804WAT     H1 3936   6.457   5.249   4.705
  804WAT     H2 3937   6.323   5.222   4.708
  804WAT    EPW 3938   6.383   5.271   4.717
  805WAT      O 3939   5.869   5.405   4.368
  805WAT     H1 3940   5.900   5.365   4.440
  805WAT     H2 3941   5.881   5.346   4.305
  805WAT    EPW 3942   5.875   5.390   4.370
  806WAT      O 3943   7.321   5.733   5.043
  806WAT     H1 3944   7.334   5.681   5.112
  806WAT     H2 3945   7.256   5.785   5.069
  806WAT    EPW 3946   7.313   5.733   5.057
  807WAT      O 3947   6.381   5.596   3.907
  807WAT     H1 3948   6.373   5.539   3.973
  807WAT     H2 3949   6.322   5.568   3.848
  807WAT    EPW 3950   6.371   5.583   3.908
  808WAT      O 3951   6.025   5.871   5.476
  808WAT     H1 3952   5.984   5.820   5.417
  808WAT     H2 3953   6.000   5.952   5.454
  808WAT    EPW 3954   6.015   5.876   5.464
  809WAT      O 3955   6.453   5.416   4.121
  809WAT     H1 3956   6.482   5.485   4.167
  809WAT     H2 3957   6.370   5.408   4.146
  809WAT    EPW 3958   6.445   5.425   4.131
  810WAT      O 3959   7.324   5.129   5.696
  810WAT     H1 3960   7.241   5.145   5.720
  810WAT     H2 3961   7.329   5.042   5.696
  810WAT    EPW 3962   7.313   5.119   5.700
  811WAT      O 3963   5.827   5.064   4.858
  811WAT     H1 3964   5.808   5.069   4.773
  811WAT     H2 3965   5.906   5.027   4.859
  811WAT    EPW 3966   5.836   5.060   4.845
  812WAT      O 3967   7.096   5.481   5.731
  812WAT     H1 3968   7.142   5.490   5.805
  812WAT     H2 3969   7.024   5.527   5.745
  812WAT    EPW 3970   7.092   5.489   5.744
  813WAT      O 3971   7.274   5.533   5.525
  813WAT     H1 3972   7.345   5.563   5.567
  813WAT     H2 3973   7.222   5.506   5.590
  813WAT    EPW 3974   7.277   5.533   5.541
  814WAT      O 3975   7.400   6.134   4.081
  814WAT     H1 3976   7.428   6.052   4.095
  814WAT     H2 3977   7.318   6.133   4.109
  814WAT    EPW 3978   7.392   6.122   4.087
  815WAT      O 3979   7.337   5.346   4.633
  815WAT     H1 3980   7.275   5.294   4.665
  815WAT     H2 3981   7.339   5.412   4.690
  815WAT    EPW 3982   7.328   5.348   4.646
  816WAT      O 3983   7.016   5.950   4.020
  816WAT     H1 3984   7.089   5.903   4.015
  816WAT     H2 3985   6.988   5.953   3.937
  816WAT    EPW 3986   7.023   5.944   4.007
  817WAT      O 3987   6.471   6.072   5.132
  817WAT     H1 3988   6.473   6.126   5.200
  817WAT     H2 3989   6.477   6.126   5.063
  817WAT    EPW 3990   6.472   6.088   5.132
  818WAT      O 3991   6.294   5.937   5.445
  818WAT     H1 3992   6.213   5.907   5.458
  818WAT     H2 3993   6.284   6.023   5.436
  818WAT    EPW 3994   6.281   5.945   5.445
  819WAT      O 3995   7.236   4.951   5.290
  819WAT     H1 3996   7.294   5.003   5.329
  819WAT     H2 3997   7.166   5.002   5.282
  819WAT    EPW 3998   7.234   4.966   5.295
  820WAT      O 3999   6.780   5.717   5.033
  820WAT     H1 4000   6.834   5.745   5.095
  820WAT     H2 4001   6.701   5.732   5.067
  820WAT    EPW 4002   6.776   5.723   5.048
  821WAT      O 4003   6.428   5.275   5.424
  821WAT     H1 4004   6.440   5.193   5.453
  821WAT     H2 4005   6.457   5.272   5.342
  821WAT    EPW 4006   6.434   5.262   5.416
  822WAT      O 4007   6.686   6.472   4.620
  822WAT     H1 4008   6.688   6.558   4.632
  822WAT     H2 4009   6.712   6.462   4.537
  822WAT    EPW 4010   6.690   6.483   4.610
  823WAT      O 4011   7.294   4.807   5.057
  823WAT     H1 4012   7.288   4.845   5.135
  823WAT     H2 4013   7.340   4.735   5.073
  823WAT    EPW 4014   7.300   4.802   5.071
  824WAT      O 4015   6.571   4.878   5.321
  824WAT     H1 4016   6.656   4.892   5.315
  824WAT     H2 4017   6.563   4.793   5.302
  824WAT    EPW 4018   6.582   4.867   5.317
  825WAT      O 4019   6.500   6.265   4.933
  825WAT     H1 4020   6.449   6.316   4.883
  825WAT     H2 4021   6.544   6.218   4.875
  825WAT    EPW 4022   6.499   6.266   4.917
  826WAT      O 4023   6.960   5.885   5.650
  826WAT     H1 4024   7.040   5.887   5.615
  826WAT     H2 4025   6.909   5.915   5.587
  826WAT    EPW 4026   6.965   5.889   5.636
  827WAT      O 4027   7.243   6.174   5.533
  827WAT     H1 4028   7.294   6.211   5.593
  827WAT     H2 4029   7.263   6.217   5.460
  827WAT    EPW 4030   7.254   6.186   5.531
  828WAT      O 4031   7.507   5.483   3.984
  828WAT     H1 4032   7.520   5.533   3.914
  828WAT     H2 4033   7.425   5.501   4.007
  828WAT    EPW 4034   7.497   5.493   3.977
  829WAT      O 4035   6.615   5.731   3.971
  829WAT     H1 4036   6.543   5.696   3.937
  829WAT     H2 4037   6.596   5.816   3.976
  829WAT    EPW 4038   6.602   5.739   3.967
  830WAT      O 4039   6.313   5.379   4.974
  830WAT     H1 4040   6.340   5.346   4.898
  830WAT     H2 4041   6.371   5.348   5.032
  830WAT    EPW 4042   6.326   5.370   4.972
  831WAT      O 4043   6.985   5.270   5.515
  831WAT     H1 4044   6.931   5.337   5.526
  831WAT     H2 4045   7.025   5.263   5.592
  831WAT    EPW 4046   6.983   5.279   5.528
  832WAT      O 4047   7.048   5.381   5.154
  832WAT     H1 4048   7.047   5.435   5.223
  832WAT     H2 4049   7.033   5.302   5.190
  832WAT    EPW 4050   7.045   5.377   5.170
  833WAT      O 4051   6.756   6.480   5.525
  833WAT     H1 4052   6.777   6.466   5.441
  833WAT     H2 4053   6.721   6.405   5.550
  833WAT    EPW 4054   6.754   6.467   5.516
  834WAT      O 4055   7.236   5.355   4.374
  834WAT     H1 4056   7.261   5.352   4.458
  834WAT     H2 4057   7.312   5.363   4.331
  834WAT    EPW 4058   7.251   5.356   4.380
  835WAT      O 4059   6.558   4.835   4.936
  835WAT     H1 4060   6.474   4.831   4.957
  835WAT     H2 4061   6.557   4.836   4.848
  835WAT    EPW 4062   6.545   4.835   4.926
  836WAT      O 4063   7.408   4.938   4.476
  836WAT     H1 4064   7.328   4.910   4.496
  836WAT     H2 4065   7.406   4.944   4.389
  836WAT    EPW 4066   7.396   4.935   4.466
  837WAT      O 4067   7.416   5.706   4.315
  837WAT     H1 4068   7.455   5.628   4.315
  837WAT     H2 4069   7.331   5.686   4.319
  837WAT    EPW 4070   7.409   5.691   4.316
  838WAT      O 4071   6.777   5.942   5.441
  838WAT     H1 4072   6.702   5.941   5.485
  838WAT     H2 4073   6.781   6.023   5.409
  838WAT    EPW 4074   6.767   5.954   5.443
  839WAT      O 4075   5.846   4.938   5.604
  839WAT     H1 4076   5.823   5.004   5.551
  839WAT     H2 4077   5.771   4.912   5.638
  839WAT    EPW 4078   5.832   4.944   5.601
  840WAT      O 4079   6.307   6.600   5.020
  840WAT     H1 4080   6.307   6.584   5.106
  840WAT     H2 4081   6.282   6.524   4.985
  840WAT    EPW 4082   6.304   6.586   5.027
  841WAT      O 4083   6.152   5.161   4.289
  841WAT     H1 4084   6.164   5.124   4.212
  841WAT     H2 4085   6.072   5.136   4.313
  841WAT    EPW 4086   6.142   5.152   4.281
  842WAT      O 4087   7.052   5.926   4.611
  842WAT     H1 4088   7.034   5.947   4.694
  842WAT     H2 4089   7.084   5.845   4.617
  842WAT    EPW 4090   7.054   5.917   4.624
  843WAT      O 4091   6.801   5.837   4.533
  843WAT     H1 4092   6.763   5.832   4.611
  843WAT     H2 4093   6.880   5.870   4.550
  843WAT    EPW 4094   6.807   5.841   4.547
  844WAT      O 4095   6.791   6.212   5.354
  844WAT     H1 4096   6.843   6.213   5.424
  844WAT     H2 4097   6.825   6.274   5.302
  844WAT    EPW 4098   6.804   6.221   5.356
  845WAT      O 4099   7.040   5.566   5.366
  845WAT     H1 4100   6.975   5.543   5.419
  845WAT     H2 4101   7.111   5.560   5.416
  845WAT    EPW 4102   7.041   5.561   5.381
  846WAT      O 4103   5.971   6.559   5.542
  846WAT     H1 4104   5.917   6.491   5.530
  846WAT     H2 4105   5.918   6.621   5.573
  846WAT    EPW 4106   5.955   6.558   5.545
  847WAT      O 4107   6.864   5.657   5.772
  847WAT     H1 4108   6.895   5.730   5.735
  847WAT     H2 4109   6.783   5.679   5.796
  847WAT    EPW 4110   6.856   5.671   5.770
  848WAT      O 4111   7.154   6.559   4.806
  848WAT     H1 4112   7.095   6.616   4.838
  848WAT     H2 4113   7.229   6.584   4.843
  848WAT    EPW 4114   7.156   6.571   4.816
  849WAT      O 4115   6.804   6.089   5.057
  849WAT     H1 4116   6.731   6.072   5.101
  849WAT     H2 4117   6.859   6.117   5.119
  849WAT    EPW 4118   6.801   6.091   5.073
  850WAT      O 4119   7.421   6.258   5.734
  850WAT     H1 4120   7.502   6.239   5.708
  850WAT     H2 4121   7.411   6.212   5.807
  850WAT    EPW 4122   7.431   6.249   5.741
  851WAT      O 4123   6.178   5.395   5.404
  851WAT     H1 4124   6.190   5.453   5.340
  851WAT     H2 4125   6.255   5.355   5.410
  851WAT    EPW 4126   6.191   5.398   5.396
  852WAT      O 4127   5.989   5.231   5.287
  852WAT     H1 4128   6.008   5.242   5.203
  852WAT     H2 4129   6.050   5.279   5.328
  852WAT    EPW 4130   6.001   5.240   5.281
  853WAT      O 4131   7.492   5.431   4.282
  853WAT     H1 4132   7.524   5.418   4.202
  853WAT     H2 4133   7.524   5.364   4.328
  853WAT    EPW 4134   7.502   5.419   4.277
  854WAT      O 4135   6.202   4.916   5.531
  854WAT     H1 4136   6.160   4.840   5.537
  854WAT     H2 4137   6.183   4.943   5.450
  854WAT    EPW 4138   6.193   4.909   5.520
  855WAT      O 4139   6.880   6.191   4.468
  855WAT     H1 4140   6.870   6.267   4.426
  855WAT     H2 4141   6.816   6.141   4.436
  855WAT    EPW 4142   6.869   6.195   4.457
  856WAT      O 4143   7.383   5.578   5.270
  856WAT     H1 4144   7.428   5.509   5.243
  856WAT     H2 4145   7.340   5.548   5.340
  856WAT    EPW 4146   7.383   5.563   5.276
  857WAT      O 4147   5.889   5.719   5.285
  857WAT     H1 4148   5.936   5.737   5.214
  857WAT     H2 4149   5.867   5.635   5.275
  857WAT    EPW 4150   5.892   5.710   5.273
  858WAT      O 4151   6.056   5.318   3.932
  858WAT     H1 4152   5.985   5.312   3.981
  858WAT     H2 4153   6.061   5.240   3.893
  858WAT    EPW 4154   6.046   5.305   3.934
  859WAT      O 4155   6.931   4.957   5.607
  859WAT     H1 4156   6.960   5.029   5.647
  859WAT     H2 4157   6.850   4.947   5.638
  859WAT    EPW 4158   6.923   4.966   5.618
  860WAT      O 4159   6.894   5.045   4.667
  860WAT     H1 4160   6.814   5.081   4.668
  860WAT     H2 4161   6.887   4.984   4.606
  860WAT    EPW 4162   6.881   5.042   4.658
  861WAT      O 4163   6.381   6.208   4.078
  861WAT     H1 4164   6.418   6.204   4.157
  861WAT     H2 4165   6.298   6.186   4.093
  861WAT    EPW 4166   6.374   6.204   4.092
  862WAT      O 4167   7.209   5.067   4.944
  862WAT     H1 4168   7.261   5.006   4.978
  862WAT     H2 4169   7.239   5.141   4.979
  862WAT    EPW 4170   7.221   5.069   4.954
  863WAT      O 4171   6.413   5.690   5.366
  863WAT     H1 4172   6.374   5.763   5.393
  863WAT     H2 4173   6.353   5.652   5.315
  863WAT    EPW 4174   6.398   5.695   5.363
  864WAT      O 4175   7.289   5.555   4.823
  864WAT     H1 4176   7.304   5.616   4.883
  864WAT     H2 4177   7.243   5.597   4.762
  864WAT    EPW 4178   7.284   5.570   4.823
  865WAT      O 4179   7.286   6.383   4.438
  865WAT     H1 4180   7.257   6.302   4.447
  865WAT     H2 4181   7.336   6.379   4.366
  865WAT    EPW 4182   7.289   6.371   4.428
  866WAT      O 4183   6.126   6.121   4.139
  866WAT     H1 4184   6.125   6.103   4.225
  866WAT     H2 4185   6.139   6.043   4.102
  866WAT    EPW 4186   6.128   6.107   4.146
  867WAT      O 4187   6.441   5.963   3.949
  867WAT     H1 4188   6.364   5.926   3.965
  867WAT     H2 4189   6.435   6.042   3.987
  867WAT    EPW 4190   6.429   5.969   3.957
  868WAT      O 4191   6.394   5.030   5.167
  868WAT     H1 4192   6.314   5.008   5.194
  868WAT     H2 4193   6.446   4.973   5.208
  868WAT    EPW 4194   6.390   5.018   5.177
  869WAT      O 4195   6.753   5.016   5.026
  869WAT     H1 4196   6.689   4.961   5.005
  869WAT     H2 4197   6.825   4.975   4.998
  869WAT    EPW 4198   6.754   5.002   5.019
  870WAT      O 4199   7.058   6.195   5.167
  870WAT     H1 4200   7.114   6.242   5.215
  870WAT     H2 4201   7.063   6.231   5.088
  870WAT    EPW 4202   7.067   6.208   5.163
  871WAT      O 4203   7.017   6.549   5.599
  871WAT     H1 4204   6.941   6.518   5.572
  871WAT     H2 4205   7.000   6.633   5.617
  871WAT    EPW 4206   7.004   6.557   5.598
  872WAT      O 4207   6.552   5.498   5.532
  872WAT     H1 4208   6.514   5.427   5.498
  872WAT     H2 4209   6.512   5.564   5.491
  872WAT    EPW 4210   6.540   5.497   5.521
  873WAT      O 4211   6.639   4.857   4.037
  873WAT     H1 4212   6.651   4.863   3.950
  873WAT     H2 4213   6.552   4.853   4.045
  873WAT    EPW 4214   6.628   4.857   4.025
  874WAT      O 4215   7.479   5.944   5.147
  874WAT     H1 4216   7.445   5.877   5.102
  874WAT     H2 4217   7.465   6.013   5.095
  874WAT    EPW 4218   7.472   5.944   5.133
  875WAT      O 4219   6.422   6.466   5.544
  875WAT     H1 4220   6.408   6.475   5.630
  875WAT     H2 4221   6.481   6.402   5.540
  875WAT    EPW 4222   6.429   6.458   5.556
  876WAT      O 4223   7.401   6.382   5.049
  876WAT     H1 4224   7.472   6.392   5.000
  876WAT     H2 4225   7.367   6.306   5.022
  876WAT    EPW 4226   7.406   6.372   5.038
  877WAT      O 4227   6.137   4.991   5.274
  877WAT     H1 4228   6.085   4.924   5.254
  877WAT     H2 4229   6.084   5.060   5.273
  877WAT    EPW 4230   6.122   4.991   5.271
  878WAT      O 4231   6.979   4.916   4.896
  878WAT     H1 4232   7.044   4.968   4.922
  878WAT     H2 4233   6.949   4.954   4.824
  878WAT    EPW 4234   6.984   4.929   4.890
  879WAT      O 4235   6.135   6.361   5.672
  879WAT     H1 4236   6.205   6.395   5.712
  879WAT     H2 4237   6.097   6.430   5.634
  879WAT    EPW 4238   6.140   6.376   5.672
  880WAT      O 4239   6.975   5.438   4.689
  880WAT     H1 4240   7.024   5.367   4.701
  880WAT     H2 4241   6.942   5.454   4.769
  880WAT    EPW 4242   6.977   5.430   4.703
  881WAT      O 4243   5.984   5.314   4.610
  881WAT     H1 4244   5.942   5.334   4.684
  881WAT     H2 4245   6.027   5.240   4.631
  881WAT    EPW 4246   5.984   5.306   4.624
  882WAT      O 4247   5.986   6.135   5.390
  882WAT     H1 4248   5.935   6.197   5.426
  882WAT     H2 4249   6.066   6.169   5.396
  882WAT    EPW 4250   5.990   6.149   5.396
  883WAT      O 4251   7.153   5.607   4.319
  883WAT     H1 4252   7.168   5.523   4.337
  883WAT     H2 4253   7.077   5.606   4.275
  883WAT    EPW 4254   7.144   5.595   4.315
  884WAT      O 4255   6.154   6.457   4.274
  884WAT     H1 4256   6.126   6.458   4.191
  884WAT     H2 4257   6.240   6.444   4.266
  884WAT    EPW 4258   6.163   6.455   4.261
  885WAT      O 4259   6.546   5.652   4.228
  885WAT     H1 4260   6.575   5.685   4.153
  885WAT     H2 4261   6.619   5.641   4.275
  885WAT    EPW 4262   6.561   5.655   4.224
  886WAT      O 4263   7.416   6.499   3.975
  886WAT     H1 4264   7.445   6.466   4.051
  886WAT     H2 4265   7.411   6.430   3.923
  886WAT    EPW 4266   7.420   6.484   3.979
  887WAT      O 4267   7.516   5.653   5.625
  887WAT     H1 4268   7.591   5.625   5.592
  887WAT     H2 4269   7.495   5.721   5.575
  887WAT    EPW 4270   7.524   5.659   5.613
  888WAT      O 4271   7.143   6.153   4.177
  888WAT     H1 4272   7.146   6.130   4.261
  888WAT     H2 4273   7.091   6.093   4.140
  888WAT    EPW 4274   7.136   6.141   4.184
  889WAT      O 4275   7.494   5.199   5.909
  889WAT     H1 4276   7.509   5.284   5.893
  889WAT     H2 4277   7.445   5.174   5.841
  889WAT    EPW 4278   7.489   5.208   5.896
  890WAT      O 4279   7.496   5.342   5.179
  890WAT     H1 4280   7.431   5.332   5.122
  890WAT     H2 4281   7.566   5.314   5.136
  890WAT    EPW 4282   7.496   5.337   5.164
  891WAT      O 4283   6.462   5.010   5.536
  891WAT     H1 4284   6.496   4.974   5.464
  891WAT     H2 4285   6.382   4.976   5.541
  891WAT    EPW 4286   6.455   5.000   5.526
  892WAT      O 4287   7.251   5.818   5.850
  892WAT     H1 4288   7.329   5.842   5.881
  892WAT     H2 4289   7.255   5.841   5.766
  892WAT    EPW 4290   7.263   5.825   5.843
  893WAT      O 4291   6.181   6.365   4.920
  893WAT     H1 4292   6.172   6.287   4.882
  893WAT     H2 4293   6.142   6.420   4.864
  893WAT    EPW 4294   6.174   6.362   4.906
  894WAT      O 4295   6.751   5.986   4.105
  894WAT     H1 4296   6.835   5.966   4.088
  894WAT     H2 4297   6.738   6.059   4.061
  894WAT    EPW 4298   6.762   5.994   4.096
  895WAT      O 4299   5.947   6.614   5.265
  895WAT     H1 4300   5.957   6.596   5.350
  895WAT     H2 4301   5.979   6.544   5.225
  895WAT    EPW 4302   5.953   6.601   5.271
  896WAT      O 4303   6.880   4.827   2.585
  896WAT     H1 4304   6.867   4.867   2.509
  896WAT     H2 4305   6.966   4.816   2.589
  896WAT    EPW 4306   6.891   4.831   2.574
  897WAT      O 4307   6.875   5.466   3.050
  897WAT     H1 4308   6.844   5.544   3.076
  897WAT     H2 4309   6.931   5.445   3.113
  897WAT    EPW 4310   6.878   5.475   3.063
  898WAT      O 4311   5.863   5.950   2.560
  898WAT     H1 4312   5.837   5.953   2.643
  898WAT     H2 4313   5.856   5.865   2.540
  898WAT    EPW 4314   5.858   5.938   2.569
  899WAT      O 4315   7.471   6.364   2.319
  899WAT     H1 4316   7.549   6.354   2.357
  899WAT     H2 4317   7.455   6.286   2.283
  899WAT    EPW 4318   7.480   6.351   2.319
  900WAT      O 4319   5.850   5.281   2.215
  900WAT     H1 4320   5.784   5.328   2.183
  900WAT     H2 4321   5.824   5.199   2.205
  900WAT    EPW 4322   5.837   5.276   2.209
  901WAT      O 4323   6.167   5.880   2.120
  901WAT     H1 4324   6.131   5.839   2.052
  901WAT     H2 4325   6.167   5.819   2.182
  901WAT    EPW 4326   6.161   5.865   2.119
  902WAT      O 4327   7.130   5.656   2.703
  902WAT     H1 4328   7.137   5.647   2.617
  902WAT     H2 4329   7.073   5.594   2.726
  902WAT    EPW 4330   7.123   5.646   2.694
  903WAT      O 4331   6.112   6.059   2.513
  903WAT     H1 4332   6.166   6.021   2.570
  903WAT     H2 4333   6.036   6.020   2.528
  903WAT    EPW 4334   6.109   6.048   2.524
  904WAT      O 4335   6.517   4.920   2.504
  904WAT     H1 4336   6.548   4.974   2.444
  904WAT     H2 4337   6.521   4.842   2.466
  904WAT    EPW 4338   6.522   4.916   2.490
  905WAT      O 4339   5.990   6.335   2.112
  905WAT     H1 4340   6.037   6.342   2.039
  905WAT     H2 4341   6.027   6.268   2.154
  905WAT    EPW 4342   6.002   6.326   2.107
  906WAT      O 4343   5.864   6.168   3.235
  906WAT     H1 4344   5.896   6.143   3.312
  906WAT     H2 4345   5.793   6.117   3.225
  906WAT    EPW 4346   5.858   6.157   3.245
  907WAT      O 4347   6.533   5.989   3.684
  907WAT     H1 4348   6.512   5.976   3.768
  907WAT     H2 4349   6.460   5.969   3.641
  907WAT    EPW 4350   6.519   5.984   3.690
  908WAT      O 4351   6.052   5.690   2.699
  908WAT     H1 4352   6.006   5.692   2.625
  908WAT     H2 4353   6.107   5.623   2.688
  908WAT    EPW 4354   6.054   5.681   2.687
  909WAT      O 4355   6.480   5.261   3.249
  909WAT     H1 4356   6.549   5.269   3.196
  909WAT     H2 4357   6.461   5.176   3.245
  909WAT    EPW 4358   6.488   5.250   3.240
  910WAT      O 4359   6.512   6.272   3.418
  910WAT     H1 4360   6.521   6.338   3.362
  910WAT     H2 4361   6.594   6.254   3.442
  910WAT    EPW 4362   6.526   6.279   3.414
  911WAT      O 4363   6.220   5.473   2.686
  911WAT     H1 4364   6.286   5.420   2.709
  911WAT     H2 4365   6.152   5.419   2.683
  911WAT    EPW 4366   6.220   5.457   2.689
  912WAT      O 4367   6.623   6.106   2.843
  912WAT     H1 4368   6.647   6.024   2.861
  912WAT     H2 4369   6.699   6.149   2.840
  912WAT    EPW 4370   6.638   6.100   2.845
  913WAT      O 4371   6.679   6.023   2.470
  913WAT     H1 4372   6.711   5.958   2.520
  913WAT     H2 4373   6.706   6.002   2.390
  913WAT    EPW 4374   6.687   6.010   2.466
  914WAT      O 4375   6.825   5.508   3.634
  914WAT     H1 4376   6.739   5.503   3.621
  914WAT     H2 4377   6.831   5.554   3.708
  914WAT    EPW 4378   6.813   5.514   3.643
  915WAT      O 4379   6.248   4.971   2.537
  915WAT     H1 4380   6.227   5.041   2.488
  915WAT     H2 4381   6.334   4.965   2.527
  915WAT    EPW 4382   6.257   4.980   2.528
  916WAT      O 4383   7.245   4.720   3.556
  916WAT     H1 4384   7.234   4.794   3.511
  916WAT     H2 4385   7.170   4.712   3.600
  916WAT    EPW 4386   7.232   4.730   3.556
  917WAT      O 4387   6.531   4.931   2.785
  917WAT     H1 4388   6.564   5.011   2.797
  917WAT     H2 4389   6.533   4.920   2.699
  917WAT    EPW 4390   6.536   4.941   2.774
  918WAT      O 4391   7.046   5.160   1.983
  918WAT     H1 4392   6.997   5.223   2.019
  918WAT     H2 4393   7.052   5.100   2.047
  918WAT    EPW 4394   7.039   5.160   1.998
  919WAT      O 4395   5.875   5.440   2.940
  919WAT     H1 4396   5.880   5.527   2.944
  919WAT     H2 4397   5.806   5.421   2.989
  919WAT    EPW 4398   5.866   5.450   2.948
  920WAT      O 4399   5.856   6.393   2.766
  920WAT     H1 4400   5.793   6.442   2.731
  920WAT     H2 4401   5.897   6.360   2.696
  920WAT    EPW 4402   5.853   6.396   2.750
  921WAT      O 4403   6.443   6.161   2.456
  921WAT     H1 4404   6.410   6.160   2.536
  921WAT     H2 4405   6.521   6.124   2.465
  921WAT    EPW 4406   6.450   6.155   2.469
  922WAT      O 4407   7.043   6.413   2.265
  922WAT     H1 4408   7.107   6.472   2.270
  922WAT     H2 4409   7.084   6.337   2.275
  922WAT    EPW 4410   7.059   6.410   2.267
  923WAT      O 4411   6.844   6.442   2.452
  923WAT     H1 4412   6.864   6.516   2.493
  923WAT     H2 4413   6.909   6.433   2.394
  923WAT    EPW 4414   6.856   6.452   2.449
  924WAT      O 4415   6.109   4.910   2.954
  924WAT     H1 4416   6.034   4.938   2.987
  924WAT     H2 4417   6.153   4.880   3.023
  924WAT    EPW 4418   6.105   4.910   2.969
  925WAT      O 4419   6.472   5.138   3.903
  925WAT     H1 4420   6.475   5.100   3.824
  925WAT     H2 4421   6.518   5.211   3.892
  925WAT    EPW 4422   6.479   5.143   3.889
  926WAT      O 4423   5.991   6.308   2.534
  926WAT     H1 4424   6.041   6.238   2.544
  926WAT     H2 4425   6.040   6.361   2.486
  926WAT    EPW 4426   6.005   6.305   2.529
  927WAT      O 4427   7.503   5.200   2.558
  927WAT     H1 4428   7.465   5.244   2.623
  927WAT     H2 4429   7.480   5.117   2.572
  927WAT    EPW 4430   7.494   5.194   2.569
  928WAT      O 4431   7.065   6.503   3.206
  928WAT     H1 4432   7.128   6.561   3.189
  928WAT     H2 4433   7.064   6.452   3.136
  928WAT    EPW 4434   7.074   6.504   3.194
  929WAT      O 4435   6.057   5.054   3.823
  929WAT     H1 4436   5.978   5.022   3.808
  929WAT     H2 4437   6.105   5.022   3.757
  929WAT    EPW 4438   6.053   5.045   3.811
  930WAT      O 4439   6.142   6.120   2.890
  930WAT     H1 4440   6.203   6.115   2.828
  930WAT     H2 4441   6.172   6.067   2.952
  930WAT    EPW 4442   6.155   6.111   2.890
  931WAT      O 4443   6.420   6.432   2.800
  931WAT     H1 4444   6.500   6.450   2.772
  931WAT     H2 4445   6.369   6.483   2.750
  931WAT    EPW 4446   6.424   6.442   2.788
  932WAT      O 4447   6.671   4.871   3.764
  932WAT     H1 4448   6.685   4.797   3.720
  932WAT     H2 4449   6.603   4.906   3.724
  932WAT    EPW 4450   6.663   4.865   3.752
  933WAT      O 4451   6.765   5.375   2.617
  933WAT     H1 4452   6.795   5.330   2.549
  933WAT     H2 4453   6.836   5.392   2.664
  933WAT    EPW 4454   6.780   5.371   2.614
  934WAT      O 4455   6.861   5.336   2.121
  934WAT     H1 4456   6.886   5.415   2.148
  934WAT     H2 4457   6.786   5.351   2.080
  934WAT    EPW 4458   6.854   5.350   2.119
  935WAT      O 4459   7.233   6.619   2.246
  935WAT     H1 4460   7.281   6.586   2.181
  935WAT     H2 4461   7.288   6.676   2.284
  935WAT    EPW 4462   7.248   6.623   2.242
  936WAT      O 4463   6.298   6.513   3.392
  936WAT     H1 4464   6.328   6.498   3.472
  936WAT     H2 4465   6.233   6.456   3.383
  936WAT    EPW 4466   6.293   6.503   3.403
  937WAT      O 4467   5.775   5.165   3.556
  937WAT     H1 4468   5.773   5.238   3.605
  937WAT     H2 4469   5.834   5.183   3.495
  937WAT    EPW 4470   5.783   5.179   3.554
  938WAT      O 4471   6.967   6.206   3.663
  938WAT     H1 4472   6.965   6.243   3.742
  938WAT     H2 4473   7.053   6.195   3.648
  938WAT    EPW 4474   6.980   6.210   3.673
  939WAT      O 4475   6.733   6.231   2.070
  939WAT     H1 4476   6.701   6.290   2.126
  939WAT     H2 4477   6.810   6.264   2.048
  939WAT    EPW 4478   6.740   6.244   2.075
  940WAT      O 4479   7.063   4.981   2.193
  940WAT     H1 4480   7.116   4.912   2.197
  940WAT     H2 4481   7.083   5.027   2.264
  940WAT    EPW 4482   7.073   4.977   2.204
  941WAT      O 4483   5.918   5.051   2.507
  941WAT     H1 4484   5.880   4.977   2.481
  941WAT     H2 4485   5.867   5.079   2.572
  941WAT    EPW 4486   5.905   5.044   2.512
  942WAT      O 4487   6.060   6.378   3.269
  942WAT     H1 4488   5.998   6.317   3.262
  942WAT     H2 4489   6.100   6.375   3.192
  942WAT    EPW 4490   6.057   6.369   3.257
  943WAT      O 4491   6.832   5.235   2.382
  943WAT     H1 4492   6.766   5.179   2.370
  943WAT     H2 4493   6.845   5.269   2.303
  943WAT    EPW 4494   6.824   5.232   2.369
  944WAT      O 4495   6.842   6.479   3.360
  944WAT     H1 4496   6.914   6.484   3.311
  944WAT     H2 4497   6.778   6.475   3.300
  944WAT    EPW 4498   6.843   6.479   3.344
  945WAT      O 4499   6.833   4.907   2.328
  945WAT     H1 4500   6.769   4.903   2.269
  945WAT     H2 4501   6.903   4.929   2.281
  945WAT    EPW 4502   6.834   4.909   2.313
  946WAT      O 4503   7.433   6.510   2.765
  946WAT     H1 4504   7.450   6.584   2.722
  946WAT     H2 4505   7.396   6.459   2.704
  946WAT    EPW 4506   7.430   6.513   2.749
  947WAT      O 4507   6.644   5.191   2.790
  947WAT     H1 4508   6.674   5.253   2.737
  947WAT     H2 4509   6.659   5.223   2.870
  947WAT    EPW 4510   6.651   5.204   2.794
  948WAT      O 4511   7.202   6.111   2.546
  948WAT     H1 4512   7.271   6.058   2.555
  948WAT     H2 4513   7.141   6.073   2.595
  948WAT    EPW 4514   7.203   6.097   2.554
  949WAT      O 4515   6.250   6.220   3.539
  949WAT     H1 4516   6.327   6.252   3.511
  949WAT     H2 4517   6.236   6.263   3.614
  949WAT    EPW 4518   6.260   6.231   3.546
  950WAT      O 4519   6.434   5.784   2.985
  950WAT     H1 4520   6.458   5.768   3.067
  950WAT     H2 4521   6.377   5.720   2.967
  950WAT    EPW 4522   6.429   5.772   2.994
  951WAT      O 4523   7.015   5.135   3.378
  951WAT     H1 4524   7.007   5.172   3.456
  951WAT     H2 4525   6.949   5.077   3.376
  951WAT    EPW 4526   7.004   5.132   3.389
  952WAT      O 4527   6.532   5.793   3.243
  952WAT     H1 4528   6.518   5.879   3.250
  952WAT     H2 4529   6.502   5.761   3.319
  952WAT    EPW 4530   6.526   5.801   3.256
  953WAT      O 4531   7.129   5.931   3.220
  953WAT     H1 4532   7.071   5.882   3.264
  953WAT     H2 4533   7.113   6.012   3.247
  953WAT    EPW 4534   7.118   5.935   3.230
  954WAT      O 4535   7.147   4.773   2.616
  954WAT     H1 4536   7.148   4.753   2.701
  954WAT     H2 4537   7.184   4.703   2.578
  954WAT    EPW 4538   7.153   4.759   2.623
  955WAT      O 4539   5.793   6.204   3.862
  955WAT     H1 4540   5.852   6.251   3.907
  955WAT     H2 4541   5.798   6.125   3.899
  955WAT    EPW 4542   5.803   6.199   3.874
  956WAT      O 4543   7.399   5.134   3.526
  956WAT     H1 4544   7.435   5.210   3.504
  956WAT     H2 4545   7.380   5.144   3.611
  956WAT    EPW 4546   7.401   5.146   3.535
  957WAT      O 4547   6.169   5.106   2.768
  957WAT     H1 4548   6.191   5.060   2.697
  957WAT     H2 4549   6.155   5.046   2.829
  957WAT    EPW 4550   6.171   5.090   2.767
  958WAT      O 4551   7.485   5.867   2.197
  958WAT     H1 4552   7.465   5.819   2.267
  958WAT     H2 4553   7.564   5.838   2.174
  958WAT    EPW 4554   7.494   5.855   2.204
  959WAT      O 4555   6.245   5.890   2.690
  959WAT     H1 4556   6.297   5.856   2.628
  959WAT     H2 4557   6.184   5.830   2.701
  959WAT    EPW 4558   6.244   5.876   2.682
  960WAT      O 4559   6.066   6.549   2.852
  960WAT     H1 4560   5.993   6.510   2.827
  960WAT     H2 4561   6.113   6.554   2.779
  960WAT    EPW 4562   6.062   6.544   2.838
  961WAT      O 4563   6.023   5.261   3.088
  961WAT     H1 4564   6.108   5.278   3.080
  961WAT     H2 4565   5.985   5.327   3.047
  961WAT    EPW 4566   6.030   5.273   3.081
  962WAT      O 4567   7.248   5.560   2.146
  962WAT     H1 4568   7.246   5.641   2.114
  962WAT     H2 4569   7.215   5.568   2.226
  962WAT    EPW 4570   7.243   5.573   2.153
  963WAT      O 4571   6.379   5.823   2.451
  963WAT     H1 4572   6.413   5.901   2.434
  963WAT     H2 4573   6.438   5.767   2.421
  963WAT    EPW 4574   6.392   5.826   2.444
  964WAT      O 4575   5.884   6.006   2.851
  964WAT     H1 4576   5.831   6.067   2.885
  964WAT     H2 4577   5.963   6.043   2.856
  964WAT    EPW 4578   5.888   6.021   2.857
  965WAT      O 4579   6.616   5.379   3.889
  965WAT     H1 4580   6.565   5.410   3.952
  965WAT     H2 4581   6.592   5.425   3.819
  965WAT    EPW 4582   6.605   5.390   3.888
  966WAT      O 4583   5.916   5.689   2.461
  966WAT     H1 4584   5.898   5.604   2.459
  966WAT     H2 4585   5.987   5.697   2.411
  966WAT    EPW 4586   5.923   5.678   2.454
  967WAT      O 4587   7.427   4.970   2.304
  967WAT     H1 4588   7.499   4.954   2.258
  967WAT     H2 4589   7.408   5.053   2.286
  967WAT    EPW 4590   7.435   4.980   2.295
  968WAT      O 4591   6.851   6.266   2.831
  968WAT     H1 4592   6.805   6.338   2.813
  968WAT     H2 4593   6.874   6.236   2.752
  968WAT    EPW 4594   6.848   6.272   2.817
  969WAT      O 4595   5.820   6.152   2.380
  969WAT     H1 4596   5.874   6.209   2.419
  969WAT     H2 4597   5.816   6.086   2.437
  969WAT    EPW 4598   5.828   6.151   2.394
  970WAT      O 4599   6.248   5.959   3.090
  970WAT     H1 4600   6.301   6.000   3.146
  970WAT     H2 4601   6.303   5.909   3.044
  970WAT    EPW 4602   6.264   5.958   3.092
  971WAT      O 4603   7.112   5.200   2.814
  971WAT     H1 4604   7.145   5.158   2.883
  971WAT     H2 4605   7.050   5.147   2.785
  971WAT    EPW 4606   7.108   5.186   2.820
  972WAT      O 4607   5.835   5.992   2.148
  972WAT     H1 4608   5.910   5.948   2.145
  972WAT     H2 4609   5.844   6.044   2.217
  972WAT    EPW 4610   5.847   5.993   2.158
  973WAT      O 4611   5.904   5.739   2.927
  973WAT     H1 4612   5.955   5.718   2.859
  973WAT     H2 4613   5.894   5.825   2.917
  973WAT    EPW 4614   5.910   5.749   2.915
  974WAT      O 4615   6.583   5.115   2.309
  974WAT     H1 4616   6.583   5.086   2.227
  974WAT     H2 4617   6.549   5.195   2.302
  974WAT    EPW 4618   6.578   5.123   2.296
  975WAT      O 4619   7.275   6.329   3.400
  975WAT     H1 4620   7.268   6.406   3.441
  975WAT     H2 4621   7.324   6.347   3.331
  975WAT    EPW 4622   7.281   6.343   3.396
  976WAT      O 4623   6.372   6.174   2.722
  976WAT     H1 4624   6.381   6.258   2.746
  976WAT     H2 4625   6.442   6.135   2.756
  976WAT    EPW 4626   6.384   6.181   2.731
  977WAT      O 4627   6.162   5.503   3.750
  977WAT     H1 4628   6.124   5.443   3.801
  977WAT     H2 4629   6.157   5.468   3.670
  977WAT    EPW 4630   6.156   5.489   3.746
  978WAT      O 4631   6.204   5.423   2.249
  978WAT     H1 4632   6.182   5.365   2.311
  978WAT     H2 4633   6.161   5.394   2.179
  978WAT    EPW 4634   6.194   5.410   2.248
  979WAT      O 4635   6.246   5.588   2.944
  979WAT     H1 4636   6.237   5.564   2.860
  979WAT     H2 4637   6.261   5.512   2.985
  979WAT    EPW 4638   6.247   5.573   2.938
  980WAT      O 4639   6.223   5.571   3.287
  980WAT     H1 4640   6.253   5.523   3.220
  980WAT     H2 4641   6.171   5.630   3.248
  980WAT    EPW 4642   6.220   5.573   3.271
  981WAT      O 4643   7.281   5.336   3.104
  981WAT     H1 4644   7.210   5.355   3.152
  981WAT     H2 4645   7.282   5.399   3.044
  981WAT    EPW 4646   7.270   5.348   3.102
  982WAT      O 4647   6.614   6.451   3.206
  982WAT     H1 4648   6.590   6.388   3.150
  982WAT     H2 4649   6.603   6.524   3.159
  982WAT    EPW 4650   6.609   6.453   3.191
  983WAT      O 4651   6.845   4.917   3.443
  983WAT     H1 4652   6.868   4.836   3.420
  983WAT     H2 4653   6.879   4.927   3.523
  983WAT    EPW 4654   6.853   4.907   3.451
  984WAT      O 4655   7.088   5.127   2.423
  984WAT     H1 4656   7.137   5.197   2.439
  984WAT     H2 4657   7.007   5.159   2.420
  984WAT    EPW 4658   7.083   5.142   2.425
  985WAT      O 4659   6.039   5.742   3.821
  985WAT     H1 4660   6.033   5.790   3.748
  985WAT     H2 4661   6.084   5.672   3.795
  985WAT    EPW 4662   6.045   5.739   3.806
  986WAT      O 4663   7.234   5.903   3.680
  986WAT     H1 4664   7.237   5.988   3.665
  986WAT     H2 4665   7.286   5.869   3.619
  986WAT    EPW 4666   7.242   5.910   3.669
  987WAT      O 4667   6.611   6.258   3.720
  987WAT     H1 4668   6.642   6.251   3.801
  987WAT     H2 4669   6.587   6.177   3.699
  987WAT    EPW 4670   6.612   6.245   3.729
  988WAT      O 4671   6.680   5.269   3.053
  988WAT     H1 4672   6.743   5.329   3.058
  988WAT     H2 4673   6.718   5.196   3.080
  988WAT    EPW 4674   6.695   5.267   3.057
  989WAT      O 4675   6.934   5.581   2.242
  989WAT     H1 4676   6.908   5.631   2.175
  989WAT     H2 4677   6.874   5.598   2.304
  989WAT    EPW 4678   6.921   5.591   2.241
  990WAT      O 4679   7.424   5.943   2.566
  990WAT     H1 4680   7.464   5.927   2.641
  990WAT     H2 4681   7.427   5.866   2.524
  990WAT    EPW 4682   7.430   5.929   2.571
  991WAT      O 4683   7.074   6.304   3.000
  991WAT     H1 4684   7.004   6.279   2.955
  991WAT     H2 4685   7.105   6.372   2.954
  991WAT    EPW 4686   7.069   6.310   2.986
  992WAT      O 4687   6.990   5.975   2.979
  992WAT     H1 4688   6.920   6.013   3.015
  992WAT     H2 4689   7.035   5.946   3.048
  992WAT    EPW 4690   6.986   5.977   2.995
  993WAT      O 4691   6.429   6.434   2.396
  993WAT     H1 4692   6.435   6.354   2.431
  993WAT     H2 4693   6.499   6.438   2.344
  993WAT    EPW 4694   6.440   6.422   2.394
  994WAT      O 4695   6.363   4.817   2.172
  994WAT     H1 4696   6.354   4.786   2.254
  994WAT     H2 4697   6.314   4.889   2.172
  994WAT    EPW 4698   6.354   4.823   2.184
  995WAT      O 4699   6.658   6.432   2.244
  995WAT     H1 4700   6.717   6.439   2.308
  995WAT     H2 4701   6.662   6.509   2.203
  995WAT    EPW 4702   6.667   6.444   2.248
  996WAT      O 4703   7.434   5.818   3.500
  996WAT     H1 4704   7.422   5.743   3.456
  996WAT     H2 4705   7.455   5.875   3.438
  996WAT    EPW 4706   7.436   5.815   3.484
  997WAT      O 4707   6.970   6.357   3.901
  997WAT     H1 4708   6.997   6.379   3.981
  997WAT     H2 4709   6.995   6.425   3.852
  997WAT    EPW 4710   6.978   6.370   3.906
  998WAT      O 4711   7.341   4.851   3.790
  998WAT     H1 4712   7.324   4.807   3.717
  998WAT     H2 4713   7.373   4.790   3.844
  998WAT    EPW 4714   7.343   4.836   3.787
  999WAT      O 4715   6.159   5.696   2.327
  999WAT     H1 4716   6.180   5.613   2.314
  999WAT     H2 4717   6.226   5.727   2.373
  999WAT    EPW 4718   6.172   5.689   2.332
 1000WAT      O 4719   6.933   5.794   3.354
 1000WAT     H1 4720   6.882   5.831   3.415
 1000WAT     H2 4721   6.965   5.724   3.394
 1000WAT    EPW 4722   6.930   5.789   3.369
 1001WAT      O 4723   5.849   4.770   2.445
 1001WAT     H1 4724   5.840   4.724   2.371
 1001WAT     H2 4725   5.799   4.727   2.502
 1001WAT    EPW 4726   5.840   4.757   2.442
 1002WAT      O 4727   6.778   5.614   2.470
 1002WAT     H1 4728   6.788   5.680   2.526
 1002WAT     H2 4729   6.768   5.545   2.522
 1002WAT    EPW 4730   6.778   5.613   2.486
 1003WAT      O 4731   7.297   6.128   3.069
 1003WAT     H1 4732   7.233   6.162   3.020
 1003WAT     H2 4733   7.259   6.059   3.107
 1003WAT    EPW 4734   7.282   6.123   3.067
 1004WAT      O 4735   6.232   5.059   2.151
 1004WAT     H1 4736   6.174   5.055   2.085
 1004WAT     H2 4737   6.303   5.094   2.114
 1004WAT    EPW 4738   6.234   5.064   2.136
 1005WAT      O 4739   6.688   5.838   2.889
 1005WAT     H1 4740   6.606   5.815   2.909
 1005WAT     H2 4741   6.734   5.810   2.958
 1005WAT    EPW 4742   6.682   5.830   2.902
 1006WAT      O 4743   6.354   6.444   2.020
 1006WAT     H1 4744   6.379   6.374   2.065
 1006WAT     H2 4745   6.361   6.510   2.077
 1006WAT    EPW 4746   6.359   6.444   2.035
 1007WAT      O 4747   6.060   5.765   3.165
 1007WAT     H1 4748   6.113   5.831   3.147
 1007WAT     H2 4749   6.019   5.750   3.089
 1007WAT    EPW 4750   6.062   5.773   3.151
 1008WAT      O 4751   6.378   5.281   2.818
 1008WAT     H1 4752   6.457   5.249   2.802
 1008WAT     H2 4753   6.324   5.215   2.799
 1008WAT    EPW 4754   6.381   5.267   2.813
 1009WAT      O 4755   5.879   5.413   2.465
 1009WAT     H1 4756   5.912   5.371   2.534
 1009WAT     H2 4757   5.888   5.356   2.399
 1009WAT    EPW 4758   5.885   5.399   2.465
 1010WAT      O 4759   7.321   5.732   3.142
 1010WAT     H1 4760   7.334   5.680   3.210
 1010WAT     H2 4761   7.256   5.784   3.168
 1010WAT    EPW 4762   7.313   5.732   3.156
 1011WAT      O 4763   6.375   5.562   2.037
 1011WAT     H1 4764   6.328   5.535   2.105
 1011WAT     H2 4765   6.323   5.547   1.969
 1011WAT    EPW 4766   6.360   5.556   2.037
 1012WAT      O 4767   6.023   5.885   3.585
 1012WAT     H1 4768   5.984   5.837   3.524
 1012WAT     H2 4769   5.999   5.967   3.565
 1012WAT    EPW 4770   6.014   5.890   3.573
 1013WAT      O 4771   6.479   5.372   2.271
 1013WAT     H1 4772   6.504   5.451   2.299
 1013WAT     H2 4773   6.392   5.378   2.268
 1013WAT    EPW 4774   6.470   5.385   2.274
 1014WAT      O 4775   7.322   5.128   3.799
 1014WAT     H1 4776   7.240   5.144   3.823
 1014WAT     H2 4777   7.327   5.040   3.798
 1014WAT    EPW 4778   7.311   5.117   3.802
 1015WAT      O 4779   5.864   5.049   2.982
 1015WAT     H1 4780   5.828   5.070   2.905
 1015WAT     H2 4781   5.909   5.121   3.004
 1015WAT    EPW 4782   5.865   5.063   2.974
 1016WAT      O 4783   7.095   5.480   3.828
 1016WAT     H1 4784   7.140   5.488   3.902
 1016WAT     H2 4785   7.022   5.527   3.843
 1016WAT    EPW 4786   7.091   5.488   3.841
 1017WAT      O 4787   7.276   5.535   3.625
 1017WAT     H1 4788   7.346   5.566   3.667
 1017WAT     H2 4789   7.223   5.508   3.689
 1017WAT    EPW 4790   7.278   5.535   3.640
 1018WAT      O 4791   7.402   6.135   2.180
 1018WAT     H1 4792   7.429   6.053   2.195
 1018WAT     H2 4793   7.319   6.134   2.208
 1018WAT    EPW 4794   7.393   6.122   2.186
 1019WAT      O 4795   7.333   5.344   2.731
 1019WAT     H1 4796   7.270   5.293   2.763
 1019WAT     H2 4797   7.336   5.410   2.788
 1019WAT    EPW 4798   7.324   5.346   2.744
 1020WAT      O 4799   7.019   5.951   2.121
 1020WAT     H1 4800   7.092   5.904   2.116
 1020WAT     H2 4801   6.989   5.953   2.038
 1020WAT    EPW 4802   7.025   5.944   2.108
 1021WAT      O 4803   6.477   6.071   3.229
 1021WAT     H1 4804   6.476   6.124   3.298
 1021WAT     H2 4805   6.482   6.125   3.161
 1021WAT    EPW 4806   6.477   6.086   3.229
 1022WAT      O 4807   6.292   5.941   3.545
 1022WAT     H1 4808   6.211   5.914   3.562
 1022WAT     H2 4809   6.284   6.028   3.534
 1022WAT    EPW 4810   6.279   5.950   3.546
 1023WAT      O 4811   7.231   4.954   3.401
 1023WAT     H1 4812   7.291   5.006   3.438
 1023WAT     H2 4813   7.162   5.006   3.390
 1023WAT    EPW 4814   7.230   4.970   3.405
 1024WAT      O 4815   6.778   5.716   3.135
 1024WAT     H1 4816   6.833   5.745   3.196
 1024WAT     H2 4817   6.699   5.731   3.170
 1024WAT    EPW 4818   6.774   5.722   3.149
 1025WAT      O 4819   6.415   5.278   3.519
 1025WAT     H1 4820   6.432   5.200   3.554
 1025WAT     H2 4821   6.446   5.271   3.437
 1025WAT    EPW 4822   6.422   5.265   3.512
 1026WAT      O 4823   6.687   6.472   2.720
 1026WAT     H1 4824   6.690   6.558   2.732
 1026WAT     H2 4825   6.713   6.461   2.638
 1026WAT    EPW 4826   6.691   6.483   2.710
 1027WAT      O 4827   7.284   4.820   3.162
 1027WAT     H1 4828   7.281   4.854   3.243
 1027WAT     H2 4829   7.330   4.746   3.173
 1027WAT    EPW 4830   7.291   4.814   3.176
 1028WAT      O 4831   6.571   4.877   3.438
 1028WAT     H1 4832   6.656   4.893   3.431
 1028WAT     H2 4833   6.567   4.791   3.456
 1028WAT    EPW 4834   6.583   4.866   3.440
 1029WAT      O 4835   6.501   6.265   3.032
 1029WAT     H1 4836   6.450   6.317   2.983
 1029WAT     H2 4837   6.545   6.218   2.973
 1029WAT    EPW 4838   6.500   6.266   3.016
 1030WAT      O 4839   6.960   5.885   3.751
 1030WAT     H1 4840   7.040   5.887   3.716
 1030WAT     H2 4841   6.909   5.916   3.687
 1030WAT    EPW 4842   6.964   5.890   3.736
 1031WAT      O 4843   7.243   6.174   3.631
 1031WAT     H1 4844   7.293   6.212   3.691
 1031WAT     H2 4845   7.263   6.217   3.558
 1031WAT    EPW 4846   7.253   6.186   3.629
 1032WAT      O 4847   7.506   5.482   2.084
 1032WAT     H1 4848   7.520   5.532   2.014
 1032WAT     H2 4849   7.424   5.502   2.107
 1032WAT    EPW 4850   7.496   5.493   2.077
 1033WAT      O 4851   6.602   5.722   2.072
 1033WAT     H1 4852   6.532   5.677   2.045
 1033WAT     H2 4853   6.575   5.804   2.072
 1033WAT    EPW 4854   6.588   5.727   2.068
 1034WAT      O 4855   6.290   5.347   3.072
 1034WAT     H1 4856   6.324   5.320   2.996
 1034WAT     H2 4857   6.349   5.320   3.131
 1034WAT    EPW 4858   6.304   5.339   3.070
 1035WAT      O 4859   6.982   5.274   3.616
 1035WAT     H1 4860   6.926   5.340   3.626
 1035WAT     H2 4861   7.026   5.274   3.691
 1035WAT    EPW 4862   6.980   5.284   3.628
 1036WAT      O 4863   7.049   5.382   3.251
 1036WAT     H1 4864   7.050   5.437   3.319
 1036WAT     H2 4865   7.034   5.304   3.287
 1036WAT    EPW 4866   7.047   5.379   3.266
 1037WAT      O 4867   6.756   6.481   3.625
 1037WAT     H1 4868   6.777   6.467   3.541
 1037WAT     H2 4869   6.722   6.405   3.650
 1037WAT    EPW 4870   6.754   6.468   3.616
 1038WAT      O 4871   7.236   5.359   2.472
 1038WAT     H1 4872   7.259   5.354   2.556
 1038WAT     H2 4873   7.312   5.367   2.430
 1038WAT    EPW 4874   7.251   5.359   2.478
 1039WAT      O 4875   6.556   4.841   3.059
 1039WAT     H1 4876   6.479   4.864   3.091
 1039WAT     H2 4877   6.549   4.859   2.974
 1039WAT    EPW 4878   6.544   4.847   3.051
 1040WAT      O 4879   7.394   4.926   2.582
 1040WAT     H1 4880   7.310   4.904   2.590
 1040WAT     H2 4881   7.405   4.931   2.495
 1040WAT    EPW 4882   7.383   4.924   2.570
 1041WAT      O 4883   7.416   5.705   2.414
 1041WAT     H1 4884   7.454   5.627   2.414
 1041WAT     H2 4885   7.331   5.686   2.417
 1041WAT    EPW 4886   7.409   5.690   2.414
 1042WAT      O 4887   6.776   5.942   3.541
 1042WAT     H1 4888   6.701   5.942   3.585
 1042WAT     H2 4889   6.781   6.023   3.509
 1042WAT    EPW 4890   6.766   5.954   3.543
 1043WAT      O 4891   5.818   4.931   3.704
 1043WAT     H1 4892   5.806   5.005   3.660
 1043WAT     H2 4893   5.742   4.890   3.698
 1043WAT    EPW 4894   5.805   4.936   3.697
 1044WAT      O 4895   6.315   6.595   3.121
 1044WAT     H1 4896   6.313   6.579   3.206
 1044WAT     H2 4897   6.286   6.520   3.085
 1044WAT    EPW 4898   6.310   6.582   3.128
 1045WAT      O 4899   6.143   5.180   2.387
 1045WAT     H1 4900   6.158   5.141   2.311
 1045WAT     H2 4901   6.066   5.148   2.412
 1045WAT    EPW 4902   6.134   5.170   2.380
 1046WAT      O 4903   7.051   5.927   2.712
 1046WAT     H1 4904   7.034   5.947   2.795
 1046WAT     H2 4905   7.084   5.846   2.717
 1046WAT    EPW 4906   7.053   5.918   2.725
 1047WAT      O 4907   6.800   5.836   2.635
 1047WAT     H1 4908   6.762   5.831   2.713
 1047WAT     H2 4909   6.879   5.869   2.653
 1047WAT    EPW 4910   6.806   5.840   2.649
 1048WAT      O 4911   6.790   6.213   3.454
 1048WAT     H1 4912   6.842   6.213   3.524
 1048WAT     H2 4913   6.824   6.275   3.403
 1048WAT    EPW 4914   6.803   6.222   3.456
 1049WAT      O 4915   7.041   5.565   3.465
 1049WAT     H1 4916   6.975   5.541   3.518
 1049WAT     H2 4917   7.111   5.559   3.516
 1049WAT    EPW 4918   7.041   5.561   3.480
 1050WAT      O 4919   5.969   6.561   3.644
 1050WAT     H1 4920   5.914   6.494   3.634
 1050WAT     H2 4921   5.917   6.625   3.673
 1050WAT    EPW 4922   5.953   6.560   3.647
 1051WAT      O 4923   6.863   5.656   3.871
 1051WAT     H1 4924   6.894   5.729   3.835
 1051WAT     H2 4925   6.783   5.678   3.896
 1051WAT    EPW 4926   6.856   5.670   3.869
 1052WAT      O 4927   7.149   6.552   2.900
 1052WAT     H1 4928   7.099   6.613   2.937
 1052WAT     H2 4929   7.230   6.575   2.924
 1052WAT    EPW 4930   7.154   6.565   2.909
 1053WAT      O 4931   6.803   6.090   3.158
 1053WAT     H1 4932   6.730   6.076   3.203
 1053WAT     H2 4933   6.859   6.118   3.219
 1053WAT    EPW 4934   6.801   6.092   3.174
 1054WAT      O 4935   7.419   6.259   3.833
 1054WAT     H1 4936   7.500   6.239   3.807
 1054WAT     H2 4937   7.409   6.212   3.906
 1054WAT    EPW 4938   7.429   6.249   3.840
 1055WAT      O 4939   6.161   5.388   3.489
 1055WAT     H1 4940   6.177   5.451   3.431
 1055WAT     H2 4941   6.239   5.350   3.499
 1055WAT    EPW 4942   6.175   5.392   3.482
 1056WAT      O 4943   5.970   5.232   3.359
 1056WAT     H1 4944   5.987   5.242   3.274
 1056WAT     H2 4945   6.031   5.281   3.398
 1056WAT    EPW 4946   5.981   5.241   3.353
 1057WAT      O 4947   7.492   5.429   2.381
 1057WAT     H1 4948   7.523   5.418   2.300
 1057WAT     H2 4949   7.523   5.360   2.425
 1057WAT    EPW 4950   7.502   5.417   2.376
 1058WAT      O 4951   6.199   4.930   3.617
 1058WAT     H1 4952   6.180   4.844   3.617
 1058WAT     H2 4953   6.181   4.955   3.536
 1058WAT    EPW 4954   6.194   4.921   3.605
 1059WAT      O 4955   6.880   6.191   2.568
 1059WAT     H1 4956   6.870   6.267   2.526
 1059WAT     H2 4957   6.816   6.141   2.536
 1059WAT    EPW 4958   6.869   6.195   2.557
 1060WAT      O 4959   7.385   5.578   3.368
 1060WAT     H1 4960   7.432   5.511   3.340
 1060WAT     H2 4961   7.343   5.546   3.438
 1060WAT    EPW 4962   7.386   5.563   3.375
 1061WAT      O 4963   5.891   5.746   3.385
 1061WAT     H1 4964   5.939   5.760   3.313
 1061WAT     H2 4965   5.871   5.662   3.381
 1061WAT    EPW 4966   5.895   5.736   3.374
 1062WAT      O 4967   6.055   5.322   2.032
 1062WAT     H1 4968   5.985   5.316   2.084
 1062WAT     H2 4969   6.059   5.244   1.993
 1062WAT    EPW 4970   6.046   5.310   2.034
 1063WAT      O 4971   6.930   4.963   3.707
 1063WAT     H1 4972   6.961   5.034   3.748
 1063WAT     H2 4973   6.849   4.955   3.741
 1063WAT    EPW 4974   6.922   4.972   3.718
 1064WAT      O 4975   6.887   5.039   2.768
 1064WAT     H1 4976   6.809   5.077   2.771
 1064WAT     H2 4977   6.877   4.977   2.707
 1064WAT    EPW 4978   6.874   5.035   2.759
 1065WAT      O 4979   6.385   6.205   2.175
 1065WAT     H1 4980   6.421   6.202   2.255
 1065WAT     H2 4981   6.301   6.186   2.190
 1065WAT    EPW 4982   6.378   6.202   2.189
 1066WAT      O 4983   7.216   5.069   3.036
 1066WAT     H1 4984   7.261   5.005   3.074
 1066WAT     H2 4985   7.248   5.141   3.073
 1066WAT    EPW 4986   7.227   5.070   3.047
 1067WAT      O 4987   6.405   5.691   3.469
 1067WAT     H1 4988   6.369   5.766   3.496
 1067WAT     H2 4989   6.345   5.656   3.418
 1067WAT    EPW 4990   6.391   5.697   3.466
 1068WAT      O 4991   7.290   5.555   2.920
 1068WAT     H1 4992   7.305   5.616   2.981
 1068WAT     H2 4993   7.244   5.598   2.859
 1068WAT    EPW 4994   7.285   5.570   2.920
 1069WAT      O 4995   7.293   6.381   2.543
 1069WAT     H1 4996   7.261   6.300   2.549
 1069WAT     H2 4997   7.342   6.379   2.471
 1069WAT    EPW 4998   7.295   6.369   2.533
 1070WAT      O 4999   6.127   6.126   2.239
 1070WAT     H1 5000   6.128   6.107   2.324
 1070WAT     H2 5001   6.137   6.048   2.201
 1070WAT    EPW 5002   6.129   6.112   2.246
 1071WAT      O 5003   6.437   5.956   2.049
 1071WAT     H1 5004   6.357   5.926   2.064
 1071WAT     H2 5005   6.436   6.036   2.086
 1071WAT    EPW 5006   6.425   5.964   2.057
 1072WAT      O 5007   6.399   5.002   3.258
 1072WAT     H1 5008   6.317   4.988   3.285
 1072WAT     H2 5009   6.447   4.954   3.312
 1072WAT    EPW 5010   6.394   4.993   3.270
 1073WAT      O 5011   6.765   5.018   3.123
 1073WAT     H1 5012   6.702   4.959   3.112
 1073WAT     H2 5013   6.837   4.975   3.097
 1073WAT    EPW 5014   6.767   5.003   3.117
 1074WAT      O 5015   7.058   6.195   3.267
 1074WAT     H1 5016   7.114   6.241   3.314
 1074WAT     H2 5017   7.063   6.230   3.187
 1074WAT    EPW 5018   7.067   6.207   3.262
 1075WAT      O 5019   7.017   6.548   3.700
 1075WAT     H1 5020   6.941   6.518   3.673
 1075WAT     H2 5021   7.000   6.632   3.718
 1075WAT    EPW 5022   7.003   6.556   3.699
 1076WAT      O 5023   6.546   5.496   3.632
 1076WAT     H1 5024   6.506   5.427   3.597
 1076WAT     H2 5025   6.507   5.564   3.593
 1076WAT    EPW 5026   6.534   5.496   3.621
 1077WAT      O 5027   6.632   4.867   2.139
 1077WAT     H1 5028   6.650   4.872   2.054
 1077WAT     H2 5029   6.545   4.861   2.142
 1077WAT    EPW 5030   6.622   4.867   2.127
 1078WAT      O 5031   7.478   5.943   3.246
 1078WAT     H1 5032   7.444   5.877   3.200
 1078WAT     H2 5033   7.466   6.012   3.193
 1078WAT    EPW 5034   7.471   5.944   3.231
 1079WAT      O 5035   6.422   6.464   3.646
 1079WAT     H1 5036   6.406   6.475   3.731
 1079WAT     H2 5037   6.481   6.401   3.644
 1079WAT    EPW 5038   6.428   6.456   3.658
 1080WAT      O 5039   7.397   6.384   3.142
 1080WAT     H1 5040   7.461   6.398   3.084
 1080WAT     H2 5041   7.366   6.306   3.118
 1080WAT    EPW 5042   7.402   6.374   3.130
 1081WAT      O 5043   6.130   4.994   3.357
 1081WAT     H1 5044   6.078   4.925   3.345
 1081WAT     H2 5045   6.074   5.062   3.356
 1081WAT    EPW 5046   6.114   4.994   3.355
 1082WAT      O 5047   6.992   4.912   2.993
 1082WAT     H1 5048   7.055   4.967   3.017
 1082WAT     H2 5049   6.958   4.950   2.922
 1082WAT    EPW 5050   6.996   4.926   2.986
 1083WAT      O 5051   6.133   6.363   3.773
 1083WAT     H1 5052   6.203   6.396   3.813
 1083WAT     H2 5053   6.095   6.432   3.736
 1083WAT    EPW 5054   6.138   6.378   3.773
 1084WAT      O 5055   6.973   5.440   2.789
 1084WAT     H1 5056   7.022   5.369   2.800
 1084WAT     H2 5057   6.941   5.456   2.868
 1084WAT    EPW 5058   6.976   5.432   2.802
 1085WAT      O 5059   5.992   5.319   2.704
 1085WAT     H1 5060   5.950   5.346   2.776
 1085WAT     H2 5061   6.031   5.245   2.730
 1085WAT    EPW 5062   5.992   5.312   2.719
 1086WAT      O 5063   5.979   6.144   3.489
 1086WAT     H1 5064   5.929   6.205   3.528
 1086WAT     H2 5065   6.059   6.178   3.493
 1086WAT    EPW 5066   5.983   6.158   3.496
 1087WAT      O 5067   7.151   5.610   2.417
 1087WAT     H1 5068   7.167   5.526   2.435
 1087WAT     H2 5069   7.075   5.607   2.373
 1087WAT    EPW 5070   7.142   5.597   2.413
 1088WAT      O 5071   6.156   6.462   2.374
 1088WAT     H1 5072   6.129   6.466   2.291
 1088WAT     H2 5073   6.242   6.447   2.367
 1088WAT    EPW 5074   6.165   6.460   2.361
 1089WAT      O 5075   6.545   5.638   2.331
 1089WAT     H1 5076   6.570   5.669   2.253
 1089WAT     H2 5077   6.619   5.633   2.376
 1089WAT    EPW 5078   6.560   5.642   2.326
 1090WAT      O 5079   7.416   6.500   2.074
 1090WAT     H1 5080   7.445   6.467   2.149
 1090WAT     H2 5081   7.411   6.430   2.022
 1090WAT    EPW 5082   7.419   6.484   2.078
 1091WAT      O 5083   7.516   5.658   3.725
 1091WAT     H1 5084   7.593   5.631   3.695
 1091WAT     H2 5085   7.495   5.725   3.673
 1091WAT    EPW 5086   7.524   5.664   3.713
 1092WAT      O 5087   7.145   6.154   2.277
 1092WAT     H1 5088   7.147   6.131   2.361
 1092WAT     H2 5089   7.093   6.094   2.240
 1092WAT    EPW 5090   7.137   6.142   2.284
 1093WAT      O 5091   7.498   5.196   4.006
 1093WAT     H1 5092   7.512   5.281   3.992
 1093WAT     H2 5093   7.449   5.172   3.937
 1093WAT    EPW 5094   7.493   5.205   3.993
 1094WAT      O 5095   7.505   5.351   3.267
 1094WAT     H1 5096   7.438   5.337   3.213
 1094WAT     H2 5097   7.574   5.319   3.224
 1094WAT    EPW 5098   7.505   5.344   3.253
 1095WAT      O 5099   6.459   5.022   3.640
 1095WAT     H1 5100   6.496   4.984   3.571
 1095WAT     H2 5101   6.378   4.989   3.640
 1095WAT    EPW 5102   6.453   5.012   3.630
 1096WAT      O 5103   7.251   5.817   3.950
 1096WAT     H1 5104   7.329   5.840   3.981
 1096WAT     H2 5105   7.255   5.840   3.866
 1096WAT    EPW 5106   7.263   5.824   3.942
 1097WAT      O 5107   6.181   6.365   3.020
 1097WAT     H1 5108   6.172   6.288   2.981
 1097WAT     H2 5109   6.143   6.421   2.964
 1097WAT    EPW 5110   6.174   6.362   3.006
 1098WAT      O 5111   6.755   5.986   2.209
 1098WAT     H1 5112   6.838   5.966   2.191
 1098WAT     H2 5113   6.741   6.059   2.163
 1098WAT    EPW 5114   6.765   5.994   2.200
 1099WAT      O 5115   5.949   6.615   3.367
 1099WAT     H1 5116   5.958   6.596   3.451
 1099WAT     H2 5117   5.981   6.545   3.326
 1099WAT    EPW 5118   5.955   6.602   3.373
 1100WAT      O 5119   6.928   4.838   0.655
 1100WAT     H1 5120   6.950   4.871   0.578
 1100WAT     H2 5121   7.004   4.816   0.691
 1100WAT    EPW 5122   6.942   4.840   0.649
 1101WAT      O 5123   6.875   5.469   1.154
 1101WAT     H1 5124   6.843   5.546   1.181
 1101WAT     H2 5125   6.931   5.447   1.217
 1101WAT    EPW 5126   6.879   5.477   1.167
 1102WAT      O 5127   5.858   5.941   0.672
 1102WAT     H1 5128   5.848   5.944   0.758
 1102WAT     H2 5129   5.851   5.856   0.653
 1102WAT    EPW 5130   5.855   5.929   0.682
 1103WAT      O 5131   7.495   6.293   0.460
 1103WAT     H1 5132   7.564   6.247   0.488
 1103WAT     H2 5133   7.448   6.234   0.416
 1103WAT    EPW 5134   7.499   6.277   0.458
 1104WAT      O 5135   5.869   5.300   0.316
 1104WAT     H1 5136   5.813   5.358   0.282
 1104WAT     H2 5137   5.826   5.224   0.309
 1104WAT    EPW 5138   5.854   5.297   0.310
 1105WAT      O 5139   6.118   5.847   0.250
 1105WAT     H1 5140   6.102   5.806   0.174
 1105WAT     H2 5141   6.124   5.782   0.308
 1105WAT    EPW 5142   6.116   5.831   0.247
 1106WAT      O 5143   7.135   5.663   0.819
 1106WAT     H1 5144   7.151   5.651   0.734
 1106WAT     H2 5145   7.075   5.603   0.838
 1106WAT    EPW 5146   7.129   5.653   0.809
 1107WAT      O 5147   6.107   6.051   0.619
 1107WAT     H1 5148   6.160   6.018   0.680
 1107WAT     H2 5149   6.031   6.011   0.634
 1107WAT    EPW 5150   6.103   6.040   0.630
 1108WAT      O 5151   6.590   4.960   0.614
 1108WAT     H1 5152   6.587   5.040   0.579
 1108WAT     H2 5153   6.633   4.913   0.554
 1108WAT    EPW 5154   6.596   4.965   0.600
 1109WAT      O 5155   6.013   6.354   0.273
 1109WAT     H1 5156   6.041   6.364   0.191
 1109WAT     H2 5157   6.041   6.274   0.295
 1109WAT    EPW 5158   6.022   6.344   0.264
 1110WAT      O 5159   5.858   6.165   1.335
 1110WAT     H1 5160   5.893   6.140   1.411
 1110WAT     H2 5161   5.789   6.112   1.327
 1110WAT    EPW 5162   5.853   6.153   1.345
 1111WAT      O 5163   6.531   5.988   1.785
 1111WAT     H1 5164   6.508   5.973   1.868
 1111WAT     H2 5165   6.458   5.968   1.740
 1111WAT    EPW 5166   6.517   5.983   1.790
 1112WAT      O 5167   6.055   5.690   0.805
 1112WAT     H1 5168   6.005   5.688   0.734
 1112WAT     H2 5169   6.109   5.623   0.794
 1112WAT    EPW 5170   6.055   5.680   0.793
 1113WAT      O 5171   6.491   5.270   1.353
 1113WAT     H1 5172   6.558   5.272   1.297
 1113WAT     H2 5173   6.467   5.186   1.353
 1113WAT    EPW 5174   6.498   5.258   1.345
 1114WAT      O 5175   6.514   6.273   1.525
 1114WAT     H1 5176   6.526   6.336   1.466
 1114WAT     H2 5177   6.595   6.251   1.549
 1114WAT    EPW 5178   6.527   6.279   1.520
 1115WAT      O 5179   6.221   5.472   0.788
 1115WAT     H1 5180   6.288   5.421   0.810
 1115WAT     H2 5181   6.153   5.418   0.793
 1115WAT    EPW 5182   6.221   5.456   0.792
 1116WAT      O 5183   6.629   6.108   0.944
 1116WAT     H1 5184   6.651   6.026   0.964
 1116WAT     H2 5185   6.705   6.151   0.941
 1116WAT    EPW 5186   6.643   6.102   0.946
 1117WAT      O 5187   6.655   6.027   0.590
 1117WAT     H1 5188   6.698   5.970   0.640
 1117WAT     H2 5189   6.694   6.018   0.512
 1117WAT    EPW 5190   6.667   6.017   0.585
 1118WAT      O 5191   6.824   5.507   1.737
 1118WAT     H1 5192   6.739   5.503   1.722
 1118WAT     H2 5193   6.830   5.553   1.811
 1118WAT    EPW 5194   6.812   5.513   1.746
 1119WAT      O 5195   6.311   4.973   0.681
 1119WAT     H1 5196   6.269   5.018   0.620
 1119WAT     H2 5197   6.393   4.968   0.650
 1119WAT    EPW 5198   6.317   4.979   0.667
 1120WAT      O 5199   7.249   4.721   1.651
 1120WAT     H1 5200   7.236   4.794   1.606
 1120WAT     H2 5201   7.175   4.710   1.695
 1120WAT    EPW 5202   7.236   4.730   1.651
 1121WAT      O 5203   6.614   4.905   0.885
 1121WAT     H1 5204   6.623   4.987   0.915
 1121WAT     H2 5205   6.600   4.916   0.800
 1121WAT    EPW 5206   6.614   4.919   0.877
 1122WAT      O 5207   5.875   5.424   1.057
 1122WAT     H1 5208   5.873   5.511   1.066
 1122WAT     H2 5209   5.809   5.397   1.106
 1122WAT    EPW 5210   5.865   5.433   1.065
 1123WAT      O 5211   5.853   6.395   0.870
 1123WAT     H1 5212   5.791   6.444   0.831
 1123WAT     H2 5213   5.895   6.358   0.803
 1123WAT    EPW 5214   5.850   6.397   0.854
 1124WAT      O 5215   6.477   6.245   0.583
 1124WAT     H1 5216   6.430   6.229   0.655
 1124WAT     H2 5217   6.541   6.185   0.587
 1124WAT    EPW 5218   6.480   6.233   0.594
 1125WAT      O 5219   7.002   6.355   0.365
 1125WAT     H1 5220   7.069   6.412   0.368
 1125WAT     H2 5221   7.039   6.279   0.387
 1125WAT    EPW 5222   7.017   6.352   0.369
 1126WAT      O 5223   6.823   6.449   0.553
 1126WAT     H1 5224   6.856   6.525   0.581
 1126WAT     H2 5225   6.881   6.423   0.493
 1126WAT    EPW 5226   6.837   6.456   0.548
 1127WAT      O 5227   6.111   4.934   1.085
 1127WAT     H1 5228   6.088   4.859   1.045
 1127WAT     H2 5229   6.169   4.908   1.145
 1127WAT    EPW 5230   6.116   4.919   1.088
 1128WAT      O 5231   6.469   5.133   2.015
 1128WAT     H1 5232   6.472   5.102   1.934
 1128WAT     H2 5233   6.513   5.208   2.010
 1128WAT    EPW 5234   6.476   5.140   2.003
 1129WAT      O 5235   5.993   6.302   0.648
 1129WAT     H1 5236   6.043   6.231   0.655
 1129WAT     H2 5237   6.042   6.358   0.603
 1129WAT    EPW 5238   6.008   6.300   0.643
 1130WAT      O 5239   7.519   5.201   0.678
 1130WAT     H1 5240   7.475   5.241   0.742
 1130WAT     H2 5241   7.496   5.117   0.687
 1130WAT    EPW 5242   7.509   5.194   0.689
 1131WAT      O 5243   7.066   6.504   1.312
 1131WAT     H1 5244   7.131   6.561   1.295
 1131WAT     H2 5245   7.066   6.452   1.243
 1131WAT    EPW 5246   7.076   6.505   1.300
 1132WAT      O 5247   6.055   5.059   1.933
 1132WAT     H1 5248   5.974   5.031   1.915
 1132WAT     H2 5249   6.103   5.026   1.867
 1132WAT    EPW 5250   6.050   5.050   1.920
 1133WAT      O 5251   6.133   6.123   1.006
 1133WAT     H1 5252   6.187   6.106   0.940
 1133WAT     H2 5253   6.161   6.071   1.070
 1133WAT    EPW 5254   6.145   6.113   1.006
 1134WAT      O 5255   6.433   6.435   0.922
 1134WAT     H1 5256   6.512   6.450   0.887
 1134WAT     H2 5257   6.379   6.480   0.870
 1134WAT    EPW 5258   6.437   6.444   0.909
 1135WAT      O 5259   6.674   4.872   1.869
 1135WAT     H1 5260   6.687   4.798   1.824
 1135WAT     H2 5261   6.606   4.908   1.828
 1135WAT    EPW 5262   6.666   4.866   1.856
 1136WAT      O 5263   6.758   5.400   0.716
 1136WAT     H1 5264   6.790   5.353   0.650
 1136WAT     H2 5265   6.828   5.417   0.765
 1136WAT    EPW 5266   6.773   5.396   0.714
 1137WAT      O 5267   6.875   5.404   0.261
 1137WAT     H1 5268   6.898   5.482   0.293
 1137WAT     H2 5269   6.807   5.423   0.209
 1137WAT    EPW 5270   6.869   5.418   0.258
 1138WAT      O 5271   7.209   6.528   0.412
 1138WAT     H1 5272   7.278   6.527   0.359
 1138WAT     H2 5273   7.240   6.497   0.487
 1138WAT    EPW 5274   7.224   6.524   0.415
 1139WAT      O 5275   6.288   6.516   1.499
 1139WAT     H1 5276   6.324   6.498   1.576
 1139WAT     H2 5277   6.227   6.455   1.490
 1139WAT    EPW 5278   6.284   6.505   1.509
 1140WAT      O 5279   5.784   5.164   1.664
 1140WAT     H1 5280   5.777   5.240   1.707
 1140WAT     H2 5281   5.843   5.182   1.602
 1140WAT    EPW 5282   5.792   5.178   1.661
 1141WAT      O 5283   6.971   6.204   1.765
 1141WAT     H1 5284   6.969   6.242   1.844
 1141WAT     H2 5285   7.056   6.194   1.749
 1141WAT    EPW 5286   6.983   6.208   1.775
 1142WAT      O 5287   6.792   6.261   0.204
 1142WAT     H1 5288   6.732   6.323   0.220
 1142WAT     H2 5289   6.866   6.297   0.233
 1142WAT    EPW 5290   6.794   6.276   0.211
 1143WAT      O 5291   7.022   4.902   0.402
 1143WAT     H1 5292   7.088   4.845   0.401
 1143WAT     H2 5293   7.059   4.976   0.428
 1143WAT    EPW 5294   7.037   4.904   0.406
 1144WAT      O 5295   5.883   5.074   0.575
 1144WAT     H1 5296   5.858   4.993   0.555
 1144WAT     H2 5297   5.835   5.093   0.646
 1144WAT    EPW 5298   5.872   5.065   0.583
 1145WAT      O 5299   6.055   6.375   1.372
 1145WAT     H1 5300   5.992   6.315   1.363
 1145WAT     H2 5301   6.097   6.373   1.295
 1145WAT    EPW 5302   6.052   6.366   1.359
 1146WAT      O 5303   6.829   5.255   0.488
 1146WAT     H1 5304   6.752   5.219   0.469
 1146WAT     H2 5305   6.848   5.300   0.416
 1146WAT    EPW 5306   6.820   5.257   0.474
 1147WAT      O 5307   6.844   6.476   1.465
 1147WAT     H1 5308   6.916   6.482   1.417
 1147WAT     H2 5309   6.780   6.472   1.406
 1147WAT    EPW 5310   6.845   6.476   1.449
 1148WAT      O 5311   6.745   4.908   0.369
 1148WAT     H1 5312   6.721   4.986   0.338
 1148WAT     H2 5313   6.832   4.911   0.367
 1148WAT    EPW 5314   6.754   4.920   0.364
 1149WAT      O 5315   7.443   6.511   0.883
 1149WAT     H1 5316   7.460   6.585   0.841
 1149WAT     H2 5317   7.414   6.458   0.821
 1149WAT    EPW 5318   7.441   6.514   0.868
 1150WAT      O 5319   6.656   5.196   0.885
 1150WAT     H1 5320   6.679   5.264   0.835
 1150WAT     H2 5321   6.668   5.226   0.966
 1150WAT    EPW 5322   6.661   5.211   0.889
 1151WAT      O 5323   7.210   6.121   0.679
 1151WAT     H1 5324   7.284   6.075   0.679
 1151WAT     H2 5325   7.156   6.074   0.729
 1151WAT    EPW 5326   7.213   6.107   0.686
 1152WAT      O 5327   6.249   6.220   1.640
 1152WAT     H1 5328   6.326   6.252   1.615
 1152WAT     H2 5329   6.233   6.262   1.715
 1152WAT    EPW 5330   6.258   6.231   1.647
 1153WAT      O 5331   6.242   4.713   0.739
 1153WAT     H1 5332   6.263   4.796   0.723
 1153WAT     H2 5333   6.209   4.685   0.664
 1153WAT    EPW 5334   6.240   4.721   0.726
 1154WAT      O 5335   6.436   5.802   1.085
 1154WAT     H1 5336   6.459   5.782   1.166
 1154WAT     H2 5337   6.381   5.738   1.062
 1154WAT    EPW 5338   6.432   5.790   1.093
 1155WAT      O 5339   7.011   5.132   1.479
 1155WAT     H1 5340   7.003   5.169   1.558
 1155WAT     H2 5341   6.944   5.076   1.476
 1155WAT    EPW 5342   7.000   5.129   1.490
 1156WAT      O 5343   6.534   5.797   1.344
 1156WAT     H1 5344   6.516   5.882   1.353
 1156WAT     H2 5345   6.503   5.762   1.418
 1156WAT    EPW 5346   6.527   5.805   1.357
 1157WAT      O 5347   7.133   5.929   1.326
 1157WAT     H1 5348   7.074   5.881   1.370
 1157WAT     H2 5349   7.117   6.010   1.354
 1157WAT    EPW 5350   7.122   5.934   1.337
 1158WAT      O 5351   7.178   4.772   0.749
 1158WAT     H1 5352   7.176   4.757   0.835
 1158WAT     H2 5353   7.217   4.701   0.716
 1158WAT    EPW 5354   7.183   4.759   0.757
 1159WAT      O 5355   5.787   6.205   1.964
 1159WAT     H1 5356   5.846   6.252   2.008
 1159WAT     H2 5357   5.793   6.126   1.999
 1159WAT    EPW 5358   5.797   6.200   1.975
 1160WAT      O 5359   7.396   5.133   1.624
 1160WAT     H1 5360   7.430   5.209   1.599
 1160WAT     H2 5361   7.378   5.145   1.709
 1160WAT    EPW 5362   7.398   5.146   1.633
 1161WAT      O 5363   6.183   5.112   0.888
 1161WAT     H1 5364   6.217   5.060   0.827
 1161WAT     H2 5365   6.165   5.057   0.953
 1161WAT    EPW 5366   6.185   5.096   0.888
 1162WAT      O 5367   7.389   5.851   0.309
 1162WAT     H1 5368   7.421   5.821   0.385
 1162WAT     H2 5369   7.357   5.780   0.271
 1162WAT    EPW 5370   7.389   5.836   0.315
 1163WAT      O 5371   6.226   5.909   0.824
 1163WAT     H1 5372   6.297   5.885   0.780
 1163WAT     H2 5373   6.176   5.837   0.823
 1163WAT    EPW 5374   6.229   5.895   0.818
 1164WAT      O 5375   6.064   6.548   0.955
 1164WAT     H1 5376   5.991   6.509   0.929
 1164WAT     H2 5377   6.115   6.548   0.883
 1164WAT    EPW 5378   6.061   6.543   0.940
 1165WAT      O 5379   6.053   5.281   1.218
 1165WAT     H1 5380   6.133   5.304   1.195
 1165WAT     H2 5381   6.002   5.324   1.162
 1165WAT    EPW 5382   6.057   5.290   1.207
 1166WAT      O 5383   7.272   5.595   0.266
 1166WAT     H1 5384   7.200   5.572   0.222
 1166WAT     H2 5385   7.243   5.602   0.348
 1166WAT    EPW 5386   7.257   5.593   0.271
 1167WAT      O 5387   6.434   5.852   0.651
 1167WAT     H1 5388   6.492   5.911   0.623
 1167WAT     H2 5389   6.444   5.786   0.595
 1167WAT    EPW 5390   6.444   5.851   0.639
 1168WAT      O 5391   5.885   5.999   0.953
 1168WAT     H1 5392   5.830   6.060   0.985
 1168WAT     H2 5393   5.963   6.036   0.962
 1168WAT    EPW 5394   5.888   6.014   0.959
 1169WAT      O 5395   6.606   5.380   1.992
 1169WAT     H1 5396   6.549   5.418   2.045
 1169WAT     H2 5397   6.591   5.418   1.915
 1169WAT    EPW 5398   6.596   5.391   1.988
 1170WAT      O 5399   5.908   5.674   0.576
 1170WAT     H1 5400   5.886   5.590   0.581
 1170WAT     H2 5401   5.979   5.674   0.526
 1170WAT    EPW 5402   5.915   5.662   0.569
 1171WAT      O 5403   7.439   4.920   0.422
 1171WAT     H1 5404   7.453   4.855   0.366
 1171WAT     H2 5405   7.430   4.990   0.370
 1171WAT    EPW 5406   7.440   4.921   0.406
 1172WAT      O 5407   6.859   6.265   0.926
 1172WAT     H1 5408   6.813   6.337   0.909
 1172WAT     H2 5409   6.879   6.235   0.846
 1172WAT    EPW 5410   6.855   6.271   0.911
 1173WAT      O 5411   5.820   6.147   0.494
 1173WAT     H1 5412   5.872   6.204   0.534
 1173WAT     H2 5413   5.814   6.081   0.551
 1173WAT    EPW 5414   5.827   6.146   0.508
 1174WAT      O 5415   6.241   5.959   1.201
 1174WAT     H1 5416   6.293   6.000   1.258
 1174WAT     H2 5417   6.296   5.915   1.150
 1174WAT    EPW 5418   6.256   5.959   1.202
 1175WAT      O 5419   7.109   5.211   0.918
 1175WAT     H1 5420   7.139   5.166   0.986
 1175WAT     H2 5421   7.051   5.158   0.881
 1175WAT    EPW 5422   7.105   5.197   0.922
 1176WAT      O 5423   5.841   5.950   0.291
 1176WAT     H1 5424   5.923   5.921   0.284
 1176WAT     H2 5425   5.848   6.019   0.344
 1176WAT    EPW 5426   5.854   5.956   0.298
 1177WAT      O 5427   5.903   5.733   1.034
 1177WAT     H1 5428   5.955   5.709   0.968
 1177WAT     H2 5429   5.894   5.819   1.023
 1177WAT    EPW 5430   5.909   5.742   1.022
 1178WAT      O 5431   6.573   5.158   0.412
 1178WAT     H1 5432   6.519   5.094   0.389
 1178WAT     H2 5433   6.528   5.230   0.397
 1178WAT    EPW 5434   6.559   5.159   0.406
 1179WAT      O 5435   7.282   6.330   1.497
 1179WAT     H1 5436   7.273   6.407   1.538
 1179WAT     H2 5437   7.330   6.350   1.427
 1179WAT    EPW 5438   7.287   6.344   1.492
 1180WAT      O 5439   6.371   6.184   0.830
 1180WAT     H1 5440   6.382   6.264   0.864
 1180WAT     H2 5441   6.440   6.139   0.860
 1180WAT    EPW 5442   6.383   6.189   0.839
 1181WAT      O 5443   6.167   5.506   1.854
 1181WAT     H1 5444   6.125   5.446   1.900
 1181WAT     H2 5445   6.166   5.474   1.773
 1181WAT    EPW 5446   6.160   5.492   1.849
 1182WAT      O 5447   6.136   5.368   0.381
 1182WAT     H1 5448   6.146   5.305   0.441
 1182WAT     H2 5449   6.057   5.354   0.349
 1182WAT    EPW 5450   6.126   5.357   0.385
 1183WAT      O 5451   6.254   5.604   1.036
 1183WAT     H1 5452   6.245   5.572   0.955
 1183WAT     H2 5453   6.273   5.534   1.084
 1183WAT    EPW 5454   6.256   5.589   1.031
 1184WAT      O 5455   6.229   5.568   1.387
 1184WAT     H1 5456   6.255   5.516   1.321
 1184WAT     H2 5457   6.174   5.623   1.348
 1184WAT    EPW 5458   6.225   5.568   1.371
 1185WAT      O 5459   7.278   5.333   1.208
 1185WAT     H1 5460   7.207   5.353   1.256
 1185WAT     H2 5461   7.281   5.397   1.149
 1185WAT    EPW 5462   7.268   5.346   1.206
 1186WAT      O 5463   6.614   6.446   1.316
 1186WAT     H1 5464   6.593   6.384   1.258
 1186WAT     H2 5465   6.601   6.520   1.271
 1186WAT    EPW 5466   6.609   6.448   1.301
 1187WAT      O 5467   6.842   4.912   1.546
 1187WAT     H1 5468   6.868   4.832   1.521
 1187WAT     H2 5469   6.879   4.922   1.624
 1187WAT    EPW 5470   6.851   4.902   1.554
 1188WAT      O 5471   7.086   5.143   0.515
 1188WAT     H1 5472   7.141   5.208   0.535
 1188WAT     H2 5473   7.008   5.181   0.514
 1188WAT    EPW 5474   7.083   5.158   0.518
 1189WAT      O 5475   6.041   5.743   1.917
 1189WAT     H1 5476   6.033   5.790   1.844
 1189WAT     H2 5477   6.086   5.673   1.892
 1189WAT    EPW 5478   6.046   5.740   1.902
 1190WAT      O 5479   7.233   5.904   1.781
 1190WAT     H1 5480   7.236   5.989   1.765
 1190WAT     H2 5481   7.285   5.869   1.721
 1190WAT    EPW 5482   7.241   5.911   1.770
 1191WAT      O 5483   6.611   6.257   1.822
 1191WAT     H1 5484   6.643   6.248   1.903
 1191WAT     H2 5485   6.586   6.176   1.802
 1191WAT    EPW 5486   6.612   6.243   1.831
 1192WAT      O 5487   6.682   5.269   1.150
 1192WAT     H1 5488   6.746   5.329   1.157
 1192WAT     H2 5489   6.720   5.196   1.178
 1192WAT    EPW 5490   6.697   5.267   1.155
 1193WAT      O 5491   6.947   5.639   0.388
 1193WAT     H1 5492   6.958   5.717   0.349
 1193WAT     H2 5493   6.878   5.651   0.439
 1193WAT    EPW 5494   6.939   5.652   0.389
 1194WAT      O 5495   7.445   5.972   0.682
 1194WAT     H1 5496   7.486   5.959   0.758
 1194WAT     H2 5497   7.449   5.894   0.643
 1194WAT    EPW 5498   7.451   5.959   0.687
 1195WAT      O 5499   7.074   6.300   1.107
 1195WAT     H1 5500   7.005   6.275   1.059
 1195WAT     H2 5501   7.105   6.369   1.063
 1195WAT    EPW 5502   7.069   6.306   1.093
 1196WAT      O 5503   6.997   5.980   1.086
 1196WAT     H1 5504   6.926   6.016   1.122
 1196WAT     H2 5505   7.041   5.948   1.154
 1196WAT    EPW 5506   6.993   5.981   1.101
 1197WAT      O 5507   6.420   6.488   0.447
 1197WAT     H1 5508   6.435   6.420   0.499
 1197WAT     H2 5509   6.488   6.487   0.392
 1197WAT    EPW 5510   6.432   6.478   0.446
 1198WAT      O 5511   6.405   4.940   0.360
 1198WAT     H1 5512   6.397   4.858   0.389
 1198WAT     H2 5513   6.331   4.955   0.318
 1198WAT    EPW 5514   6.393   4.930   0.358
 1199WAT      O 5515   6.664   6.484   0.323
 1199WAT     H1 5516   6.704   6.465   0.398
 1199WAT     H2 5517   6.690   6.565   0.306
 1199WAT    EPW 5518   6.673   6.493   0.331
 1200WAT      O 5519   7.435   5.816   1.605
 1200WAT     H1 5520   7.423   5.742   1.561
 1200WAT     H2 5521   7.457   5.874   1.543
 1200WAT    EPW 5522   7.437   5.814   1.589
 1201WAT      O 5523   6.972   6.357   2.001
 1201WAT     H1 5524   6.999   6.380   2.082
 1201WAT     H2 5525   6.997   6.425   1.952
 1201WAT    EPW 5526   6.980   6.371   2.006
 1202WAT      O 5527   7.342   4.851   1.889
 1202WAT     H1 5528   7.326   4.807   1.815
 1202WAT     H2 5529   7.376   4.790   1.941
 1202WAT    EPW 5530   7.345   4.835   1.885
 1203WAT      O 5531   6.152   5.643   0.437
 1203WAT     H1 5532   6.147   5.558   0.422
 1203WAT     H2 5533   6.229   5.652   0.477
 1203WAT    EPW 5534   6.163   5.632   0.441
 1204WAT      O 5535   6.934   5.793   1.459
 1204WAT     H1 5536   6.882   5.830   1.519
 1204WAT     H2 5537   6.966   5.723   1.499
 1204WAT    EPW 5538   6.931   5.788   1.474
 1205WAT      O 5539   5.789   4.813   0.510
 1205WAT     H1 5540   5.793   4.754   0.445
 1205WAT     H2 5541   5.764   4.765   0.579
 1205WAT    EPW 5542   5.786   4.797   0.510
 1206WAT      O 5543   6.732   5.640   0.565
 1206WAT     H1 5544   6.750   5.702   0.623
 1206WAT     H2 5545   6.731   5.567   0.613
 1206WAT    EPW 5546   6.734   5.638   0.581
 1207WAT      O 5547   7.301   6.127   1.170
 1207WAT     H1 5548   7.233   6.158   1.125
 1207WAT     H2 5549   7.267   6.060   1.214
 1207WAT    EPW 5550   7.286   6.122   1.170
 1208WAT      O 5551   6.173   5.054   0.241
 1208WAT     H1 5552   6.108   5.027   0.189
 1208WAT     H2 5553   6.196   5.131   0.207
 1208WAT    EPW 5554   6.167   5.061   0.229
 1209WAT      O 5555   6.693   5.841   0.994
 1209WAT     H1 5556   6.610   5.821   1.012
 1209WAT     H2 5557   6.737   5.811   1.063
 1209WAT    EPW 5558   6.688   5.834   1.007
 1210WAT      O 5559   6.059   5.758   1.270
 1210WAT     H1 5560   6.111   5.825   1.252
 1210WAT     H2 5561   6.018   5.742   1.194
 1210WAT    EPW 5562   6.061   5.765   1.256
 1211WAT      O 5563   6.389   5.290   0.921
 1211WAT     H1 5564   6.466   5.253   0.904
 1211WAT     H2 5565   6.332   5.225   0.910
 1211WAT    EPW 5566   6.392   5.275   0.917
 1212WAT      O 5567   5.863   5.398   0.593
 1212WAT     H1 5568   5.899   5.362   0.664
 1212WAT     H2 5569   5.875   5.337   0.531
 1212WAT    EPW 5570   5.870   5.383   0.594
 1213WAT      O 5571   7.325   5.733   1.248
 1213WAT     H1 5572   7.338   5.680   1.317
 1213WAT     H2 5573   7.259   5.784   1.274
 1213WAT    EPW 5574   7.317   5.732   1.262
 1214WAT      O 5575   6.022   5.882   1.679
 1214WAT     H1 5576   5.981   5.833   1.620
 1214WAT     H2 5577   5.998   5.963   1.659
 1214WAT    EPW 5578   6.012   5.887   1.668
 1215WAT      O 5579   6.422   5.387   0.362
 1215WAT     H1 5580   6.439   5.467   0.392
 1215WAT     H2 5581   6.335   5.384   0.359
 1215WAT    EPW 5582   6.411   5.399   0.366
 1216WAT      O 5583   7.321   5.128   1.899
 1216WAT     H1 5584   7.239   5.144   1.923
 1216WAT     H2 5585   7.325   5.040   1.898
 1216WAT    EPW 5586   7.309   5.117   1.903
 1217WAT      O 5587   5.836   5.046   1.053
 1217WAT     H1 5588   5.820   5.063   0.969
 1217WAT     H2 5589   5.920   5.025   1.055
 1217WAT    EPW 5590   5.846   5.046   1.041
 1218WAT      O 5591   7.091   5.480   1.931
 1218WAT     H1 5592   7.136   5.489   2.005
 1218WAT     H2 5593   7.018   5.527   1.946
 1218WAT    EPW 5594   7.087   5.488   1.944
 1219WAT      O 5595   7.275   5.531   1.729
 1219WAT     H1 5596   7.345   5.562   1.771
 1219WAT     H2 5597   7.222   5.506   1.793
 1219WAT    EPW 5598   7.278   5.532   1.745
 1220WAT      O 5599   7.335   6.125   0.313
 1220WAT     H1 5600   7.360   6.042   0.303
 1220WAT     H2 5601   7.254   6.118   0.345
 1220WAT    EPW 5602   7.327   6.112   0.316
 1221WAT      O 5603   7.340   5.342   0.845
 1221WAT     H1 5604   7.273   5.295   0.875
 1221WAT     H2 5605   7.343   5.410   0.900
 1221WAT    EPW 5606   7.330   5.345   0.858
 1222WAT      O 5607   7.020   5.877   0.259
 1222WAT     H1 5608   7.063   5.933   0.310
 1222WAT     H2 5609   7.058   5.887   0.181
 1222WAT    EPW 5610   7.032   5.887   0.255
 1223WAT      O 5611   6.467   6.071   1.338
 1223WAT     H1 5612   6.470   6.125   1.406
 1223WAT     H2 5613   6.476   6.124   1.269
 1223WAT    EPW 5614   6.469   6.087   1.338
 1224WAT      O 5615   6.291   5.941   1.643
 1224WAT     H1 5616   6.210   5.913   1.658
 1224WAT     H2 5617   6.282   6.027   1.633
 1224WAT    EPW 5618   6.278   5.949   1.644
 1225WAT      O 5619   7.230   4.955   1.496
 1225WAT     H1 5620   7.289   5.007   1.534
 1225WAT     H2 5621   7.160   5.006   1.487
 1225WAT    EPW 5622   7.228   4.970   1.500
 1226WAT      O 5623   6.780   5.719   1.239
 1226WAT     H1 5624   6.834   5.746   1.302
 1226WAT     H2 5625   6.700   5.734   1.273
 1226WAT    EPW 5626   6.776   5.725   1.253
 1227WAT      O 5627   6.421   5.277   1.624
 1227WAT     H1 5628   6.434   5.197   1.656
 1227WAT     H2 5629   6.452   5.271   1.542
 1227WAT    EPW 5630   6.428   5.264   1.616
 1228WAT      O 5631   6.697   6.477   0.828
 1228WAT     H1 5632   6.696   6.562   0.847
 1228WAT     H2 5633   6.715   6.475   0.743
 1228WAT    EPW 5634   6.699   6.489   0.818
 1229WAT      O 5635   7.291   4.818   1.260
 1229WAT     H1 5636   7.284   4.857   1.338
 1229WAT     H2 5637   7.343   4.750   1.277
 1229WAT    EPW 5638   7.298   4.814   1.274
 1230WAT      O 5639   6.567   4.867   1.553
 1230WAT     H1 5640   6.653   4.880   1.543
 1230WAT     H2 5641   6.563   4.783   1.579
 1230WAT    EPW 5642   6.579   4.856   1.555
 1231WAT      O 5643   6.507   6.260   1.139
 1231WAT     H1 5644   6.461   6.315   1.090
 1231WAT     H2 5645   6.551   6.213   1.080
 1231WAT    EPW 5646   6.507   6.261   1.123
 1232WAT      O 5647   6.958   5.882   1.853
 1232WAT     H1 5648   7.038   5.885   1.818
 1232WAT     H2 5649   6.907   5.914   1.790
 1232WAT    EPW 5650   6.963   5.887   1.839
 1233WAT      O 5651   7.246   6.176   1.729
 1233WAT     H1 5652   7.297   6.212   1.789
 1233WAT     H2 5653   7.267   6.218   1.655
 1233WAT    EPW 5654   7.256   6.187   1.727
 1234WAT      O 5655   7.497   5.427   0.244
 1234WAT     H1 5656   7.552   5.469   0.192
 1234WAT     H2 5657   7.425   5.477   0.243
 1234WAT    EPW 5658   7.495   5.441   0.236
 1235WAT      O 5659   6.314   5.374   1.175
 1235WAT     H1 5660   6.343   5.343   1.099
 1235WAT     H2 5661   6.369   5.341   1.234
 1235WAT    EPW 5662   6.326   5.365   1.173
 1236WAT      O 5663   6.979   5.272   1.717
 1236WAT     H1 5664   6.924   5.338   1.727
 1236WAT     H2 5665   7.022   5.269   1.793
 1236WAT    EPW 5666   6.977   5.281   1.730
 1237WAT      O 5667   7.048   5.381   1.355
 1237WAT     H1 5668   7.048   5.435   1.424
 1237WAT     H2 5669   7.031   5.303   1.390
 1237WAT    EPW 5670   7.045   5.377   1.370
 1238WAT      O 5671   6.756   6.480   1.729
 1238WAT     H1 5672   6.777   6.465   1.645
 1238WAT     H2 5673   6.721   6.404   1.754
 1238WAT    EPW 5674   6.754   6.466   1.720
 1239WAT      O 5675   7.247   5.362   0.584
 1239WAT     H1 5676   7.264   5.353   0.669
 1239WAT     H2 5677   7.326   5.373   0.548
 1239WAT    EPW 5678   7.261   5.362   0.591
 1240WAT      O 5679   6.565   4.827   1.161
 1240WAT     H1 5680   6.480   4.824   1.179
 1240WAT     H2 5681   6.567   4.832   1.074
 1240WAT    EPW 5682   6.553   4.828   1.151
 1241WAT      O 5683   7.417   4.926   0.699
 1241WAT     H1 5684   7.334   4.903   0.714
 1241WAT     H2 5685   7.425   4.920   0.613
 1241WAT    EPW 5686   7.406   4.921   0.689
 1242WAT      O 5687   7.439   5.721   0.555
 1242WAT     H1 5688   7.482   5.645   0.555
 1242WAT     H2 5689   7.355   5.696   0.559
 1242WAT    EPW 5690   7.433   5.706   0.556
 1243WAT      O 5691   6.775   5.940   1.644
 1243WAT     H1 5692   6.699   5.940   1.687
 1243WAT     H2 5693   6.781   6.021   1.612
 1243WAT    EPW 5694   6.765   5.952   1.646
 1244WAT      O 5695   5.815   4.941   1.826
 1244WAT     H1 5696   5.811   5.010   1.773
 1244WAT     H2 5697   5.731   4.919   1.837
 1244WAT    EPW 5698   5.802   4.948   1.820
 1245WAT      O 5699   6.308   6.602   1.229
 1245WAT     H1 5700   6.305   6.585   1.315
 1245WAT     H2 5701   6.283   6.527   1.192
 1245WAT    EPW 5702   6.303   6.588   1.236
 1246WAT      O 5703   6.148   5.123   0.513
 1246WAT     H1 5704   6.149   5.091   0.432
 1246WAT     H2 5705   6.066   5.108   0.539
 1246WAT    EPW 5706   6.136   5.116   0.505
 1247WAT      O 5707   7.053   5.932   0.820
 1247WAT     H1 5708   7.035   5.952   0.903
 1247WAT     H2 5709   7.086   5.851   0.825
 1247WAT    EPW 5710   7.056   5.923   0.833
 1248WAT      O 5711   6.801   5.847   0.739
 1248WAT     H1 5712   6.764   5.838   0.817
 1248WAT     H2 5713   6.880   5.877   0.757
 1248WAT    EPW 5714   6.807   5.850   0.753
 1249WAT      O 5715   6.792   6.210   1.558
 1249WAT     H1 5716   6.845   6.210   1.627
 1249WAT     H2 5717   6.824   6.274   1.507
 1249WAT    EPW 5718   6.804   6.220   1.560
 1250WAT      O 5719   7.040   5.564   1.569
 1250WAT     H1 5720   6.975   5.540   1.622
 1250WAT     H2 5721   7.111   5.557   1.620
 1250WAT    EPW 5722   7.041   5.559   1.584
 1251WAT      O 5723   5.969   6.558   1.745
 1251WAT     H1 5724   5.914   6.491   1.734
 1251WAT     H2 5725   5.917   6.622   1.774
 1251WAT    EPW 5726   5.953   6.558   1.748
 1252WAT      O 5727   6.857   5.656   1.975
 1252WAT     H1 5728   6.888   5.729   1.939
 1252WAT     H2 5729   6.775   5.676   1.998
 1252WAT    EPW 5730   6.849   5.669   1.973
 1253WAT      O 5731   7.152   6.549   1.016
 1253WAT     H1 5732   7.096   6.609   1.045
 1253WAT     H2 5733   7.229   6.575   1.049
 1253WAT    EPW 5734   7.155   6.562   1.026
 1254WAT      O 5735   6.808   6.093   1.262
 1254WAT     H1 5736   6.737   6.072   1.307
 1254WAT     H2 5737   6.864   6.120   1.323
 1254WAT    EPW 5738   6.806   6.094   1.277
 1255WAT      O 5739   7.421   6.259   1.932
 1255WAT     H1 5740   7.503   6.240   1.907
 1255WAT     H2 5741   7.411   6.212   2.005
 1255WAT    EPW 5742   7.431   6.249   1.939
 1256WAT      O 5743   6.171   5.393   1.597
 1256WAT     H1 5744   6.184   5.451   1.533
 1256WAT     H2 5745   6.247   5.352   1.604
 1256WAT    EPW 5746   6.184   5.396   1.589
 1257WAT      O 5747   5.979   5.235   1.474
 1257WAT     H1 5748   5.997   5.245   1.390
 1257WAT     H2 5749   6.040   5.282   1.514
 1257WAT    EPW 5750   5.990   5.244   1.468
 1258WAT      O 5751   7.507   5.440   0.521
 1258WAT     H1 5752   7.521   5.423   0.437
 1258WAT     H2 5753   7.536   5.368   0.562
 1258WAT    EPW 5754   7.513   5.427   0.515
 1259WAT      O 5755   6.193   4.929   1.731
 1259WAT     H1 5756   6.161   4.848   1.733
 1259WAT     H2 5757   6.177   4.954   1.649
 1259WAT    EPW 5758   6.186   4.920   1.719
 1260WAT      O 5759   6.872   6.194   0.657
 1260WAT     H1 5760   6.853   6.273   0.626
 1260WAT     H2 5761   6.801   6.147   0.640
 1260WAT    EPW 5762   6.859   6.199   0.650
 1261WAT      O 5763   7.386   5.576   1.474
 1261WAT     H1 5764   7.431   5.508   1.445
 1261WAT     H2 5765   7.343   5.545   1.543
 1261WAT    EPW 5766   7.386   5.561   1.480
 1262WAT      O 5767   5.886   5.738   1.486
 1262WAT     H1 5768   5.935   5.751   1.415
 1262WAT     H2 5769   5.867   5.653   1.482
 1262WAT    EPW 5770   5.891   5.727   1.475
 1263WAT      O 5771   6.933   4.960   1.809
 1263WAT     H1 5772   6.963   5.031   1.848
 1263WAT     H2 5773   6.852   4.951   1.841
 1263WAT    EPW 5774   6.926   4.969   1.819
 1264WAT      O 5775   6.901   5.045   0.844
 1264WAT     H1 5776   6.821   5.080   0.844
 1264WAT     H2 5777   6.897   4.987   0.779
 1264WAT    EPW 5778   6.889   5.042   0.834
 1265WAT      O 5779   6.408   6.126   0.337
 1265WAT     H1 5780   6.430   6.167   0.411
 1265WAT     H2 5781   6.321   6.134   0.335
 1265WAT    EPW 5782   6.399   6.134   0.348
 1266WAT      O 5783   7.207   5.069   1.137
 1266WAT     H1 5784   7.256   5.006   1.172
 1266WAT     H2 5785   7.239   5.142   1.173
 1266WAT    EPW 5786   7.219   5.071   1.147
 1267WAT      O 5787   6.408   5.691   1.568
 1267WAT     H1 5788   6.369   5.765   1.593
 1267WAT     H2 5789   6.349   5.654   1.515
 1267WAT    EPW 5790   6.393   5.696   1.564
 1268WAT      O 5791   7.293   5.555   1.029
 1268WAT     H1 5792   7.309   5.616   1.090
 1268WAT     H2 5793   7.248   5.598   0.969
 1268WAT    EPW 5794   7.289   5.570   1.029
 1269WAT      O 5795   7.308   6.384   0.645
 1269WAT     H1 5796   7.269   6.308   0.664
 1269WAT     H2 5797   7.375   6.360   0.594
 1269WAT    EPW 5798   7.313   6.369   0.641
 1270WAT      O 5799   6.130   6.111   0.349
 1270WAT     H1 5800   6.126   6.094   0.434
 1270WAT     H2 5801   6.127   6.033   0.311
 1270WAT    EPW 5802   6.129   6.097   0.356
 1271WAT      O 5803   6.413   5.853   0.279
 1271WAT     H1 5804   6.328   5.853   0.258
 1271WAT     H2 5805   6.429   5.937   0.295
 1271WAT    EPW 5806   6.403   5.866   0.278
 1272WAT      O 5807   6.397   5.018   1.387
 1272WAT     H1 5808   6.314   4.999   1.407
 1272WAT     H2 5809   6.443   4.957   1.428
 1272WAT    EPW 5810   6.392   5.006   1.396
 1273WAT      O 5811   6.764   5.018   1.222
 1273WAT     H1 5812   6.700   4.959   1.216
 1273WAT     H2 5813   6.833   4.977   1.188
 1273WAT    EPW 5814   6.764   5.003   1.216
 1274WAT      O 5815   7.062   6.193   1.372
 1274WAT     H1 5816   7.120   6.240   1.417
 1274WAT     H2 5817   7.066   6.227   1.292
 1274WAT    EPW 5818   7.071   6.205   1.367
 1275WAT      O 5819   7.018   6.548   1.800
 1275WAT     H1 5820   6.940   6.517   1.774
 1275WAT     H2 5821   7.001   6.632   1.818
 1275WAT    EPW 5822   7.004   6.556   1.799
 1276WAT      O 5823   6.545   5.498   1.733
 1276WAT     H1 5824   6.508   5.428   1.699
 1276WAT     H2 5825   6.507   5.565   1.692
 1276WAT    EPW 5826   6.534   5.498   1.722
 1277WAT      O 5827   7.483   5.942   1.351
 1277WAT     H1 5828   7.448   5.876   1.306
 1277WAT     H2 5829   7.478   6.010   1.297
 1277WAT    EPW 5830   7.477   5.942   1.337
 1278WAT      O 5831   6.423   6.467   1.746
 1278WAT     H1 5832   6.409   6.474   1.832
 1278WAT     H2 5833   6.482   6.402   1.741
 1278WAT    EPW 5834   6.430   6.458   1.758
 1279WAT      O 5835   7.397   6.388   1.228
 1279WAT     H1 5836   7.450   6.406   1.162
 1279WAT     H2 5837   7.369   6.308   1.211
 1279WAT    EPW 5838   7.400   6.379   1.216
 1280WAT      O 5839   6.129   4.994   1.471
 1280WAT     H1 5840   6.077   4.927   1.450
 1280WAT     H2 5841   6.077   5.064   1.462
 1280WAT    EPW 5842   6.113   4.994   1.467
 1281WAT      O 5843   6.981   4.917   1.079
 1281WAT     H1 5844   7.045   4.971   1.106
 1281WAT     H2 5845   6.953   4.953   1.005
 1281WAT    EPW 5846   6.986   4.931   1.072
 1282WAT      O 5847   6.134   6.361   1.872
 1282WAT     H1 5848   6.204   6.395   1.913
 1282WAT     H2 5849   6.095   6.430   1.836
 1282WAT    EPW 5850   6.139   6.376   1.873
 1283WAT      O 5851   6.969   5.451   0.891
 1283WAT     H1 5852   7.017   5.378   0.900
 1283WAT     H2 5853   6.937   5.464   0.971
 1283WAT    EPW 5854   6.971   5.442   0.904
 1284WAT      O 5855   5.996   5.314   0.824
 1284WAT     H1 5856   5.954   5.337   0.896
 1284WAT     H2 5857   6.039   5.242   0.848
 1284WAT    EPW 5858   5.996   5.307   0.838
 1285WAT      O 5859   5.977   6.142   1.588
 1285WAT     H1 5860   5.928   6.203   1.627
 1285WAT     H2 5861   6.057   6.177   1.590
 1285WAT    EPW 5862   5.981   6.156   1.594
 1286WAT      O 5863   7.176   5.620   0.540
 1286WAT     H1 5864   7.188   5.534   0.553
 1286WAT     H2 5865   7.098   5.624   0.502
 1286WAT    EPW 5866   7.167   5.608   0.536
 1287WAT      O 5867   6.148   6.471   0.491
 1287WAT     H1 5868   6.105   6.449   0.418
 1287WAT     H2 5869   6.231   6.475   0.464
 1287WAT    EPW 5870   6.154   6.468   0.476
 1288WAT      O 5871   6.469   5.650   0.458
 1288WAT     H1 5872   6.467   5.710   0.395
 1288WAT     H2 5873   6.553   5.648   0.482
 1288WAT    EPW 5874   6.481   5.658   0.453
 1289WAT      O 5875   7.436   6.483   0.259
 1289WAT     H1 5876   7.473   6.431   0.319
 1289WAT     H2 5877   7.422   6.429   0.192
 1289WAT    EPW 5878   7.439   6.467   0.258
 1290WAT      O 5879   7.516   5.654   1.829
 1290WAT     H1 5880   7.594   5.628   1.798
 1290WAT     H2 5881   7.495   5.721   1.777
 1290WAT    EPW 5882   7.525   5.660   1.817
 1291WAT      O 5883   7.080   6.096   0.436
 1291WAT     H1 5884   7.114   6.101   0.517
 1291WAT     H2 5885   6.994   6.088   0.451
 1291WAT    EPW 5886   7.072   6.095   0.450
 1292WAT      O 5887   7.495   5.198   2.108
 1292WAT     H1 5888   7.509   5.283   2.092
 1292WAT     H2 5889   7.446   5.173   2.041
 1292WAT    EPW 5890   7.490   5.207   2.096
 1293WAT      O 5891   7.500   5.345   1.375
 1293WAT     H1 5892   7.434   5.332   1.319
 1293WAT     H2 5893   7.570   5.316   1.331
 1293WAT    EPW 5894   7.501   5.339   1.360
 1294WAT      O 5895   6.455   5.020   1.749
 1294WAT     H1 5896   6.491   4.981   1.679
 1294WAT     H2 5897   6.374   4.988   1.751
 1294WAT    EPW 5898   6.449   5.010   1.739
 1295WAT      O 5899   7.252   5.817   2.050
 1295WAT     H1 5900   7.330   5.840   2.081
 1295WAT     H2 5901   7.255   5.841   1.966
 1295WAT    EPW 5902   7.264   5.824   2.042
 1296WAT      O 5903   6.181   6.370   1.126
 1296WAT     H1 5904   6.172   6.291   1.088
 1296WAT     H2 5905   6.142   6.424   1.070
 1296WAT    EPW 5906   6.174   6.366   1.112
 1297WAT      O 5907   6.806   6.033   0.359
 1297WAT     H1 5908   6.851   5.978   0.309
 1297WAT     H2 5909   6.789   6.100   0.306
 1297WAT    EPW 5910   6.810   6.035   0.344
 1298WAT      O 5911   5.951   6.615   1.469
 1298WAT     H1 5912   5.960   6.596   1.554
 1298WAT     H2 5913   5.981   6.544   1.428
 1298WAT    EPW 5914   5.956   6.601   1.476
 1299WAT      O 5915   6.900   2.993   6.374
 1299WAT     H1 5916   6.893   3.032   6.297
 1299WAT     H2 5917   6.986   2.981   6.384
 1299WAT    EPW 5918   6.912   2.997   6.364
 1300WAT      O 5919   6.877   3.615   6.842
 1300WAT     H1 5920   6.846   3.693   6.866
 1300WAT     H2 5921   6.933   3.595   6.905
 1300WAT    EPW 5922   6.881   3.624   6.855
 1301WAT      O 5923   5.858   4.099   6.361
 1301WAT     H1 5924   5.831   4.100   6.445
 1301WAT     H2 5925   5.852   4.014   6.340
 1301WAT    EPW 5926   5.853   4.087   6.371
 1302WAT      O 5927   7.471   4.515   6.122
 1302WAT     H1 5928   7.547   4.504   6.163
 1302WAT     H2 5929   7.455   4.437   6.087
 1302WAT    EPW 5930   7.480   4.502   6.123
 1303WAT      O 5931   5.844   3.444   6.013
 1303WAT     H1 5932   5.779   3.490   5.977
 1303WAT     H2 5933   5.814   3.363   6.013
 1303WAT    EPW 5934   5.830   3.439   6.008
 1304WAT      O 5935   6.179   4.026   5.917
 1304WAT     H1 5936   6.140   3.986   5.851
 1304WAT     H2 5937   6.178   3.966   5.981
 1304WAT    EPW 5938   6.173   4.011   5.917
 1305WAT      O 5939   7.124   3.809   6.498
 1305WAT     H1 5940   7.132   3.800   6.412
 1305WAT     H2 5941   7.068   3.746   6.521
 1305WAT    EPW 5942   7.117   3.798   6.489
 1306WAT      O 5943   6.107   4.209   6.313
 1306WAT     H1 5944   6.162   4.170   6.368
 1306WAT     H2 5945   6.031   4.169   6.328
 1306WAT    EPW 5946   6.104   4.197   6.323
 1307WAT      O 5947   6.556   3.103   6.251
 1307WAT     H1 5948   6.553   3.172   6.198
 1307WAT     H2 5949   6.632   3.065   6.232
 1307WAT    EPW 5950   6.567   3.107   6.241
 1308WAT      O 5951   5.994   4.480   5.916
 1308WAT     H1 5952   6.039   4.489   5.842
 1308WAT     H2 5953   6.030   4.410   5.954
 1308WAT    EPW 5954   6.006   4.471   5.910
 1309WAT      O 5955   5.895   4.306   7.039
 1309WAT     H1 5956   5.923   4.281   7.117
 1309WAT     H2 5957   5.824   4.257   7.025
 1309WAT    EPW 5958   5.888   4.295   7.048
 1310WAT      O 5959   6.554   4.154   7.471
 1310WAT     H1 5960   6.564   4.107   7.544
 1310WAT     H2 5961   6.477   4.127   7.440
 1310WAT    EPW 5962   6.545   4.143   7.477
 1311WAT      O 5963   6.051   3.845   6.493
 1311WAT     H1 5964   6.003   3.845   6.420
 1311WAT     H2 5965   6.105   3.777   6.482
 1311WAT    EPW 5966   6.052   3.835   6.481
 1312WAT      O 5967   6.481   3.426   7.037
 1312WAT     H1 5968   6.549   3.430   6.983
 1312WAT     H2 5969   6.456   3.343   7.031
 1312WAT    EPW 5970   6.488   3.414   7.028
 1313WAT      O 5971   6.503   4.396   7.229
 1313WAT     H1 5972   6.481   4.471   7.190
 1313WAT     H2 5973   6.589   4.404   7.242
 1313WAT    EPW 5974   6.513   4.408   7.225
 1314WAT      O 5975   6.217   3.625   6.477
 1314WAT     H1 5976   6.283   3.572   6.500
 1314WAT     H2 5977   6.148   3.572   6.478
 1314WAT    EPW 5978   6.217   3.609   6.481
 1315WAT      O 5979   6.622   4.273   6.655
 1315WAT     H1 5980   6.646   4.190   6.670
 1315WAT     H2 5981   6.697   4.316   6.649
 1315WAT    EPW 5982   6.637   4.267   6.656
 1316WAT      O 5983   6.657   4.167   6.270
 1316WAT     H1 5984   6.697   4.107   6.320
 1316WAT     H2 5985   6.689   4.152   6.191
 1316WAT    EPW 5986   6.667   4.156   6.266
 1317WAT      O 5987   6.854   3.604   7.444
 1317WAT     H1 5988   6.771   3.612   7.416
 1317WAT     H2 5989   6.858   3.658   7.512
 1317WAT    EPW 5990   6.842   3.613   7.450
 1318WAT      O 5991   6.290   3.142   6.353
 1318WAT     H1 5992   6.252   3.198   6.299
 1318WAT     H2 5993   6.372   3.136   6.322
 1318WAT    EPW 5994   6.297   3.149   6.341
 1319WAT      O 5995   7.252   2.895   7.321
 1319WAT     H1 5996   7.242   2.970   7.278
 1319WAT     H2 5997   7.173   2.881   7.357
 1319WAT    EPW 5998   7.239   2.904   7.320
 1320WAT      O 5999   6.594   3.065   6.528
 1320WAT     H1 6000   6.603   3.149   6.551
 1320WAT     H2 6001   6.572   3.069   6.443
 1320WAT    EPW 6002   6.592   3.078   6.519
 1321WAT      O 6003   7.047   3.314   5.779
 1321WAT     H1 6004   7.001   3.378   5.815
 1321WAT     H2 6005   7.053   3.255   5.843
 1321WAT    EPW 6006   7.041   3.314   5.794
 1322WAT      O 6007   5.868   3.586   6.740
 1322WAT     H1 6008   5.869   3.672   6.751
 1322WAT     H2 6009   5.801   3.560   6.789
 1322WAT    EPW 6010   5.858   3.595   6.749
 1323WAT      O 6011   5.854   4.542   6.569
 1323WAT     H1 6012   5.791   4.591   6.534
 1323WAT     H2 6013   5.895   4.509   6.499
 1323WAT    EPW 6014   5.851   4.545   6.553
 1324WAT      O 6015   6.444   4.341   6.266
 1324WAT     H1 6016   6.410   4.334   6.346
 1324WAT     H2 6017   6.516   4.292   6.271
 1324WAT    EPW 6018   6.450   4.333   6.279
 1325WAT      O 6019   7.039   4.562   6.067
 1325WAT     H1 6020   7.103   4.622   6.070
 1325WAT     H2 6021   7.081   4.487   6.078
 1325WAT    EPW 6022   7.055   4.560   6.069
 1326WAT      O 6023   6.839   4.599   6.252
 1326WAT     H1 6024   6.861   4.673   6.292
 1326WAT     H2 6025   6.904   4.586   6.195
 1326WAT    EPW 6026   6.852   4.608   6.249
 1327WAT      O 6027   6.158   3.085   6.781
 1327WAT     H1 6028   6.112   3.018   6.749
 1327WAT     H2 6029   6.219   3.046   6.831
 1327WAT    EPW 6030   6.161   3.069   6.784
 1328WAT      O 6031   5.990   4.459   6.337
 1328WAT     H1 6032   6.040   4.388   6.345
 1328WAT     H2 6033   6.037   4.511   6.286
 1328WAT    EPW 6034   6.004   4.456   6.331
 1329WAT      O 6035   7.507   3.351   6.351
 1329WAT     H1 6036   7.468   3.394   6.416
 1329WAT     H2 6037   7.490   3.267   6.369
 1329WAT    EPW 6038   7.499   3.345   6.363
 1330WAT      O 6039   7.073   4.659   7.008
 1330WAT     H1 6040   7.134   4.717   6.987
 1330WAT     H2 6041   7.069   4.607   6.938
 1330WAT    EPW 6042   7.081   4.660   6.995
 1331WAT      O 6043   6.039   3.280   7.554
 1331WAT     H1 6044   5.970   3.227   7.551
 1331WAT     H2 6045   6.102   3.234   7.515
 1331WAT    EPW 6046   6.038   3.265   7.548
 1332WAT      O 6047   6.132   4.265   6.687
 1332WAT     H1 6048   6.193   4.259   6.625
 1332WAT     H2 6049   6.161   4.212   6.750
 1332WAT    EPW 6050   6.146   4.256   6.687
 1333WAT      O 6051   6.416   4.598   6.595
 1333WAT     H1 6052   6.498   4.614   6.567
 1333WAT     H2 6053   6.367   4.645   6.540
 1333WAT    EPW 6054   6.421   4.608   6.582
 1334WAT      O 6055   6.681   3.058   7.547
 1334WAT     H1 6056   6.692   2.981   7.508
 1334WAT     H2 6057   6.616   3.094   7.502
 1334WAT    EPW 6058   6.673   3.052   7.535
 1335WAT      O 6059   6.763   3.527   6.411
 1335WAT     H1 6060   6.793   3.484   6.341
 1335WAT     H2 6061   6.835   3.542   6.458
 1335WAT    EPW 6062   6.778   3.523   6.408
 1336WAT      O 6063   6.866   3.494   5.912
 1336WAT     H1 6064   6.888   3.575   5.939
 1336WAT     H2 6065   6.792   3.507   5.868
 1336WAT    EPW 6066   6.858   3.508   5.910
 1337WAT      O 6067   7.230   4.769   6.039
 1337WAT     H1 6068   7.276   4.733   5.974
 1337WAT     H2 6069   7.285   4.826   6.074
 1337WAT    EPW 6070   7.245   4.772   6.034
 1338WAT      O 6071   6.336   4.614   7.153
 1338WAT     H1 6072   6.344   4.637   7.237
 1338WAT     H2 6073   6.256   4.580   7.148
 1338WAT    EPW 6074   6.325   4.612   7.165
 1339WAT      O 6075   5.759   3.268   7.280
 1339WAT     H1 6076   5.754   3.330   7.341
 1339WAT     H2 6077   5.825   3.295   7.229
 1339WAT    EPW 6078   5.768   3.281   7.281
 1340WAT      O 6079   7.004   4.416   7.442
 1340WAT     H1 6080   7.019   4.500   7.461
 1340WAT     H2 6081   7.084   4.380   7.440
 1340WAT    EPW 6082   7.018   4.423   7.444
 1341WAT      O 6083   6.726   4.384   5.870
 1341WAT     H1 6084   6.694   4.445   5.924
 1341WAT     H2 6085   6.805   4.415   5.848
 1341WAT    EPW 6086   6.733   4.398   5.875
 1342WAT      O 6087   7.059   3.137   5.992
 1342WAT     H1 6088   7.110   3.066   5.997
 1342WAT     H2 6089   7.080   3.182   6.064
 1342WAT    EPW 6090   7.070   3.133   6.003
 1343WAT      O 6091   5.900   3.229   6.277
 1343WAT     H1 6092   5.878   3.146   6.262
 1343WAT     H2 6093   5.848   3.253   6.343
 1343WAT    EPW 6094   5.889   3.220   6.284
 1344WAT      O 6095   6.075   4.527   7.054
 1344WAT     H1 6096   6.019   4.460   7.053
 1344WAT     H2 6097   6.112   4.523   6.975
 1344WAT    EPW 6098   6.072   4.516   7.042
 1345WAT      O 6099   6.829   3.395   6.171
 1345WAT     H1 6100   6.759   3.345   6.154
 1345WAT     H2 6101   6.848   3.430   6.093
 1345WAT    EPW 6102   6.821   3.393   6.157
 1346WAT      O 6103   6.843   4.643   7.153
 1346WAT     H1 6104   6.919   4.645   7.111
 1346WAT     H2 6105   6.784   4.643   7.090
 1346WAT    EPW 6106   6.846   4.643   7.138
 1347WAT      O 6107   6.822   3.070   6.119
 1347WAT     H1 6108   6.766   3.051   6.055
 1347WAT     H2 6109   6.895   3.093   6.076
 1347WAT    EPW 6110   6.825   3.071   6.103
 1348WAT      O 6111   7.443   4.682   6.546
 1348WAT     H1 6112   7.454   4.756   6.502
 1348WAT     H2 6113   7.401   4.630   6.489
 1348WAT    EPW 6114   7.439   4.685   6.531
 1349WAT      O 6115   6.645   3.337   6.580
 1349WAT     H1 6116   6.673   3.402   6.529
 1349WAT     H2 6117   6.656   3.369   6.661
 1349WAT    EPW 6118   6.651   3.352   6.585
 1350WAT      O 6119   7.201   4.268   6.349
 1350WAT     H1 6120   7.272   4.217   6.356
 1350WAT     H2 6121   7.141   4.227   6.398
 1350WAT    EPW 6122   7.203   4.254   6.357
 1351WAT      O 6123   6.249   4.342   7.339
 1351WAT     H1 6124   6.326   4.367   7.308
 1351WAT     H2 6125   6.232   4.399   7.403
 1351WAT    EPW 6126   6.258   4.354   7.344
 1352WAT      O 6127   6.225   2.881   6.425
 1352WAT     H1 6128   6.243   2.965   6.406
 1352WAT     H2 6129   6.197   2.848   6.350
 1352WAT    EPW 6130   6.223   2.889   6.411
 1353WAT      O 6131   6.437   3.944   6.772
 1353WAT     H1 6132   6.462   3.926   6.853
 1353WAT     H2 6133   6.381   3.879   6.753
 1353WAT    EPW 6134   6.432   3.932   6.781
 1354WAT      O 6135   7.017   3.286   7.167
 1354WAT     H1 6136   7.016   3.314   7.249
 1354WAT     H2 6137   6.952   3.228   7.164
 1354WAT    EPW 6138   7.007   3.282   7.178
 1355WAT      O 6139   6.546   3.952   7.026
 1355WAT     H1 6140   6.522   4.036   7.032
 1355WAT     H2 6141   6.512   3.916   7.098
 1355WAT    EPW 6142   6.537   3.959   7.038
 1356WAT      O 6143   7.135   4.083   7.011
 1356WAT     H1 6144   7.079   4.033   7.055
 1356WAT     H2 6145   7.118   4.164   7.041
 1356WAT    EPW 6146   7.124   4.088   7.022
 1357WAT      O 6147   7.165   2.932   6.427
 1357WAT     H1 6148   7.164   2.914   6.512
 1357WAT     H2 6149   7.196   2.859   6.391
 1357WAT    EPW 6150   7.170   2.918   6.434
 1358WAT      O 6151   7.397   3.370   7.283
 1358WAT     H1 6152   7.441   3.346   7.354
 1358WAT     H2 6153   7.350   3.438   7.310
 1358WAT    EPW 6154   7.396   3.376   7.297
 1359WAT      O 6155   6.169   3.266   6.576
 1359WAT     H1 6156   6.198   3.216   6.511
 1359WAT     H2 6157   6.163   3.212   6.643
 1359WAT    EPW 6158   6.172   3.251   6.576
 1360WAT      O 6159   7.483   4.016   5.997
 1360WAT     H1 6160   7.464   3.969   6.068
 1360WAT     H2 6161   7.561   3.986   5.973
 1360WAT    EPW 6162   7.492   4.005   6.004
 1361WAT      O 6163   6.242   4.047   6.491
 1361WAT     H1 6164   6.298   4.013   6.434
 1361WAT     H2 6165   6.182   3.985   6.502
 1361WAT    EPW 6166   6.242   4.033   6.484
 1362WAT      O 6167   6.066   4.700   6.649
 1362WAT     H1 6168   5.992   4.661   6.625
 1362WAT     H2 6169   6.110   4.709   6.575
 1362WAT    EPW 6170   6.061   4.695   6.635
 1363WAT      O 6171   6.030   3.398   6.861
 1363WAT     H1 6172   6.114   3.423   6.857
 1363WAT     H2 6173   5.987   3.465   6.826
 1363WAT    EPW 6174   6.036   3.411   6.855
 1364WAT      O 6175   7.249   3.715   5.947
 1364WAT     H1 6176   7.246   3.796   5.915
 1364WAT     H2 6177   7.216   3.723   6.028
 1364WAT    EPW 6178   7.244   3.728   5.955
 1365WAT      O 6179   6.392   3.978   6.263
 1365WAT     H1 6180   6.439   4.051   6.257
 1365WAT     H2 6181   6.443   3.918   6.226
 1365WAT    EPW 6182   6.406   3.980   6.257
 1366WAT      O 6183   5.875   4.153   6.653
 1366WAT     H1 6184   5.824   4.214   6.689
 1366WAT     H2 6185   5.955   4.188   6.655
 1366WAT    EPW 6186   5.879   4.167   6.659
 1367WAT      O 6187   5.911   3.841   6.257
 1367WAT     H1 6188   5.893   3.756   6.256
 1367WAT     H2 6189   5.983   3.848   6.209
 1367WAT    EPW 6190   5.919   3.829   6.250
 1368WAT      O 6191   7.416   3.124   6.104
 1368WAT     H1 6192   7.480   3.120   6.045
 1368WAT     H2 6193   7.394   3.209   6.104
 1368WAT    EPW 6194   7.422   3.136   6.096
 1369WAT      O 6195   6.850   4.431   6.628
 1369WAT     H1 6196   6.804   4.502   6.609
 1369WAT     H2 6197   6.868   4.396   6.551
 1369WAT    EPW 6198   6.846   4.436   6.614
 1370WAT      O 6199   5.820   4.302   6.183
 1370WAT     H1 6200   5.873   4.359   6.223
 1370WAT     H2 6201   5.815   4.236   6.239
 1370WAT    EPW 6202   5.827   4.301   6.197
 1371WAT      O 6203   6.241   4.104   6.884
 1371WAT     H1 6204   6.294   4.147   6.939
 1371WAT     H2 6205   6.297   4.058   6.835
 1371WAT    EPW 6206   6.257   4.104   6.885
 1372WAT      O 6207   7.116   3.352   6.609
 1372WAT     H1 6208   7.146   3.311   6.680
 1372WAT     H2 6209   7.053   3.299   6.581
 1372WAT    EPW 6210   7.111   3.338   6.615
 1373WAT      O 6211   5.831   4.141   5.952
 1373WAT     H1 6212   5.907   4.097   5.947
 1373WAT     H2 6213   5.843   4.195   6.020
 1373WAT    EPW 6214   5.844   4.143   5.961
 1374WAT      O 6215   5.901   3.884   6.723
 1374WAT     H1 6216   5.953   3.863   6.655
 1374WAT     H2 6217   5.890   3.970   6.714
 1374WAT    EPW 6218   5.907   3.893   6.712
 1375WAT      O 6219   6.573   3.307   6.069
 1375WAT     H1 6220   6.563   3.279   5.987
 1375WAT     H2 6221   6.535   3.386   6.067
 1375WAT    EPW 6222   6.566   3.315   6.057
 1376WAT      O 6223   7.283   4.491   7.192
 1376WAT     H1 6224   7.271   4.571   7.224
 1376WAT     H2 6225   7.328   4.505   7.119
 1376WAT    EPW 6226   7.288   4.505   7.186
 1377WAT      O 6227   6.371   4.335   6.533
 1377WAT     H1 6228   6.379   4.419   6.554
 1377WAT     H2 6229   6.443   4.299   6.567
 1377WAT    EPW 6230   6.383   4.342   6.541
 1378WAT      O 6231   5.999   3.552   7.485
 1378WAT     H1 6232   6.018   3.475   7.521
 1378WAT     H2 6233   6.046   3.552   7.411
 1378WAT    EPW 6234   6.009   3.541   7.479
 1379WAT      O 6235   6.178   3.573   6.076
 1379WAT     H1 6236   6.162   3.505   6.129
 1379WAT     H2 6237   6.141   3.548   6.000
 1379WAT    EPW 6238   6.170   3.559   6.073
 1380WAT      O 6239   6.249   3.749   6.728
 1380WAT     H1 6240   6.239   3.720   6.646
 1380WAT     H2 6241   6.261   3.676   6.774
 1380WAT    EPW 6242   6.250   3.734   6.723
 1381WAT      O 6243   6.233   3.717   7.073
 1381WAT     H1 6244   6.256   3.664   7.007
 1381WAT     H2 6245   6.178   3.773   7.036
 1381WAT    EPW 6246   6.228   3.718   7.058
 1382WAT      O 6247   7.281   3.490   6.893
 1382WAT     H1 6248   7.211   3.511   6.942
 1382WAT     H2 6249   7.282   3.553   6.832
 1382WAT    EPW 6250   7.271   3.503   6.891
 1383WAT      O 6251   6.632   4.640   6.980
 1383WAT     H1 6252   6.594   4.569   6.945
 1383WAT     H2 6253   6.625   4.700   6.917
 1383WAT    EPW 6254   6.625   4.638   6.966
 1384WAT      O 6255   6.845   3.069   7.229
 1384WAT     H1 6256   6.862   2.986   7.207
 1384WAT     H2 6257   6.873   3.074   7.311
 1384WAT    EPW 6258   6.852   3.058   7.238
 1385WAT      O 6259   7.079   3.280   6.224
 1385WAT     H1 6260   7.131   3.349   6.239
 1385WAT     H2 6261   7.000   3.316   6.217
 1385WAT    EPW 6262   7.075   3.296   6.225
 1386WAT      O 6263   5.920   3.816   7.573
 1386WAT     H1 6264   5.968   3.872   7.527
 1386WAT     H2 6265   5.952   3.738   7.549
 1386WAT    EPW 6266   5.932   3.812   7.563
 1387WAT      O 6267   7.216   4.062   7.435
 1387WAT     H1 6268   7.231   4.148   7.435
 1387WAT     H2 6269   7.270   4.031   7.374
 1387WAT    EPW 6270   7.226   4.070   7.426
 1388WAT      O 6271   6.587   4.443   7.525
 1388WAT     H1 6272   6.602   4.432   7.611
 1388WAT     H2 6273   6.577   4.362   7.496
 1388WAT    EPW 6274   6.588   4.430   7.534
 1389WAT      O 6275   6.680   3.419   6.841
 1389WAT     H1 6276   6.744   3.478   6.848
 1389WAT     H2 6277   6.715   3.346   6.874
 1389WAT    EPW 6278   6.694   3.417   6.847
 1390WAT      O 6279   6.933   3.738   6.041
 1390WAT     H1 6280   6.909   3.790   5.975
 1390WAT     H2 6281   6.873   3.753   6.102
 1390WAT    EPW 6282   6.921   3.748   6.040
 1391WAT      O 6283   7.422   4.099   6.365
 1391WAT     H1 6284   7.462   4.084   6.441
 1391WAT     H2 6285   7.426   4.021   6.325
 1391WAT    EPW 6286   7.429   4.085   6.370
 1392WAT      O 6287   7.075   4.467   6.796
 1392WAT     H1 6288   7.004   4.444   6.752
 1392WAT     H2 6289   7.106   4.535   6.751
 1392WAT    EPW 6290   7.069   4.474   6.783
 1393WAT      O 6291   6.995   4.136   6.773
 1393WAT     H1 6292   6.924   4.172   6.810
 1393WAT     H2 6293   7.039   4.104   6.841
 1393WAT    EPW 6294   6.991   4.137   6.789
 1394WAT      O 6295   6.426   4.606   6.188
 1394WAT     H1 6296   6.430   4.530   6.230
 1394WAT     H2 6297   6.496   4.605   6.137
 1394WAT    EPW 6298   6.437   4.595   6.187
 1395WAT      O 6299   6.370   2.971   5.996
 1395WAT     H1 6300   6.369   2.957   6.082
 1395WAT     H2 6301   6.323   3.044   5.987
 1395WAT    EPW 6302   6.363   2.980   6.007
 1396WAT      O 6303   6.656   4.591   6.041
 1396WAT     H1 6304   6.715   4.598   6.105
 1396WAT     H2 6305   6.662   4.668   5.999
 1396WAT    EPW 6306   6.666   4.603   6.044
 1397WAT      O 6307   7.419   3.970   7.263
 1397WAT     H1 6308   7.405   3.896   7.218
 1397WAT     H2 6309   7.446   4.026   7.201
 1397WAT    EPW 6310   7.421   3.968   7.247
 1398WAT      O 6311   7.329   3.059   7.542
 1398WAT     H1 6312   7.316   3.001   7.477
 1398WAT     H2 6313   7.408   3.092   7.523
 1398WAT    EPW 6314   7.339   3.055   7.529
 1399WAT      O 6315   6.161   3.853   6.135
 1399WAT     H1 6316   6.177   3.767   6.125
 1399WAT     H2 6317   6.228   3.880   6.183
 1399WAT    EPW 6318   6.174   3.844   6.141
 1400WAT      O 6319   6.945   3.936   7.144
 1400WAT     H1 6320   6.891   3.979   7.197
 1400WAT     H2 6321   6.972   3.868   7.192
 1400WAT    EPW 6322   6.941   3.932   7.159
 1401WAT      O 6323   5.807   2.962   6.236
 1401WAT     H1 6324   5.809   2.907   6.169
 1401WAT     H2 6325   5.775   2.914   6.302
 1401WAT    EPW 6326   5.803   2.947   6.236
 1402WAT      O 6327   6.777   3.767   6.268
 1402WAT     H1 6328   6.786   3.834   6.325
 1402WAT     H2 6329   6.766   3.698   6.320
 1402WAT    EPW 6330   6.776   3.767   6.284
 1403WAT      O 6331   7.298   4.283   6.857
 1403WAT     H1 6332   7.234   4.316   6.807
 1403WAT     H2 6333   7.260   4.216   6.897
 1403WAT    EPW 6334   7.283   4.278   6.855
 1404WAT      O 6335   6.239   3.210   5.943
 1404WAT     H1 6336   6.177   3.205   5.881
 1404WAT     H2 6337   6.306   3.246   5.901
 1404WAT    EPW 6338   6.240   3.214   5.927
 1405WAT      O 6339   6.692   4.003   6.686
 1405WAT     H1 6340   6.610   3.978   6.703
 1405WAT     H2 6341   6.738   3.969   6.752
 1405WAT    EPW 6342   6.686   3.994   6.698
 1406WAT      O 6343   6.357   4.595   5.820
 1406WAT     H1 6344   6.380   4.528   5.870
 1406WAT     H2 6345   6.362   4.663   5.874
 1406WAT    EPW 6346   6.361   4.595   5.835
 1407WAT      O 6347   6.060   3.905   6.958
 1407WAT     H1 6348   6.112   3.972   6.940
 1407WAT     H2 6349   6.017   3.891   6.884
 1407WAT    EPW 6350   6.061   3.913   6.945
 1408WAT      O 6351   6.380   3.439   6.610
 1408WAT     H1 6352   6.457   3.400   6.596
 1408WAT     H2 6353   6.322   3.374   6.598
 1408WAT    EPW 6354   6.383   3.423   6.606
 1409WAT      O 6355   5.866   3.566   6.269
 1409WAT     H1 6356   5.900   3.524   6.337
 1409WAT     H2 6357   5.878   3.510   6.203
 1409WAT    EPW 6358   5.873   3.552   6.269
 1410WAT      O 6359   7.322   3.890   6.919
 1410WAT     H1 6360   7.333   3.834   6.986
 1410WAT     H2 6361   7.259   3.943   6.947
 1410WAT    EPW 6362   7.314   3.890   6.933
 1411WAT      O 6363   6.389   3.722   5.814
 1411WAT     H1 6364   6.369   3.672   5.883
 1411WAT     H2 6365   6.326   3.703   5.756
 1411WAT    EPW 6366   6.377   3.712   5.816
 1412WAT      O 6367   6.032   4.007   7.395
 1412WAT     H1 6368   5.999   3.961   7.329
 1412WAT     H2 6369   6.004   4.088   7.380
 1412WAT    EPW 6370   6.023   4.012   7.383
 1413WAT      O 6371   6.448   3.554   6.038
 1413WAT     H1 6372   6.480   3.625   6.077
 1413WAT     H2 6373   6.365   3.552   6.063
 1413WAT    EPW 6374   6.441   3.564   6.048
 1414WAT      O 6375   7.222   3.306   7.616
 1414WAT     H1 6376   7.191   3.302   7.698
 1414WAT     H2 6377   7.234   3.222   7.595
 1414WAT    EPW 6378   7.219   3.293   7.625
 1415WAT      O 6379   5.842   3.198   6.735
 1415WAT     H1 6380   5.822   3.230   6.656
 1415WAT     H2 6381   5.916   3.241   6.756
 1415WAT    EPW 6382   5.850   3.209   6.727
 1416WAT      O 6383   7.147   3.666   7.630
 1416WAT     H1 6384   7.195   3.738   7.648
 1416WAT     H2 6385   7.065   3.692   7.645
 1416WAT    EPW 6386   7.142   3.681   7.635
 1417WAT      O 6387   7.293   3.623   7.397
 1417WAT     H1 6388   7.363   3.670   7.421
 1417WAT     H2 6389   7.246   3.619   7.470
 1417WAT    EPW 6390   7.296   3.629   7.412
 1418WAT      O 6391   7.400   4.284   5.986
 1418WAT     H1 6392   7.427   4.203   6.000
 1418WAT     H2 6393   7.317   4.284   6.013
 1418WAT    EPW 6394   7.392   4.272   5.992
 1419WAT      O 6395   7.337   3.494   6.524
 1419WAT     H1 6396   7.274   3.443   6.556
 1419WAT     H2 6397   7.340   3.560   6.580
 1419WAT    EPW 6398   7.328   3.496   6.537
 1420WAT      O 6399   7.015   4.103   5.921
 1420WAT     H1 6400   7.088   4.056   5.915
 1420WAT     H2 6401   6.986   4.106   5.838
 1420WAT    EPW 6402   7.021   4.097   5.908
 1421WAT      O 6403   6.461   4.218   7.023
 1421WAT     H1 6404   6.468   4.264   7.097
 1421WAT     H2 6405   6.474   4.278   6.961
 1421WAT    EPW 6406   6.464   4.234   7.025
 1422WAT      O 6407   6.303   4.070   7.370
 1422WAT     H1 6408   6.225   4.037   7.388
 1422WAT     H2 6409   6.286   4.154   7.352
 1422WAT    EPW 6410   6.289   4.078   7.370
 1423WAT      O 6411   7.256   3.141   7.182
 1423WAT     H1 6412   7.307   3.205   7.213
 1423WAT     H2 6413   7.179   3.180   7.169
 1423WAT    EPW 6414   7.252   3.156   7.185
 1424WAT      O 6415   6.789   3.869   6.922
 1424WAT     H1 6416   6.844   3.892   6.985
 1424WAT     H2 6417   6.710   3.886   6.956
 1424WAT    EPW 6418   6.785   3.875   6.936
 1425WAT      O 6419   6.425   3.424   7.310
 1425WAT     H1 6420   6.444   3.344   7.338
 1425WAT     H2 6421   6.451   3.424   7.227
 1425WAT    EPW 6422   6.432   3.412   7.302
 1426WAT      O 6423   6.684   4.634   6.513
 1426WAT     H1 6424   6.689   4.721   6.520
 1426WAT     H2 6425   6.709   4.618   6.431
 1426WAT    EPW 6426   6.689   4.645   6.502
 1427WAT      O 6427   7.297   2.974   6.956
 1427WAT     H1 6428   7.301   3.016   7.032
 1427WAT     H2 6429   7.347   2.904   6.969
 1427WAT    EPW 6430   7.305   2.970   6.969
 1428WAT      O 6431   6.569   3.008   7.164
 1428WAT     H1 6432   6.650   3.040   7.166
 1428WAT     H2 6433   6.577   2.936   7.115
 1428WAT    EPW 6434   6.582   3.002   7.157
 1429WAT      O 6435   6.499   4.431   6.847
 1429WAT     H1 6436   6.438   4.471   6.800
 1429WAT     H2 6437   6.544   4.385   6.787
 1429WAT    EPW 6438   6.497   4.430   6.831
 1430WAT      O 6439   6.946   4.005   7.498
 1430WAT     H1 6440   7.028   4.025   7.475
 1430WAT     H2 6441   6.898   4.046   7.438
 1430WAT    EPW 6442   6.951   4.014   7.486
 1431WAT      O 6443   7.273   4.334   7.422
 1431WAT     H1 6444   7.334   4.370   7.473
 1431WAT     H2 6445   7.284   4.375   7.345
 1431WAT    EPW 6446   7.284   4.346   7.418
 1432WAT      O 6447   7.506   3.637   5.884
 1432WAT     H1 6448   7.519   3.685   5.812
 1432WAT     H2 6449   7.424   3.656   5.907
 1432WAT    EPW 6450   7.496   3.647   5.876
 1433WAT      O 6451   6.608   3.882   5.870
 1433WAT     H1 6452   6.540   3.839   5.838
 1433WAT     H2 6453   6.582   3.965   5.871
 1433WAT    EPW 6454   6.594   3.888   5.866
 1434WAT      O 6455   6.291   3.512   6.863
 1434WAT     H1 6456   6.324   3.485   6.787
 1434WAT     H2 6457   6.349   3.483   6.922
 1434WAT    EPW 6458   6.305   3.504   6.860
 1435WAT      O 6459   7.020   3.378   7.429
 1435WAT     H1 6460   6.970   3.447   7.447
 1435WAT     H2 6461   7.083   3.382   7.490
 1435WAT    EPW 6462   7.022   3.389   7.441
 1436WAT      O 6463   7.051   3.536   7.044
 1436WAT     H1 6464   7.048   3.588   7.114
 1436WAT     H2 6465   7.034   3.457   7.077
 1436WAT    EPW 6466   7.048   3.532   7.059
 1437WAT      O 6467   6.739   4.659   7.420
 1437WAT     H1 6468   6.755   4.647   7.335
 1437WAT     H2 6469   6.708   4.582   7.447
 1437WAT    EPW 6470   6.737   4.646   7.411
 1438WAT      O 6471   7.236   3.509   6.266
 1438WAT     H1 6472   7.260   3.504   6.350
 1438WAT     H2 6473   7.312   3.519   6.224
 1438WAT    EPW 6474   7.251   3.509   6.272
 1439WAT      O 6475   6.571   2.997   6.802
 1439WAT     H1 6476   6.489   2.978   6.824
 1439WAT     H2 6477   6.568   3.005   6.715
 1439WAT    EPW 6478   6.559   2.996   6.792
 1440WAT      O 6479   7.411   3.074   6.382
 1440WAT     H1 6480   7.328   3.051   6.397
 1440WAT     H2 6481   7.416   3.077   6.295
 1440WAT    EPW 6482   7.399   3.071   6.371
 1441WAT      O 6483   7.415   3.858   6.217
 1441WAT     H1 6484   7.454   3.779   6.216
 1441WAT     H2 6485   7.330   3.838   6.219
 1441WAT    EPW 6486   7.408   3.843   6.217
 1442WAT      O 6487   6.778   4.112   7.298
 1442WAT     H1 6488   6.703   4.112   7.343
 1442WAT     H2 6489   6.791   4.197   7.281
 1442WAT    EPW 6490   6.769   4.125   7.302
 1443WAT      O 6491   5.842   3.087   7.478
 1443WAT     H1 6492   5.814   3.140   7.415
 1443WAT     H2 6493   5.768   3.049   7.506
 1443WAT    EPW 6494   5.827   3.089   7.473
 1444WAT      O 6495   6.331   4.738   6.901
 1444WAT     H1 6496   6.339   4.707   6.982
 1444WAT     H2 6497   6.300   4.670   6.856
 1444WAT    EPW 6498   6.327   4.724   6.906
 1445WAT      O 6499   6.151   3.317   6.190
 1445WAT     H1 6500   6.164   3.281   6.112
 1445WAT     H2 6501   6.071   3.291   6.211
 1445WAT    EPW 6502   6.141   3.308   6.181
 1446WAT      O 6503   7.050   4.081   6.506
 1446WAT     H1 6504   7.033   4.103   6.589
 1446WAT     H2 6505   7.081   4.000   6.512
 1446WAT    EPW 6506   7.052   4.072   6.519
 1447WAT      O 6507   6.798   3.991   6.431
 1447WAT     H1 6508   6.761   3.989   6.510
 1447WAT     H2 6509   6.877   4.026   6.446
 1447WAT    EPW 6510   6.805   3.996   6.445
 1448WAT      O 6511   6.795   4.389   7.262
 1448WAT     H1 6512   6.856   4.391   7.324
 1448WAT     H2 6513   6.819   4.453   7.207
 1448WAT    EPW 6514   6.807   4.399   7.263
 1449WAT      O 6515   7.044   3.703   7.269
 1449WAT     H1 6516   6.981   3.673   7.321
 1449WAT     H2 6517   7.117   3.691   7.316
 1449WAT    EPW 6518   7.045   3.697   7.283
 1450WAT      O 6519   5.978   4.710   7.408
 1450WAT     H1 6520   5.920   4.645   7.401
 1450WAT     H2 6521   5.930   4.776   7.438
 1450WAT    EPW 6522   5.962   4.710   7.411
 1451WAT      O 6523   6.891   3.784   7.651
 1451WAT     H1 6524   6.909   3.857   7.606
 1451WAT     H2 6525   6.826   3.808   7.704
 1451WAT    EPW 6526   6.884   3.799   7.652
 1452WAT      O 6527   7.153   4.718   6.699
 1452WAT     H1 6528   7.098   4.775   6.735
 1452WAT     H2 6529   7.231   4.741   6.730
 1452WAT    EPW 6530   7.156   4.730   6.709
 1453WAT      O 6531   6.813   4.243   6.962
 1453WAT     H1 6532   6.753   4.209   7.015
 1453WAT     H2 6533   6.872   4.277   7.016
 1453WAT    EPW 6534   6.812   4.243   6.978
 1454WAT      O 6535   6.162   3.518   7.256
 1454WAT     H1 6536   6.181   3.586   7.205
 1454WAT     H2 6537   6.240   3.487   7.280
 1454WAT    EPW 6538   6.176   3.523   7.252
 1455WAT      O 6539   5.971   3.361   7.126
 1455WAT     H1 6540   5.987   3.371   7.041
 1455WAT     H2 6541   6.030   3.412   7.165
 1455WAT    EPW 6542   5.982   3.370   7.119
 1456WAT      O 6543   7.493   3.583   6.179
 1456WAT     H1 6544   7.523   3.573   6.098
 1456WAT     H2 6545   7.524   3.513   6.221
 1456WAT    EPW 6546   7.502   3.571   6.173
 1457WAT      O 6547   6.196   3.088   7.406
 1457WAT     H1 6548   6.151   3.015   7.424
 1457WAT     H2 6549   6.174   3.106   7.323
 1457WAT    EPW 6550   6.186   3.080   7.396
 1458WAT      O 6551   6.861   4.342   6.367
 1458WAT     H1 6552   6.853   4.417   6.323
 1458WAT     H2 6553   6.796   4.293   6.335
 1458WAT    EPW 6554   6.850   4.346   6.356
 1459WAT      O 6555   7.371   3.727   7.141
 1459WAT     H1 6556   7.427   3.667   7.111
 1459WAT     H2 6557   7.330   3.686   7.206
 1459WAT    EPW 6558   7.374   3.712   7.146
 1460WAT      O 6559   5.908   3.873   7.189
 1460WAT     H1 6560   5.951   3.887   7.113
 1460WAT     H2 6561   5.885   3.790   7.184
 1460WAT    EPW 6562   5.911   3.863   7.177
 1461WAT      O 6563   6.055   3.474   5.837
 1461WAT     H1 6564   5.983   3.469   5.886
 1461WAT     H2 6565   6.059   3.396   5.797
 1461WAT    EPW 6566   6.045   3.462   5.838
 1462WAT      O 6567   6.944   3.118   7.490
 1462WAT     H1 6568   6.961   3.203   7.479
 1462WAT     H2 6569   6.864   3.118   7.524
 1462WAT    EPW 6570   6.935   3.131   7.494
 1463WAT      O 6571   6.892   3.192   6.568
 1463WAT     H1 6572   6.814   3.230   6.568
 1463WAT     H2 6573   6.885   3.131   6.506
 1463WAT    EPW 6574   6.880   3.188   6.559
 1464WAT      O 6575   6.383   4.360   5.985
 1464WAT     H1 6576   6.416   4.360   6.065
 1464WAT     H2 6577   6.300   4.337   5.996
 1464WAT    EPW 6578   6.376   4.357   5.998
 1465WAT      O 6579   7.209   3.225   6.838
 1465WAT     H1 6580   7.262   3.163   6.869
 1465WAT     H2 6581   7.243   3.299   6.868
 1465WAT    EPW 6582   7.222   3.227   6.847
 1466WAT      O 6583   6.420   3.842   7.245
 1466WAT     H1 6584   6.379   3.909   7.283
 1466WAT     H2 6585   6.357   3.803   7.199
 1466WAT    EPW 6586   6.405   3.846   7.244
 1467WAT      O 6587   7.288   3.707   6.707
 1467WAT     H1 6588   7.306   3.769   6.765
 1467WAT     H2 6589   7.241   3.748   6.646
 1467WAT    EPW 6590   7.284   3.722   6.707
 1468WAT      O 6591   7.290   4.542   6.341
 1468WAT     H1 6592   7.259   4.461   6.351
 1468WAT     H2 6593   7.340   4.536   6.269
 1468WAT    EPW 6594   7.293   4.529   6.332
 1469WAT      O 6595   6.128   4.268   6.038
 1469WAT     H1 6596   6.126   4.249   6.123
 1469WAT     H2 6597   6.142   4.191   6.000
 1469WAT    EPW 6598   6.130   4.254   6.045
 1470WAT      O 6599   6.444   4.116   5.848
 1470WAT     H1 6600   6.365   4.082   5.863
 1470WAT     H2 6601   6.441   4.194   5.888
 1470WAT    EPW 6602   6.432   4.123   5.856
 1471WAT      O 6603   6.384   3.174   7.032
 1471WAT     H1 6604   6.304   3.152   7.060
 1471WAT     H2 6605   6.436   3.113   7.066
 1471WAT    EPW 6606   6.380   3.162   7.041
 1472WAT      O 6607   6.754   3.168   6.925
 1472WAT     H1 6608   6.692   3.118   6.892
 1472WAT     H2 6609   6.828   3.130   6.899
 1472WAT    EPW 6610   6.756   3.155   6.916
 1473WAT      O 6611   7.065   4.348   7.061
 1473WAT     H1 6612   7.118   4.397   7.109
 1473WAT     H2 6613   7.070   4.384   6.982
 1473WAT    EPW 6614   7.073   4.361   7.056
 1474WAT      O 6615   7.012   4.699   7.462
 1474WAT     H1 6616   6.927   4.681   7.451
 1474WAT     H2 6617   7.012   4.781   7.492
 1474WAT    EPW 6618   6.999   4.708   7.465
 1475WAT      O 6619   6.588   3.647   7.371
 1475WAT     H1 6620   6.537   3.576   7.362
 1475WAT     H2 6621   6.541   3.711   7.334
 1475WAT    EPW 6622   6.574   3.646   7.364
 1476WAT      O 6623   6.638   2.994   5.931
 1476WAT     H1 6624   6.647   3.004   5.845
 1476WAT     H2 6625   6.552   2.998   5.943
 1476WAT    EPW 6626   6.627   2.996   5.920
 1477WAT      O 6627   7.483   4.100   7.020
 1477WAT     H1 6628   7.450   4.034   6.974
 1477WAT     H2 6629   7.469   4.170   6.969
 1477WAT    EPW 6630   7.476   4.101   7.006
 1478WAT      O 6631   6.417   4.652   7.425
 1478WAT     H1 6632   6.465   4.724   7.434
 1478WAT     H2 6633   6.470   4.588   7.452
 1478WAT    EPW 6634   6.432   4.653   7.430
 1479WAT      O 6635   7.398   4.538   6.932
 1479WAT     H1 6636   7.462   4.553   6.875
 1479WAT     H2 6637   7.366   4.461   6.908
 1479WAT    EPW 6638   7.403   4.529   6.920
 1480WAT      O 6639   6.129   3.129   7.143
 1480WAT     H1 6640   6.076   3.064   7.120
 1480WAT     H2 6641   6.080   3.201   7.131
 1480WAT    EPW 6642   6.114   3.130   7.138
 1481WAT      O 6643   6.983   3.069   6.800
 1481WAT     H1 6644   7.047   3.123   6.823
 1481WAT     H2 6645   6.951   3.104   6.726
 1481WAT    EPW 6646   6.987   3.082   6.792
 1482WAT      O 6647   6.179   4.543   7.517
 1482WAT     H1 6648   6.252   4.589   7.503
 1482WAT     H2 6649   6.115   4.596   7.490
 1482WAT    EPW 6650   6.180   4.558   7.511
 1483WAT      O 6651   6.973   3.589   6.581
 1483WAT     H1 6652   7.023   3.518   6.592
 1483WAT     H2 6653   6.941   3.604   6.661
 1483WAT    EPW 6654   6.976   3.581   6.595
 1484WAT      O 6655   5.988   3.474   6.505
 1484WAT     H1 6656   5.945   3.499   6.577
 1484WAT     H2 6657   6.028   3.400   6.531
 1484WAT    EPW 6658   5.988   3.467   6.520
 1485WAT      O 6659   5.978   4.274   7.302
 1485WAT     H1 6660   5.931   4.343   7.326
 1485WAT     H2 6661   6.060   4.303   7.306
 1485WAT    EPW 6662   5.983   4.288   7.306
 1486WAT      O 6663   7.150   3.761   6.215
 1486WAT     H1 6664   7.165   3.677   6.233
 1486WAT     H2 6665   7.075   3.759   6.171
 1486WAT    EPW 6666   7.141   3.748   6.211
 1487WAT      O 6667   6.148   4.610   6.166
 1487WAT     H1 6668   6.117   4.602   6.085
 1487WAT     H2 6669   6.234   4.600   6.156
 1487WAT    EPW 6670   6.156   4.607   6.152
 1488WAT      O 6671   6.545   3.796   6.127
 1488WAT     H1 6672   6.571   3.831   6.051
 1488WAT     H2 6673   6.619   3.788   6.172
 1488WAT    EPW 6674   6.560   3.800   6.122
 1489WAT      O 6675   7.418   4.646   5.875
 1489WAT     H1 6676   7.446   4.614   5.951
 1489WAT     H2 6677   7.413   4.575   5.824
 1489WAT    EPW 6678   7.421   4.630   5.879
 1490WAT      O 6679   7.500   3.806   7.474
 1490WAT     H1 6680   7.586   3.804   7.484
 1490WAT     H2 6681   7.488   3.867   7.412
 1490WAT    EPW 6682   7.511   3.815   7.466
 1491WAT      O 6683   7.142   4.305   6.079
 1491WAT     H1 6684   7.144   4.282   6.164
 1491WAT     H2 6685   7.090   4.245   6.043
 1491WAT    EPW 6686   7.135   4.293   6.087
 1492WAT      O 6687   7.492   3.315   7.541
 1492WAT     H1 6688   7.542   3.366   7.591
 1492WAT     H2 6689   7.412   3.326   7.574
 1492WAT    EPW 6690   7.487   3.324   7.553
 1493WAT      O 6691   7.513   3.512   7.050
 1493WAT     H1 6692   7.451   3.495   6.990
 1493WAT     H2 6693   7.499   3.451   7.111
 1493WAT    EPW 6694   7.502   3.500   7.050
 1494WAT      O 6695   6.469   3.147   7.385
 1494WAT     H1 6696   6.490   3.106   7.311
 1494WAT     H2 6697   6.384   3.127   7.397
 1494WAT    EPW 6698   6.459   3.138   7.376
 1495WAT      O 6699   7.298   3.897   7.650
 1495WAT     H1 6700   7.372   3.872   7.611
 1495WAT     H2 6701   7.265   3.957   7.595
 1495WAT    EPW 6702   7.304   3.902   7.636
 1496WAT      O 6703   6.190   4.510   6.803
 1496WAT     H1 6704   6.175   4.433   6.766
 1496WAT     H2 6705   6.150   4.566   6.750
 1496WAT    EPW 6706   6.182   4.507   6.789
 1497WAT      O 6707   6.753   4.144   6.015
 1497WAT     H1 6708   6.835   4.123   5.994
 1497WAT     H2 6709   6.738   4.215   5.966
 1497WAT    EPW 6710   6.763   4.152   6.005
 1498WAT      O 6711   5.948   4.763   7.136
 1498WAT     H1 6712   5.960   4.745   7.220
 1498WAT     H2 6713   5.981   4.693   7.095
 1498WAT    EPW 6714   5.955   4.750   7.142
 1499WAT      O 6715   6.907   2.994   4.474
 1499WAT     H1 6716   6.900   3.032   4.396
 1499WAT     H2 6717   6.993   2.984   4.484
 1499WAT    EPW 6718   6.919   2.998   4.464
 1500WAT      O 6719   6.879   3.614   4.950
 1500WAT     H1 6720   6.847   3.692   4.974
 1500WAT     H2 6721   6.933   3.593   5.015
 1500WAT    EPW 6722   6.882   3.623   4.963
 1501WAT      O 6723   5.853   4.098   4.465
 1501WAT     H1 6724   5.863   4.110   4.550
 1501WAT     H2 6725   5.872   4.014   4.453
 1501WAT    EPW 6726   5.858   4.087   4.476
 1502WAT      O 6727   7.459   4.529   4.226
 1502WAT     H1 6728   7.521   4.533   4.287
 1502WAT     H2 6729   7.461   4.446   4.200
 1502WAT    EPW 6730   7.469   4.518   4.231
 1503WAT      O 6731   5.815   3.460   4.083
 1503WAT     H1 6732   5.744   3.507   4.064
 1503WAT     H2 6733   5.835   3.485   4.164
 1503WAT    EPW 6734   5.807   3.471   4.092
 1504WAT      O 6735   6.205   4.018   4.016
 1504WAT     H1 6736   6.149   3.982   3.960
 1504WAT     H2 6737   6.208   3.962   4.082
 1504WAT    EPW 6738   6.197   4.005   4.017
 1505WAT      O 6739   7.129   3.809   4.609
 1505WAT     H1 6740   7.135   3.803   4.523
 1505WAT     H2 6741   7.072   3.747   4.631
 1505WAT    EPW 6742   7.121   3.799   4.600
 1506WAT      O 6743   6.097   4.214   4.396
 1506WAT     H1 6744   6.151   4.179   4.454
 1506WAT     H2 6745   6.022   4.171   4.408
 1506WAT    EPW 6746   6.094   4.202   4.406
 1507WAT      O 6747   6.565   3.101   4.363
 1507WAT     H1 6748   6.562   3.173   4.313
 1507WAT     H2 6749   6.640   3.063   4.341
 1507WAT    EPW 6750   6.576   3.106   4.353
 1508WAT      O 6751   6.003   4.479   4.014
 1508WAT     H1 6752   6.047   4.488   3.939
 1508WAT     H2 6753   6.038   4.408   4.049
 1508WAT    EPW 6754   6.014   4.470   4.008
 1509WAT      O 6755   5.880   4.300   5.117
 1509WAT     H1 6756   5.911   4.284   5.197
 1509WAT     H2 6757   5.811   4.247   5.111
 1509WAT    EPW 6758   5.875   4.289   5.128
 1510WAT      O 6759   6.534   4.141   5.582
 1510WAT     H1 6760   6.512   4.129   5.666
 1510WAT     H2 6761   6.462   4.119   5.538
 1510WAT    EPW 6762   6.520   4.136   5.588
 1511WAT      O 6763   6.038   3.842   4.563
 1511WAT     H1 6764   5.980   3.792   4.523
 1511WAT     H2 6765   6.109   3.792   4.568
 1511WAT    EPW 6766   6.040   3.827   4.558
 1512WAT      O 6767   6.470   3.427   5.136
 1512WAT     H1 6768   6.539   3.430   5.083
 1512WAT     H2 6769   6.446   3.343   5.133
 1512WAT    EPW 6770   6.477   3.415   5.128
 1513WAT      O 6771   6.512   4.419   5.321
 1513WAT     H1 6772   6.511   4.489   5.270
 1513WAT     H2 6773   6.597   4.409   5.340
 1513WAT    EPW 6774   6.525   4.428   5.317
 1514WAT      O 6775   6.252   3.661   4.572
 1514WAT     H1 6776   6.322   3.614   4.593
 1514WAT     H2 6777   6.186   3.606   4.587
 1514WAT    EPW 6778   6.252   3.646   4.577
 1515WAT      O 6779   6.625   4.272   4.753
 1515WAT     H1 6780   6.649   4.189   4.769
 1515WAT     H2 6781   6.701   4.315   4.750
 1515WAT    EPW 6782   6.640   4.266   4.755
 1516WAT      O 6783   6.666   4.168   4.380
 1516WAT     H1 6784   6.707   4.109   4.429
 1516WAT     H2 6785   6.696   4.153   4.300
 1516WAT    EPW 6786   6.676   4.157   4.375
 1517WAT      O 6787   6.830   3.657   5.536
 1517WAT     H1 6788   6.745   3.653   5.516
 1517WAT     H2 6789   6.832   3.704   5.609
 1517WAT    EPW 6790   6.818   3.663   5.544
 1518WAT      O 6791   6.294   3.128   4.449
 1518WAT     H1 6792   6.255   3.189   4.401
 1518WAT     H2 6793   6.378   3.131   4.423
 1518WAT    EPW 6794   6.301   3.138   4.438
 1519WAT      O 6795   7.251   2.874   5.456
 1519WAT     H1 6796   7.238   2.946   5.408
 1519WAT     H2 6797   7.176   2.864   5.499
 1519WAT    EPW 6798   7.238   2.883   5.456
 1520WAT      O 6799   6.600   3.061   4.645
 1520WAT     H1 6800   6.606   3.144   4.670
 1520WAT     H2 6801   6.578   3.067   4.561
 1520WAT    EPW 6802   6.598   3.074   4.636
 1521WAT      O 6803   7.045   3.314   3.885
 1521WAT     H1 6804   6.995   3.378   3.918
 1521WAT     H2 6805   7.049   3.256   3.950
 1521WAT    EPW 6806   7.038   3.315   3.900
 1522WAT      O 6807   5.800   3.576   4.900
 1522WAT     H1 6808   5.761   3.650   4.875
 1522WAT     H2 6809   5.744   3.541   4.956
 1522WAT    EPW 6810   5.786   3.582   4.904
 1523WAT      O 6811   5.865   4.543   4.663
 1523WAT     H1 6812   5.799   4.591   4.631
 1523WAT     H2 6813   5.901   4.509   4.591
 1523WAT    EPW 6814   5.860   4.545   4.647
 1524WAT      O 6815   6.456   4.348   4.357
 1524WAT     H1 6816   6.419   4.338   4.436
 1524WAT     H2 6817   6.527   4.298   4.362
 1524WAT    EPW 6818   6.461   4.339   4.370
 1525WAT      O 6819   7.038   4.563   4.169
 1525WAT     H1 6820   7.102   4.622   4.173
 1525WAT     H2 6821   7.079   4.487   4.181
 1525WAT    EPW 6822   7.053   4.561   4.172
 1526WAT      O 6823   6.840   4.604   4.356
 1526WAT     H1 6824   6.864   4.678   4.395
 1526WAT     H2 6825   6.905   4.589   4.299
 1526WAT    EPW 6826   6.853   4.613   4.353
 1527WAT      O 6827   6.170   3.084   4.885
 1527WAT     H1 6828   6.115   3.023   4.855
 1527WAT     H2 6829   6.225   3.039   4.936
 1527WAT    EPW 6830   6.170   3.068   4.888
 1528WAT      O 6831   6.474   3.288   5.796
 1528WAT     H1 6832   6.476   3.250   5.717
 1528WAT     H2 6833   6.516   3.363   5.784
 1528WAT    EPW 6834   6.480   3.293   5.782
 1529WAT      O 6835   5.982   4.462   4.421
 1529WAT     H1 6836   6.030   4.390   4.428
 1529WAT     H2 6837   6.030   4.515   4.371
 1529WAT    EPW 6838   5.996   4.459   4.415
 1530WAT      O 6839   7.508   3.354   4.456
 1530WAT     H1 6840   7.469   3.398   4.521
 1530WAT     H2 6841   7.491   3.271   4.475
 1530WAT    EPW 6842   7.499   3.349   4.468
 1531WAT      O 6843   7.061   4.654   5.107
 1531WAT     H1 6844   7.124   4.712   5.090
 1531WAT     H2 6845   7.061   4.602   5.037
 1531WAT    EPW 6846   7.070   4.655   5.094
 1532WAT      O 6847   6.052   3.211   5.731
 1532WAT     H1 6848   5.971   3.186   5.711
 1532WAT     H2 6849   6.100   3.178   5.666
 1532WAT    EPW 6850   6.047   3.202   5.718
 1533WAT      O 6851   6.151   4.266   4.803
 1533WAT     H1 6852   6.203   4.244   4.737
 1533WAT     H2 6853   6.177   4.214   4.868
 1533WAT    EPW 6854   6.162   4.255   4.803
 1534WAT      O 6855   6.415   4.595   4.678
 1534WAT     H1 6856   6.498   4.611   4.656
 1534WAT     H2 6857   6.369   4.642   4.621
 1534WAT    EPW 6858   6.421   4.604   4.667
 1535WAT      O 6859   6.669   3.019   5.659
 1535WAT     H1 6860   6.684   2.946   5.616
 1535WAT     H2 6861   6.601   3.055   5.616
 1535WAT    EPW 6862   6.661   3.014   5.647
 1536WAT      O 6863   6.767   3.527   4.517
 1536WAT     H1 6864   6.797   3.485   4.447
 1536WAT     H2 6865   6.839   3.543   4.563
 1536WAT    EPW 6866   6.782   3.523   4.514
 1537WAT      O 6867   6.862   3.496   4.014
 1537WAT     H1 6868   6.883   3.576   4.043
 1537WAT     H2 6869   6.786   3.508   3.974
 1537WAT    EPW 6870   6.854   3.510   4.013
 1538WAT      O 6871   7.228   4.770   4.137
 1538WAT     H1 6872   7.272   4.732   4.072
 1538WAT     H2 6873   7.286   4.826   4.172
 1538WAT    EPW 6874   7.243   4.773   4.133
 1539WAT      O 6875   6.313   4.658   5.282
 1539WAT     H1 6876   6.335   4.650   5.366
 1539WAT     H2 6877   6.244   4.606   5.274
 1539WAT    EPW 6878   6.306   4.650   5.293
 1540WAT      O 6879   5.777   3.323   5.447
 1540WAT     H1 6880   5.774   3.396   5.494
 1540WAT     H2 6881   5.835   3.341   5.385
 1540WAT    EPW 6882   5.785   3.336   5.444
 1541WAT      O 6883   6.965   4.357   5.562
 1541WAT     H1 6884   6.961   4.392   5.642
 1541WAT     H2 6885   7.050   4.345   5.548
 1541WAT    EPW 6886   6.977   4.361   5.571
 1542WAT      O 6887   6.728   4.389   3.974
 1542WAT     H1 6888   6.696   4.450   4.028
 1542WAT     H2 6889   6.806   4.419   3.952
 1542WAT    EPW 6890   6.735   4.402   3.979
 1543WAT      O 6891   7.057   3.135   4.096
 1543WAT     H1 6892   7.107   3.064   4.100
 1543WAT     H2 6893   7.078   3.180   4.168
 1543WAT    EPW 6894   7.068   3.131   4.107
 1544WAT      O 6895   5.902   3.222   4.361
 1544WAT     H1 6896   5.890   3.135   4.364
 1544WAT     H2 6897   5.861   3.250   4.433
 1544WAT    EPW 6898   5.894   3.213   4.372
 1545WAT      O 6899   6.072   4.526   5.156
 1545WAT     H1 6900   6.010   4.465   5.149
 1545WAT     H2 6901   6.113   4.521   5.079
 1545WAT    EPW 6902   6.069   4.516   5.143
 1546WAT      O 6903   6.832   3.395   4.275
 1546WAT     H1 6904   6.759   3.350   4.260
 1546WAT     H2 6905   6.850   3.431   4.197
 1546WAT    EPW 6906   6.824   3.394   4.261
 1547WAT      O 6907   6.837   4.634   5.259
 1547WAT     H1 6908   6.909   4.638   5.211
 1547WAT     H2 6909   6.773   4.633   5.200
 1547WAT    EPW 6910   6.838   4.635   5.243
 1548WAT      O 6911   6.819   3.063   4.216
 1548WAT     H1 6912   6.761   3.047   4.153
 1548WAT     H2 6913   6.890   3.088   4.173
 1548WAT    EPW 6914   6.821   3.064   4.201
 1549WAT      O 6915   7.507   4.668   4.511
 1549WAT     H1 6916   7.489   4.753   4.512
 1549WAT     H2 6917   7.428   4.630   4.511
 1549WAT    EPW 6918   7.492   4.675   4.511
 1550WAT      O 6919   6.653   3.338   4.690
 1550WAT     H1 6920   6.680   3.402   4.639
 1550WAT     H2 6921   6.664   3.369   4.771
 1550WAT    EPW 6922   6.658   3.352   4.694
 1551WAT      O 6923   7.197   4.266   4.452
 1551WAT     H1 6924   7.268   4.216   4.459
 1551WAT     H2 6925   7.139   4.226   4.502
 1551WAT    EPW 6926   7.199   4.252   4.460
 1552WAT      O 6927   6.252   4.365   5.443
 1552WAT     H1 6928   6.327   4.399   5.416
 1552WAT     H2 6929   6.235   4.409   5.517
 1552WAT    EPW 6930   6.260   4.377   5.450
 1553WAT      O 6931   6.233   2.876   4.548
 1553WAT     H1 6932   6.251   2.958   4.524
 1553WAT     H2 6933   6.207   2.838   4.474
 1553WAT    EPW 6934   6.232   2.883   4.533
 1554WAT      O 6935   6.436   3.951   4.884
 1554WAT     H1 6936   6.461   3.925   4.963
 1554WAT     H2 6937   6.377   3.892   4.860
 1554WAT    EPW 6938   6.431   3.938   4.892
 1555WAT      O 6939   7.018   3.280   5.278
 1555WAT     H1 6940   7.010   3.318   5.356
 1555WAT     H2 6941   6.951   3.225   5.275
 1555WAT    EPW 6942   7.007   3.278   5.289
 1556WAT      O 6943   6.540   3.935   5.140
 1556WAT     H1 6944   6.531   4.022   5.149
 1556WAT     H2 6945   6.507   3.903   5.214
 1556WAT    EPW 6946   6.534   3.943   5.152
 1557WAT      O 6947   7.130   4.086   5.122
 1557WAT     H1 6948   7.072   4.037   5.164
 1557WAT     H2 6949   7.113   4.167   5.149
 1557WAT    EPW 6950   7.119   4.091   5.132
 1558WAT      O 6951   7.172   2.935   4.537
 1558WAT     H1 6952   7.170   2.916   4.623
 1558WAT     H2 6953   7.195   2.859   4.500
 1558WAT    EPW 6954   7.175   2.921   4.545
 1559WAT      O 6955   5.787   4.352   5.763
 1559WAT     H1 6956   5.847   4.400   5.804
 1559WAT     H2 6957   5.795   4.273   5.801
 1559WAT    EPW 6958   5.797   4.347   5.775
 1560WAT      O 6959   7.404   3.281   5.415
 1560WAT     H1 6960   7.426   3.358   5.381
 1560WAT     H2 6961   7.384   3.300   5.497
 1560WAT    EPW 6962   7.404   3.295   5.422
 1561WAT      O 6963   6.205   3.263   4.679
 1561WAT     H1 6964   6.229   3.211   4.613
 1561WAT     H2 6965   6.193   3.209   4.746
 1561WAT    EPW 6966   6.207   3.248   4.679
 1562WAT      O 6967   7.482   4.018   4.100
 1562WAT     H1 6968   7.461   3.970   4.170
 1562WAT     H2 6969   7.562   3.990   4.078
 1562WAT    EPW 6970   7.491   4.007   4.107
 1563WAT      O 6971   6.217   4.062   4.592
 1563WAT     H1 6972   6.286   4.035   4.547
 1563WAT     H2 6973   6.162   3.994   4.589
 1563WAT    EPW 6974   6.219   4.048   4.585
 1564WAT      O 6975   6.081   4.691   4.741
 1564WAT     H1 6976   6.008   4.649   4.719
 1564WAT     H2 6977   6.124   4.699   4.665
 1564WAT    EPW 6978   6.077   4.686   4.726
 1565WAT      O 6979   6.015   3.425   4.987
 1565WAT     H1 6980   6.093   3.449   4.957
 1565WAT     H2 6981   5.960   3.479   4.947
 1565WAT    EPW 6982   6.018   3.436   4.977
 1566WAT      O 6983   7.243   3.714   4.052
 1566WAT     H1 6984   7.241   3.795   4.019
 1566WAT     H2 6985   7.208   3.723   4.131
 1566WAT    EPW 6986   7.238   3.728   4.059
 1567WAT      O 6987   6.423   4.001   4.412
 1567WAT     H1 6988   6.485   4.062   4.407
 1567WAT     H2 6989   6.452   3.939   4.358
 1567WAT    EPW 6990   6.437   4.001   4.403
 1568WAT      O 6991   5.901   4.169   4.730
 1568WAT     H1 6992   5.847   4.224   4.772
 1568WAT     H2 6993   5.980   4.201   4.748
 1568WAT    EPW 6994   5.904   4.182   4.739
 1569WAT      O 6995   6.613   3.533   5.775
 1569WAT     H1 6996   6.556   3.576   5.823
 1569WAT     H2 6997   6.602   3.566   5.695
 1569WAT    EPW 6998   6.603   3.544   5.770
 1570WAT      O 6999   5.913   3.912   4.219
 1570WAT     H1 7000   5.881   3.836   4.249
 1570WAT     H2 7001   6.000   3.900   4.220
 1570WAT    EPW 7002   5.921   3.899   4.224
 1571WAT      O 7003   7.409   3.112   4.213
 1571WAT     H1 7004   7.477   3.108   4.158
 1571WAT     H2 7005   7.383   3.196   4.207
 1571WAT    EPW 7006   7.415   3.124   4.204
 1572WAT      O 7007   6.854   4.431   4.732
 1572WAT     H1 7008   6.806   4.502   4.712
 1572WAT     H2 7009   6.872   4.397   4.654
 1572WAT    EPW 7010   6.849   4.436   4.717
 1573WAT      O 7011   5.795   4.302   4.289
 1573WAT     H1 7012   5.853   4.359   4.323
 1573WAT     H2 7013   5.796   4.235   4.345
 1573WAT    EPW 7014   5.804   4.301   4.302
 1574WAT      O 7015   6.254   4.113   5.010
 1574WAT     H1 7016   6.308   4.151   5.067
 1574WAT     H2 7017   6.307   4.064   4.961
 1574WAT    EPW 7018   6.269   4.111   5.011
 1575WAT      O 7019   7.121   3.351   4.716
 1575WAT     H1 7020   7.151   3.309   4.786
 1575WAT     H2 7021   7.058   3.299   4.686
 1575WAT    EPW 7022   7.116   3.337   4.722
 1576WAT      O 7023   5.804   4.125   4.071
 1576WAT     H1 7024   5.843   4.054   4.103
 1576WAT     H2 7025   5.812   4.183   4.136
 1576WAT    EPW 7026   5.811   4.123   4.085
 1577WAT      O 7027   5.919   3.911   4.827
 1577WAT     H1 7028   5.962   3.870   4.763
 1577WAT     H2 7029   5.913   3.993   4.800
 1577WAT    EPW 7030   5.924   3.917   4.814
 1578WAT      O 7031   6.575   3.309   4.186
 1578WAT     H1 7032   6.559   3.284   4.104
 1578WAT     H2 7033   6.540   3.389   4.190
 1578WAT    EPW 7034   6.568   3.317   4.175
 1579WAT      O 7035   7.274   4.486   5.311
 1579WAT     H1 7036   7.267   4.563   5.351
 1579WAT     H2 7037   7.324   4.503   5.241
 1579WAT    EPW 7038   7.280   4.500   5.307
 1580WAT      O 7039   6.382   4.329   4.622
 1580WAT     H1 7040   6.384   4.413   4.643
 1580WAT     H2 7041   6.455   4.297   4.657
 1580WAT    EPW 7042   6.393   4.337   4.630
 1581WAT      O 7043   6.165   3.657   5.654
 1581WAT     H1 7044   6.123   3.597   5.702
 1581WAT     H2 7045   6.163   3.624   5.573
 1581WAT    EPW 7046   6.158   3.643   5.649
 1582WAT      O 7047   6.186   3.565   4.161
 1582WAT     H1 7048   6.161   3.508   4.222
 1582WAT     H2 7049   6.143   3.539   4.089
 1582WAT    EPW 7050   6.176   3.553   4.159
 1583WAT      O 7051   6.240   3.772   4.826
 1583WAT     H1 7052   6.243   3.742   4.744
 1583WAT     H2 7053   6.241   3.699   4.874
 1583WAT    EPW 7054   6.241   3.756   4.821
 1584WAT      O 7055   6.224   3.722   5.181
 1584WAT     H1 7056   6.245   3.670   5.113
 1584WAT     H2 7057   6.170   3.780   5.146
 1584WAT    EPW 7058   6.219   3.723   5.166
 1585WAT      O 7059   7.279   3.487   5.009
 1585WAT     H1 7060   7.208   3.506   5.055
 1585WAT     H2 7061   7.282   3.549   4.948
 1585WAT    EPW 7062   7.269   3.499   5.007
 1586WAT      O 7063   6.609   4.616   5.104
 1586WAT     H1 7064   6.581   4.551   5.054
 1586WAT     H2 7065   6.599   4.687   5.054
 1586WAT    EPW 7066   6.604   4.617   5.089
 1587WAT      O 7067   6.843   3.066   5.343
 1587WAT     H1 7068   6.865   2.984   5.322
 1587WAT     H2 7069   6.875   3.076   5.424
 1587WAT    EPW 7070   6.851   3.055   5.352
 1588WAT      O 7071   7.083   3.281   4.326
 1588WAT     H1 7072   7.133   3.350   4.343
 1588WAT     H2 7073   7.003   3.315   4.319
 1588WAT    EPW 7074   7.078   3.296   4.327
 1589WAT      O 7075   6.039   3.896   5.716
 1589WAT     H1 7076   6.033   3.942   5.642
 1589WAT     H2 7077   6.083   3.824   5.693
 1589WAT    EPW 7078   6.045   3.892   5.702
 1590WAT      O 7079   7.234   4.053   5.581
 1590WAT     H1 7080   7.236   4.139   5.566
 1590WAT     H2 7081   7.286   4.020   5.519
 1590WAT    EPW 7082   7.242   4.061   5.569
 1591WAT      O 7083   6.614   4.411   5.617
 1591WAT     H1 7084   6.642   4.402   5.699
 1591WAT     H2 7085   6.588   4.330   5.595
 1591WAT    EPW 7086   6.614   4.398   5.626
 1592WAT      O 7087   6.680   3.419   4.952
 1592WAT     H1 7088   6.744   3.478   4.958
 1592WAT     H2 7089   6.715   3.346   4.984
 1592WAT    EPW 7090   6.695   3.417   4.957
 1593WAT      O 7091   6.929   3.739   4.146
 1593WAT     H1 7092   6.904   3.790   4.079
 1593WAT     H2 7093   6.868   3.752   4.206
 1593WAT    EPW 7094   6.916   3.748   4.145
 1594WAT      O 7095   7.420   4.099   4.467
 1594WAT     H1 7096   7.462   4.084   4.542
 1594WAT     H2 7097   7.423   4.022   4.427
 1594WAT    EPW 7098   7.427   4.086   4.472
 1595WAT      O 7099   7.081   4.465   4.898
 1595WAT     H1 7100   7.010   4.440   4.854
 1595WAT     H2 7101   7.111   4.533   4.853
 1595WAT    EPW 7102   7.075   4.471   4.885
 1596WAT      O 7103   6.986   4.138   4.886
 1596WAT     H1 7104   6.914   4.170   4.923
 1596WAT     H2 7105   7.032   4.108   4.954
 1596WAT    EPW 7106   6.982   4.139   4.902
 1597WAT      O 7107   6.423   4.610   4.276
 1597WAT     H1 7108   6.429   4.535   4.320
 1597WAT     H2 7109   6.496   4.611   4.228
 1597WAT    EPW 7110   6.435   4.599   4.276
 1598WAT      O 7111   6.363   2.969   4.115
 1598WAT     H1 7112   6.381   2.974   4.201
 1598WAT     H2 7113   6.319   3.043   4.099
 1598WAT    EPW 7114   6.359   2.981   4.126
 1599WAT      O 7115   6.661   4.601   4.140
 1599WAT     H1 7116   6.717   4.606   4.207
 1599WAT     H2 7117   6.667   4.679   4.102
 1599WAT    EPW 7118   6.670   4.613   4.145
 1600WAT      O 7119   7.437   3.970   5.401
 1600WAT     H1 7120   7.422   3.896   5.357
 1600WAT     H2 7121   7.455   4.028   5.338
 1600WAT    EPW 7122   7.437   3.968   5.385
 1601WAT      O 7123   6.970   4.503   5.805
 1601WAT     H1 7124   6.995   4.525   5.885
 1601WAT     H2 7125   6.995   4.571   5.756
 1601WAT    EPW 7126   6.977   4.516   5.809
 1602WAT      O 7127   7.346   3.007   5.691
 1602WAT     H1 7128   7.328   2.962   5.617
 1602WAT     H2 7129   7.375   2.945   5.745
 1602WAT    EPW 7130   7.347   2.991   5.688
 1603WAT      O 7131   6.183   3.839   4.228
 1603WAT     H1 7132   6.174   3.753   4.218
 1603WAT     H2 7133   6.222   3.846   4.306
 1603WAT    EPW 7134   6.188   3.827   4.238
 1604WAT      O 7135   6.934   3.946   5.252
 1604WAT     H1 7136   6.882   3.983   5.311
 1604WAT     H2 7137   6.965   3.876   5.293
 1604WAT    EPW 7138   6.931   3.941   5.267
 1605WAT      O 7139   5.819   2.949   4.320
 1605WAT     H1 7140   5.811   2.893   4.253
 1605WAT     H2 7141   5.780   2.907   4.386
 1605WAT    EPW 7142   5.812   2.934   4.319
 1606WAT      O 7143   6.771   3.768   4.373
 1606WAT     H1 7144   6.783   3.833   4.429
 1606WAT     H2 7145   6.760   3.698   4.424
 1606WAT    EPW 7146   6.771   3.767   4.389
 1607WAT      O 7147   7.299   4.285   4.973
 1607WAT     H1 7148   7.237   4.320   4.922
 1607WAT     H2 7149   7.258   4.218   5.012
 1607WAT    EPW 7150   7.284   4.280   4.971
 1608WAT      O 7151   6.235   3.206   4.051
 1608WAT     H1 7152   6.172   3.204   3.991
 1608WAT     H2 7153   6.301   3.246   4.010
 1608WAT    EPW 7154   6.236   3.211   4.036
 1609WAT      O 7155   6.691   4.001   4.792
 1609WAT     H1 7156   6.609   3.979   4.810
 1609WAT     H2 7157   6.737   3.969   4.859
 1609WAT    EPW 7158   6.686   3.993   4.804
 1610WAT      O 7159   6.368   4.594   3.908
 1610WAT     H1 7160   6.389   4.526   3.958
 1610WAT     H2 7161   6.370   4.661   3.963
 1610WAT    EPW 7162   6.371   4.594   3.923
 1611WAT      O 7163   6.058   3.919   5.072
 1611WAT     H1 7164   6.112   3.986   5.057
 1611WAT     H2 7165   6.019   3.906   4.995
 1611WAT    EPW 7166   6.060   3.927   5.059
 1612WAT      O 7167   6.395   3.458   4.715
 1612WAT     H1 7168   6.472   3.417   4.706
 1612WAT     H2 7169   6.336   3.395   4.701
 1612WAT    EPW 7170   6.398   3.443   4.712
 1613WAT      O 7171   7.320   3.885   5.044
 1613WAT     H1 7172   7.331   3.833   5.114
 1613WAT     H2 7173   7.255   3.938   5.069
 1613WAT    EPW 7174   7.312   3.885   5.058
 1614WAT      O 7175   6.387   3.717   3.923
 1614WAT     H1 7176   6.352   3.684   3.996
 1614WAT     H2 7177   6.325   3.704   3.863
 1614WAT    EPW 7178   6.372   3.710   3.925
 1615WAT      O 7179   6.025   4.026   5.472
 1615WAT     H1 7180   5.983   3.977   5.414
 1615WAT     H2 7181   6.001   4.107   5.451
 1615WAT    EPW 7182   6.015   4.031   5.461
 1616WAT      O 7183   6.460   3.559   4.168
 1616WAT     H1 7184   6.481   3.637   4.200
 1616WAT     H2 7185   6.374   3.554   4.178
 1616WAT    EPW 7186   6.451   3.570   4.174
 1617WAT      O 7187   7.324   3.284   5.692
 1617WAT     H1 7188   7.241   3.299   5.717
 1617WAT     H2 7189   7.329   3.197   5.692
 1617WAT    EPW 7190   7.312   3.273   5.696
 1618WAT      O 7191   5.836   3.225   4.850
 1618WAT     H1 7192   5.817   3.250   4.769
 1618WAT     H2 7193   5.903   3.276   4.872
 1618WAT    EPW 7194   5.843   3.236   4.841
 1619WAT      O 7195   7.093   3.635   5.732
 1619WAT     H1 7196   7.138   3.645   5.806
 1619WAT     H2 7197   7.020   3.681   5.746
 1619WAT    EPW 7198   7.089   3.643   5.745
 1620WAT      O 7199   7.272   3.687   5.527
 1620WAT     H1 7200   7.342   3.716   5.569
 1620WAT     H2 7201   7.219   3.661   5.591
 1620WAT    EPW 7202   7.274   3.688   5.543
 1621WAT      O 7203   7.405   4.288   4.091
 1621WAT     H1 7204   7.430   4.206   4.104
 1621WAT     H2 7205   7.321   4.288   4.118
 1621WAT    EPW 7206   7.396   4.276   4.097
 1622WAT      O 7207   7.339   3.498   4.632
 1622WAT     H1 7208   7.277   3.445   4.664
 1622WAT     H2 7209   7.341   3.564   4.689
 1622WAT    EPW 7210   7.330   3.500   4.645
 1623WAT      O 7211   7.016   4.105   4.020
 1623WAT     H1 7212   7.089   4.058   4.015
 1623WAT     H2 7213   6.986   4.105   3.938
 1623WAT    EPW 7214   7.023   4.098   4.007
 1624WAT      O 7215   6.501   4.217   5.132
 1624WAT     H1 7216   6.497   4.269   5.202
 1624WAT     H2 7217   6.493   4.272   5.065
 1624WAT    EPW 7218   6.499   4.233   5.132
 1625WAT      O 7219   6.295   4.088   5.441
 1625WAT     H1 7220   6.214   4.059   5.454
 1625WAT     H2 7221   6.285   4.174   5.434
 1625WAT    EPW 7222   6.281   4.096   5.442
 1626WAT      O 7223   7.236   3.101   5.290
 1626WAT     H1 7224   7.295   3.153   5.328
 1626WAT     H2 7225   7.166   3.152   5.283
 1626WAT    EPW 7226   7.234   3.116   5.295
 1627WAT      O 7227   6.785   3.866   5.029
 1627WAT     H1 7228   6.838   3.897   5.090
 1627WAT     H2 7229   6.705   3.877   5.063
 1627WAT    EPW 7230   6.781   3.872   5.043
 1628WAT      O 7231   6.422   3.423   5.411
 1628WAT     H1 7232   6.434   3.341   5.440
 1628WAT     H2 7233   6.446   3.419   5.328
 1628WAT    EPW 7234   6.427   3.410   5.403
 1629WAT      O 7235   6.688   4.635   4.619
 1629WAT     H1 7236   6.688   4.721   4.630
 1629WAT     H2 7237   6.716   4.625   4.536
 1629WAT    EPW 7238   6.692   4.646   4.608
 1630WAT      O 7239   7.296   2.959   5.057
 1630WAT     H1 7240   7.289   2.997   5.135
 1630WAT     H2 7241   7.341   2.886   5.073
 1630WAT    EPW 7242   7.301   2.954   5.071
 1631WAT      O 7243   6.566   3.025   5.317
 1631WAT     H1 7244   6.651   3.045   5.312
 1631WAT     H2 7245   6.562   2.943   5.289
 1631WAT    EPW 7246   6.578   3.016   5.312
 1632WAT      O 7247   6.489   4.420   4.945
 1632WAT     H1 7248   6.419   4.456   4.909
 1632WAT     H2 7249   6.530   4.381   4.878
 1632WAT    EPW 7250   6.485   4.419   4.930
 1633WAT      O 7251   6.959   4.037   5.650
 1633WAT     H1 7252   7.039   4.039   5.616
 1633WAT     H2 7253   6.908   4.069   5.587
 1633WAT    EPW 7254   6.963   4.042   5.636
 1634WAT      O 7255   7.241   4.325   5.535
 1634WAT     H1 7256   7.292   4.361   5.596
 1634WAT     H2 7257   7.260   4.370   5.463
 1634WAT    EPW 7258   7.251   4.337   5.534
 1635WAT      O 7259   7.504   3.650   3.987
 1635WAT     H1 7260   7.514   3.701   3.917
 1635WAT     H2 7261   7.421   3.663   4.011
 1635WAT    EPW 7262   7.493   3.660   3.980
 1636WAT      O 7263   6.607   3.879   3.976
 1636WAT     H1 7264   6.539   3.834   3.948
 1636WAT     H2 7265   6.580   3.962   3.973
 1636WAT    EPW 7266   6.593   3.885   3.972
 1637WAT      O 7267   6.285   3.532   4.962
 1637WAT     H1 7268   6.318   3.508   4.885
 1637WAT     H2 7269   6.340   3.496   5.020
 1637WAT    EPW 7270   6.298   3.523   4.960
 1638WAT      O 7271   6.986   3.422   5.515
 1638WAT     H1 7272   6.932   3.489   5.525
 1638WAT     H2 7273   7.025   3.414   5.592
 1638WAT    EPW 7274   6.984   3.431   5.528
 1639WAT      O 7275   7.049   3.532   5.155
 1639WAT     H1 7276   7.048   3.586   5.223
 1639WAT     H2 7277   7.033   3.454   5.191
 1639WAT    EPW 7278   7.046   3.528   5.170
 1640WAT      O 7279   6.763   4.633   5.529
 1640WAT     H1 7280   6.779   4.623   5.444
 1640WAT     H2 7281   6.725   4.558   5.552
 1640WAT    EPW 7282   6.760   4.620   5.520
 1641WAT      O 7283   7.236   3.511   4.375
 1641WAT     H1 7284   7.260   3.507   4.458
 1641WAT     H2 7285   7.311   3.523   4.332
 1641WAT    EPW 7286   7.250   3.513   4.381
 1642WAT      O 7287   6.575   2.985   4.927
 1642WAT     H1 7288   6.491   2.971   4.948
 1642WAT     H2 7289   6.572   2.994   4.840
 1642WAT    EPW 7290   6.562   2.985   4.917
 1643WAT      O 7291   7.414   3.079   4.490
 1643WAT     H1 7292   7.333   3.054   4.510
 1643WAT     H2 7293   7.414   3.080   4.403
 1643WAT    EPW 7294   7.402   3.076   4.480
 1644WAT      O 7295   7.411   3.859   4.318
 1644WAT     H1 7296   7.449   3.781   4.317
 1644WAT     H2 7297   7.325   3.841   4.321
 1644WAT    EPW 7298   7.404   3.845   4.319
 1645WAT      O 7299   6.777   4.095   5.439
 1645WAT     H1 7300   6.701   4.095   5.483
 1645WAT     H2 7301   6.782   4.175   5.405
 1645WAT    EPW 7302   6.766   4.107   5.441
 1646WAT      O 7303   5.812   3.098   5.610
 1646WAT     H1 7304   5.807   3.168   5.558
 1646WAT     H2 7305   5.728   3.078   5.625
 1646WAT    EPW 7306   5.799   3.106   5.604
 1647WAT      O 7307   6.299   4.765   5.018
 1647WAT     H1 7308   6.305   4.745   5.103
 1647WAT     H2 7309   6.282   4.689   4.980
 1647WAT    EPW 7310   6.297   4.751   5.025
 1648WAT      O 7311   6.158   3.315   4.297
 1648WAT     H1 7312   6.170   3.281   4.217
 1648WAT     H2 7313   6.075   3.295   4.315
 1648WAT    EPW 7314   6.147   3.307   4.288
 1649WAT      O 7315   7.051   4.082   4.620
 1649WAT     H1 7316   7.032   4.103   4.702
 1649WAT     H2 7317   7.084   4.001   4.627
 1649WAT    EPW 7318   7.053   4.073   4.633
 1650WAT      O 7319   6.803   3.989   4.539
 1650WAT     H1 7320   6.764   3.986   4.616
 1650WAT     H2 7321   6.882   4.023   4.556
 1650WAT    EPW 7322   6.809   3.993   4.553
 1651WAT      O 7323   6.793   4.366   5.347
 1651WAT     H1 7324   6.844   4.365   5.417
 1651WAT     H2 7325   6.825   4.432   5.299
 1651WAT    EPW 7326   6.805   4.376   5.350
 1652WAT      O 7327   7.040   3.718   5.366
 1652WAT     H1 7328   6.974   3.695   5.418
 1652WAT     H2 7329   7.110   3.712   5.417
 1652WAT    EPW 7330   7.040   3.714   5.381
 1653WAT      O 7331   5.989   4.707   5.534
 1653WAT     H1 7332   5.932   4.642   5.524
 1653WAT     H2 7333   5.939   4.774   5.558
 1653WAT    EPW 7334   5.973   4.707   5.536
 1654WAT      O 7335   6.859   3.810   5.771
 1654WAT     H1 7336   6.890   3.883   5.735
 1654WAT     H2 7337   6.778   3.832   5.795
 1654WAT    EPW 7338   6.851   3.824   5.769
 1655WAT      O 7339   7.159   4.722   4.811
 1655WAT     H1 7340   7.092   4.773   4.835
 1655WAT     H2 7341   7.224   4.746   4.863
 1655WAT    EPW 7342   7.159   4.733   4.822
 1656WAT      O 7343   6.788   4.230   5.067
 1656WAT     H1 7344   6.704   4.221   5.090
 1656WAT     H2 7345   6.825   4.261   5.140
 1656WAT    EPW 7346   6.781   4.234   5.081
 1657WAT      O 7347   7.420   4.404   5.736
 1657WAT     H1 7348   7.500   4.382   5.710
 1657WAT     H2 7349   7.410   4.358   5.810
 1657WAT    EPW 7350   7.431   4.394   5.743
 1658WAT      O 7351   6.173   3.546   5.392
 1658WAT     H1 7352   6.187   3.606   5.330
 1658WAT     H2 7353   6.249   3.505   5.398
 1658WAT    EPW 7354   6.186   3.549   5.383
 1659WAT      O 7355   5.982   3.392   5.259
 1659WAT     H1 7356   5.995   3.401   5.173
 1659WAT     H2 7357   6.048   3.437   5.294
 1659WAT    EPW 7358   5.994   3.400   5.251
 1660WAT      O 7359   7.490   3.586   4.281
 1660WAT     H1 7360   7.523   3.579   4.201
 1660WAT     H2 7361   7.525   3.518   4.323
 1660WAT    EPW 7362   7.500   3.575   4.275
 1661WAT      O 7363   6.188   3.075   5.529
 1661WAT     H1 7364   6.148   2.998   5.535
 1661WAT     H2 7365   6.170   3.103   5.449
 1661WAT    EPW 7366   6.180   3.068   5.518
 1662WAT      O 7367   6.869   4.346   4.469
 1662WAT     H1 7368   6.858   4.422   4.427
 1662WAT     H2 7369   6.803   4.297   4.439
 1662WAT    EPW 7370   6.857   4.350   4.459
 1663WAT      O 7371   7.381   3.730   5.273
 1663WAT     H1 7372   7.425   3.659   5.247
 1663WAT     H2 7373   7.336   3.703   5.343
 1663WAT    EPW 7374   7.381   3.716   5.279
 1664WAT      O 7375   5.874   3.892   5.280
 1664WAT     H1 7376   5.924   3.906   5.210
 1664WAT     H2 7377   5.851   3.808   5.272
 1664WAT    EPW 7378   5.878   3.882   5.268
 1665WAT      O 7379   6.045   3.484   3.931
 1665WAT     H1 7380   5.969   3.489   3.974
 1665WAT     H2 7381   6.048   3.402   3.902
 1665WAT    EPW 7382   6.034   3.473   3.933
 1666WAT      O 7383   6.929   3.110   5.609
 1666WAT     H1 7384   6.958   3.182   5.648
 1666WAT     H2 7385   6.848   3.101   5.640
 1666WAT    EPW 7386   6.921   3.119   5.619
 1667WAT      O 7387   6.898   3.193   4.667
 1667WAT     H1 7388   6.819   3.231   4.670
 1667WAT     H2 7389   6.890   3.133   4.605
 1667WAT    EPW 7390   6.885   3.190   4.659
 1668WAT      O 7391   6.389   4.361   4.078
 1668WAT     H1 7392   6.421   4.361   4.159
 1668WAT     H2 7393   6.307   4.331   4.088
 1668WAT    EPW 7394   6.382   4.356   4.091
 1669WAT      O 7395   7.212   3.220   4.944
 1669WAT     H1 7396   7.264   3.159   4.978
 1669WAT     H2 7397   7.242   3.294   4.979
 1669WAT    EPW 7398   7.224   3.222   4.954
 1670WAT      O 7399   6.407   3.838   5.363
 1670WAT     H1 7400   6.371   3.913   5.389
 1670WAT     H2 7401   6.348   3.803   5.310
 1670WAT    EPW 7402   6.393   3.844   5.359
 1671WAT      O 7403   7.291   3.706   4.823
 1671WAT     H1 7404   7.305   3.767   4.884
 1671WAT     H2 7405   7.244   3.748   4.763
 1671WAT    EPW 7406   7.286   3.721   4.823
 1672WAT      O 7407   7.262   4.543   4.429
 1672WAT     H1 7408   7.239   4.461   4.444
 1672WAT     H2 7409   7.311   4.539   4.357
 1672WAT    EPW 7410   7.266   4.530   4.421
 1673WAT      O 7411   6.134   4.263   4.124
 1673WAT     H1 7412   6.127   4.246   4.210
 1673WAT     H2 7413   6.145   4.185   4.088
 1673WAT    EPW 7414   6.134   4.249   4.132
 1674WAT      O 7415   6.458   4.118   3.943
 1674WAT     H1 7416   6.380   4.082   3.960
 1674WAT     H2 7417   6.454   4.194   3.985
 1674WAT    EPW 7418   6.446   4.124   3.952
 1675WAT      O 7419   6.384   3.173   5.163
 1675WAT     H1 7420   6.303   3.152   5.189
 1675WAT     H2 7421   6.434   3.116   5.206
 1675WAT    EPW 7422   6.379   3.161   5.173
 1676WAT      O 7423   6.759   3.169   5.032
 1676WAT     H1 7424   6.695   3.114   5.007
 1676WAT     H2 7425   6.831   3.130   5.003
 1676WAT    EPW 7426   6.760   3.155   5.024
 1677WAT      O 7427   7.063   4.349   5.172
 1677WAT     H1 7428   7.118   4.399   5.217
 1677WAT     H2 7429   7.063   4.385   5.093
 1677WAT    EPW 7430   7.071   4.361   5.167
 1678WAT      O 7431   7.022   4.696   5.610
 1678WAT     H1 7432   6.946   4.667   5.579
 1678WAT     H2 7433   7.007   4.781   5.624
 1678WAT    EPW 7434   7.008   4.705   5.608
 1679WAT      O 7435   6.554   3.642   5.515
 1679WAT     H1 7436   6.514   3.573   5.481
 1679WAT     H2 7437   6.512   3.710   5.478
 1679WAT    EPW 7438   6.542   3.642   5.505
 1680WAT      O 7439   6.630   2.993   4.027
 1680WAT     H1 7440   6.641   3.005   3.942
 1680WAT     H2 7441   6.544   2.999   4.038
 1680WAT    EPW 7442   6.619   2.995   4.016
 1681WAT      O 7443   7.478   4.096   5.145
 1681WAT     H1 7444   7.443   4.029   5.102
 1681WAT     H2 7445   7.462   4.164   5.094
 1681WAT    EPW 7446   7.471   4.096   5.131
 1682WAT      O 7447   6.421   4.614   5.545
 1682WAT     H1 7448   6.406   4.625   5.630
 1682WAT     H2 7449   6.482   4.551   5.542
 1682WAT    EPW 7450   6.428   4.607   5.557
 1683WAT      O 7451   7.402   4.534   5.063
 1683WAT     H1 7452   7.485   4.533   5.034
 1683WAT     H2 7453   7.368   4.460   5.031
 1683WAT    EPW 7454   7.409   4.523   5.054
 1684WAT      O 7455   6.123   3.144   5.272
 1684WAT     H1 7456   6.071   3.079   5.247
 1684WAT     H2 7457   6.075   3.216   5.257
 1684WAT    EPW 7458   6.108   3.145   5.266
 1685WAT      O 7459   6.982   3.068   4.899
 1685WAT     H1 7460   7.047   3.121   4.923
 1685WAT     H2 7461   6.952   3.105   4.826
 1685WAT    EPW 7462   6.987   3.081   4.892
 1686WAT      O 7463   6.137   4.507   5.676
 1686WAT     H1 7464   6.207   4.542   5.715
 1686WAT     H2 7465   6.101   4.575   5.635
 1686WAT    EPW 7466   6.142   4.522   5.676
 1687WAT      O 7467   6.977   3.589   4.689
 1687WAT     H1 7468   7.026   3.518   4.701
 1687WAT     H2 7469   6.943   3.603   4.769
 1687WAT    EPW 7470   6.979   3.580   4.703
 1688WAT      O 7471   6.050   3.498   4.653
 1688WAT     H1 7472   5.986   3.500   4.594
 1688WAT     H2 7473   6.077   3.415   4.652
 1688WAT    EPW 7474   6.045   3.486   4.645
 1689WAT      O 7475   5.985   4.288   5.377
 1689WAT     H1 7476   5.935   4.348   5.416
 1689WAT     H2 7477   6.066   4.321   5.385
 1689WAT    EPW 7478   5.990   4.302   5.384
 1690WAT      O 7479   7.146   3.763   4.322
 1690WAT     H1 7480   7.161   3.679   4.340
 1690WAT     H2 7481   7.070   3.761   4.279
 1690WAT    EPW 7482   7.137   3.750   4.318
 1691WAT      O 7483   6.145   4.608   4.249
 1691WAT     H1 7484   6.114   4.586   4.170
 1691WAT     H2 7485   6.231   4.596   4.241
 1691WAT    EPW 7486   6.153   4.603   4.236
 1692WAT      O 7487   6.536   3.815   4.240
 1692WAT     H1 7488   6.562   3.844   4.161
 1692WAT     H2 7489   6.610   3.801   4.283
 1692WAT    EPW 7490   6.550   3.817   4.234
 1693WAT      O 7491   7.415   4.645   3.972
 1693WAT     H1 7492   7.440   4.615   4.050
 1693WAT     H2 7493   7.413   4.573   3.923
 1693WAT    EPW 7494   7.418   4.630   3.977
 1694WAT      O 7495   7.514   3.805   5.626
 1694WAT     H1 7496   7.588   3.774   5.590
 1694WAT     H2 7497   7.495   3.874   5.576
 1694WAT    EPW 7498   7.522   3.810   5.613
 1695WAT      O 7499   7.143   4.306   4.181
 1695WAT     H1 7500   7.144   4.282   4.265
 1695WAT     H2 7501   7.092   4.247   4.143
 1695WAT    EPW 7502   7.136   4.294   4.188
 1696WAT      O 7503   7.495   3.352   5.904
 1696WAT     H1 7504   7.509   3.437   5.890
 1696WAT     H2 7505   7.446   3.327   5.837
 1696WAT    EPW 7506   7.490   3.361   5.892
 1697WAT      O 7507   7.488   3.488   5.193
 1697WAT     H1 7508   7.426   3.480   5.132
 1697WAT     H2 7509   7.560   3.459   5.153
 1697WAT    EPW 7510   7.489   3.482   5.178
 1698WAT      O 7511   6.456   3.160   5.531
 1698WAT     H1 7512   6.488   3.121   5.461
 1698WAT     H2 7513   6.374   3.128   5.537
 1698WAT    EPW 7514   6.448   3.149   5.522
 1699WAT      O 7515   7.250   3.971   5.850
 1699WAT     H1 7516   7.328   3.994   5.881
 1699WAT     H2 7517   7.253   3.993   5.766
 1699WAT    EPW 7518   7.262   3.978   5.842
 1700WAT      O 7519   6.207   4.514   4.910
 1700WAT     H1 7520   6.190   4.434   4.878
 1700WAT     H2 7521   6.172   4.568   4.852
 1700WAT    EPW 7522   6.199   4.510   4.897
 1701WAT      O 7523   6.759   4.151   4.122
 1701WAT     H1 7524   6.839   4.128   4.099
 1701WAT     H2 7525   6.742   4.221   4.073
 1701WAT    EPW 7526   6.768   4.158   4.111
 1702WAT      O 7527   5.973   4.768   5.258
 1702WAT     H1 7528   5.976   4.745   5.342
 1702WAT     H2 7529   5.998   4.696   5.216
 1702WAT    EPW 7530   5.977   4.754   5.265
 1703WAT      O 7531   6.909   2.996   2.582
 1703WAT     H1 7532   6.903   3.035   2.504
 1703WAT     H2 7533   6.995   2.986   2.593
 1703WAT    EPW 7534   6.921   3.000   2.572
 1704WAT      O 7535   6.864   3.618   3.050
 1704WAT     H1 7536   6.835   3.697   3.074
 1704WAT     H2 7537   6.921   3.597   3.113
 1704WAT    EPW 7538   6.868   3.626   3.063
 1705WAT      O 7539   5.819   4.101   2.535
 1705WAT     H1 7540   5.748   4.095   2.586
 1705WAT     H2 7541   5.826   4.021   2.501
 1705WAT    EPW 7542   5.809   4.088   2.538
 1706WAT      O 7543   7.472   4.513   2.320
 1706WAT     H1 7544   7.549   4.503   2.359
 1706WAT     H2 7545   7.457   4.435   2.284
 1706WAT    EPW 7546   7.481   4.500   2.321
 1707WAT      O 7547   5.868   3.457   2.215
 1707WAT     H1 7548   5.802   3.504   2.184
 1707WAT     H2 7549   5.834   3.376   2.222
 1707WAT    EPW 7550   5.853   3.452   2.211
 1708WAT      O 7551   6.200   4.016   2.115
 1708WAT     H1 7552   6.152   3.982   2.050
 1708WAT     H2 7553   6.189   3.959   2.180
 1708WAT    EPW 7554   6.191   4.002   2.115
 1709WAT      O 7555   7.126   3.809   2.704
 1709WAT     H1 7556   7.133   3.797   2.618
 1709WAT     H2 7557   7.069   3.747   2.728
 1709WAT    EPW 7558   7.118   3.798   2.695
 1710WAT      O 7559   6.076   4.204   2.507
 1710WAT     H1 7560   6.129   4.166   2.565
 1710WAT     H2 7561   6.000   4.164   2.519
 1710WAT    EPW 7562   6.073   4.193   2.517
 1711WAT      O 7563   6.563   3.099   2.462
 1711WAT     H1 7564   6.559   3.167   2.409
 1711WAT     H2 7565   6.641   3.063   2.443
 1711WAT    EPW 7566   6.574   3.103   2.452
 1712WAT      O 7567   5.998   4.475   2.101
 1712WAT     H1 7568   6.045   4.479   2.027
 1712WAT     H2 7569   6.018   4.397   2.134
 1712WAT    EPW 7570   6.008   4.464   2.095
 1713WAT      O 7571   5.873   4.338   3.252
 1713WAT     H1 7572   5.911   4.314   3.326
 1713WAT     H2 7573   5.806   4.282   3.244
 1713WAT    EPW 7574   5.869   4.326   3.262
 1714WAT      O 7575   6.539   4.146   3.678
 1714WAT     H1 7576   6.520   4.132   3.762
 1714WAT     H2 7577   6.466   4.121   3.637
 1714WAT    EPW 7578   6.525   4.140   3.684
 1715WAT      O 7579   6.044   3.864   2.706
 1715WAT     H1 7580   5.997   3.862   2.633
 1715WAT     H2 7581   6.099   3.796   2.698
 1715WAT    EPW 7582   6.045   3.854   2.694
 1716WAT      O 7583   6.467   3.363   3.249
 1716WAT     H1 7584   6.533   3.383   3.195
 1716WAT     H2 7585   6.466   3.276   3.248
 1716WAT    EPW 7586   6.476   3.353   3.241
 1717WAT      O 7587   6.522   4.436   3.427
 1717WAT     H1 7588   6.535   4.494   3.362
 1717WAT     H2 7589   6.603   4.412   3.449
 1717WAT    EPW 7590   6.536   4.441   3.421
 1718WAT      O 7591   6.217   3.645   2.690
 1718WAT     H1 7592   6.282   3.591   2.711
 1718WAT     H2 7593   6.148   3.592   2.682
 1718WAT    EPW 7594   6.216   3.629   2.692
 1719WAT      O 7595   6.616   4.278   2.853
 1719WAT     H1 7596   6.634   4.194   2.867
 1719WAT     H2 7597   6.694   4.317   2.854
 1719WAT    EPW 7598   6.630   4.271   2.855
 1720WAT      O 7599   6.651   4.174   2.479
 1720WAT     H1 7600   6.693   4.115   2.528
 1720WAT     H2 7601   6.683   4.160   2.399
 1720WAT    EPW 7602   6.662   4.163   2.474
 1721WAT      O 7603   6.830   3.655   3.633
 1721WAT     H1 7604   6.745   3.647   3.615
 1721WAT     H2 7605   6.830   3.700   3.708
 1721WAT    EPW 7606   6.817   3.660   3.642
 1722WAT      O 7607   6.291   3.140   2.550
 1722WAT     H1 7608   6.261   3.202   2.495
 1722WAT     H2 7609   6.373   3.128   2.524
 1722WAT    EPW 7610   6.298   3.148   2.538
 1723WAT      O 7611   7.269   2.879   3.555
 1723WAT     H1 7612   7.253   2.951   3.508
 1723WAT     H2 7613   7.194   2.866   3.598
 1723WAT    EPW 7614   7.255   2.888   3.555
 1724WAT      O 7615   6.600   3.070   2.741
 1724WAT     H1 7616   6.601   3.155   2.763
 1724WAT     H2 7617   6.576   3.071   2.657
 1724WAT    EPW 7618   6.597   3.083   2.732
 1725WAT      O 7619   7.046   3.316   1.978
 1725WAT     H1 7620   7.001   3.381   2.015
 1725WAT     H2 7621   7.052   3.257   2.042
 1725WAT    EPW 7622   7.040   3.317   1.993
 1726WAT      O 7623   5.845   3.585   2.919
 1726WAT     H1 7624   5.843   3.672   2.929
 1726WAT     H2 7625   5.767   3.559   2.947
 1726WAT    EPW 7626   5.833   3.594   2.925
 1727WAT      O 7627   5.866   4.537   2.793
 1727WAT     H1 7628   5.800   4.578   2.752
 1727WAT     H2 7629   5.901   4.488   2.730
 1727WAT    EPW 7630   5.861   4.536   2.777
 1728WAT      O 7631   6.455   4.375   2.466
 1728WAT     H1 7632   6.419   4.369   2.546
 1728WAT     H2 7633   6.520   4.317   2.468
 1728WAT    EPW 7634   6.459   4.365   2.478
 1729WAT      O 7635   7.054   4.562   2.257
 1729WAT     H1 7636   7.117   4.622   2.262
 1729WAT     H2 7637   7.096   4.487   2.270
 1729WAT    EPW 7638   7.069   4.560   2.260
 1730WAT      O 7639   6.843   4.592   2.427
 1730WAT     H1 7640   6.856   4.668   2.467
 1730WAT     H2 7641   6.912   4.584   2.374
 1730WAT    EPW 7642   6.855   4.602   2.425
 1731WAT      O 7643   6.470   3.292   3.919
 1731WAT     H1 7644   6.451   3.261   3.840
 1731WAT     H2 7645   6.512   3.367   3.903
 1731WAT    EPW 7646   6.474   3.299   3.905
 1732WAT      O 7647   6.023   4.471   2.536
 1732WAT     H1 7648   6.053   4.390   2.548
 1732WAT     H2 7649   6.054   4.493   2.458
 1732WAT    EPW 7650   6.032   4.463   2.527
 1733WAT      O 7651   7.511   3.359   2.559
 1733WAT     H1 7652   7.470   3.400   2.624
 1733WAT     H2 7653   7.492   3.275   2.572
 1733WAT    EPW 7654   7.502   3.353   2.571
 1734WAT      O 7655   7.057   4.659   3.201
 1734WAT     H1 7656   7.119   4.719   3.184
 1734WAT     H2 7657   7.061   4.605   3.132
 1734WAT    EPW 7658   7.067   4.660   3.188
 1735WAT      O 7659   6.029   3.213   3.862
 1735WAT     H1 7660   5.946   3.192   3.873
 1735WAT     H2 7661   6.051   3.172   3.788
 1735WAT    EPW 7662   6.020   3.204   3.852
 1736WAT      O 7663   6.118   4.248   2.914
 1736WAT     H1 7664   6.156   4.214   2.844
 1736WAT     H2 7665   6.153   4.203   2.980
 1736WAT    EPW 7666   6.128   4.236   2.914
 1737WAT      O 7667   6.451   4.650   2.752
 1737WAT     H1 7668   6.536   4.640   2.740
 1737WAT     H2 7669   6.444   4.732   2.783
 1737WAT    EPW 7670   6.462   4.661   2.754
 1738WAT      O 7671   6.686   3.010   3.756
 1738WAT     H1 7672   6.708   2.931   3.727
 1738WAT     H2 7673   6.648   3.047   3.686
 1738WAT    EPW 7674   6.684   3.004   3.741
 1739WAT      O 7675   6.762   3.530   2.617
 1739WAT     H1 7676   6.792   3.486   2.548
 1739WAT     H2 7677   6.834   3.546   2.664
 1739WAT    EPW 7678   6.777   3.526   2.614
 1740WAT      O 7679   6.868   3.496   2.119
 1740WAT     H1 7680   6.888   3.576   2.148
 1740WAT     H2 7681   6.792   3.508   2.078
 1740WAT    EPW 7682   6.860   3.510   2.117
 1741WAT      O 7683   7.240   4.771   2.235
 1741WAT     H1 7684   7.286   4.736   2.170
 1741WAT     H2 7685   7.295   4.829   2.270
 1741WAT    EPW 7686   7.255   4.775   2.231
 1742WAT      O 7687   6.274   4.684   3.399
 1742WAT     H1 7688   6.321   4.663   3.470
 1742WAT     H2 7689   6.225   4.613   3.385
 1742WAT    EPW 7690   6.274   4.670   3.407
 1743WAT      O 7691   5.746   3.332   3.565
 1743WAT     H1 7692   5.756   3.398   3.622
 1743WAT     H2 7693   5.805   3.349   3.503
 1743WAT    EPW 7694   5.757   3.344   3.564
 1744WAT      O 7695   6.973   4.361   3.668
 1744WAT     H1 7696   6.970   4.397   3.747
 1744WAT     H2 7697   7.059   4.348   3.654
 1744WAT    EPW 7698   6.986   4.365   3.677
 1745WAT      O 7699   6.721   4.393   2.072
 1745WAT     H1 7700   6.688   4.455   2.122
 1745WAT     H2 7701   6.800   4.424   2.049
 1745WAT    EPW 7702   6.728   4.406   2.076
 1746WAT      O 7703   7.059   3.139   2.190
 1746WAT     H1 7704   7.109   3.068   2.195
 1746WAT     H2 7705   7.081   3.184   2.261
 1746WAT    EPW 7706   7.070   3.136   2.201
 1747WAT      O 7707   5.914   3.238   2.483
 1747WAT     H1 7708   5.888   3.155   2.472
 1747WAT     H2 7709   5.871   3.264   2.554
 1747WAT    EPW 7710   5.904   3.229   2.492
 1748WAT      O 7711   6.068   4.540   3.234
 1748WAT     H1 7712   6.009   4.475   3.237
 1748WAT     H2 7713   6.109   4.526   3.159
 1748WAT    EPW 7714   6.065   4.528   3.224
 1749WAT      O 7715   6.832   3.394   2.378
 1749WAT     H1 7716   6.764   3.342   2.361
 1749WAT     H2 7717   6.849   3.430   2.300
 1749WAT    EPW 7718   6.824   3.392   2.364
 1750WAT      O 7719   6.836   4.638   3.358
 1750WAT     H1 7720   6.907   4.643   3.308
 1750WAT     H2 7721   6.771   4.633   3.300
 1750WAT    EPW 7722   6.837   4.638   3.342
 1751WAT      O 7723   6.827   3.069   2.324
 1751WAT     H1 7724   6.770   3.047   2.262
 1751WAT     H2 7725   6.898   3.093   2.279
 1751WAT    EPW 7726   6.829   3.069   2.308
 1752WAT      O 7727   7.414   4.695   2.759
 1752WAT     H1 7728   7.431   4.767   2.713
 1752WAT     H2 7729   7.386   4.638   2.699
 1752WAT    EPW 7730   7.413   4.697   2.743
 1753WAT      O 7731   6.639   3.344   2.791
 1753WAT     H1 7732   6.668   3.409   2.741
 1753WAT     H2 7733   6.650   3.374   2.872
 1753WAT    EPW 7734   6.645   3.358   2.795
 1754WAT      O 7735   7.199   4.266   2.549
 1754WAT     H1 7736   7.271   4.216   2.555
 1754WAT     H2 7737   7.141   4.223   2.598
 1754WAT    EPW 7738   7.201   4.252   2.557
 1755WAT      O 7739   6.262   4.373   3.540
 1755WAT     H1 7740   6.340   4.404   3.516
 1755WAT     H2 7741   6.247   4.412   3.616
 1755WAT    EPW 7742   6.271   4.383   3.548
 1756WAT      O 7743   6.118   2.926   2.595
 1756WAT     H1 7744   6.173   2.992   2.583
 1756WAT     H2 7745   6.113   2.888   2.516
 1756WAT    EPW 7746   6.126   2.930   2.581
 1757WAT      O 7747   6.430   3.945   2.995
 1757WAT     H1 7748   6.459   3.927   3.075
 1757WAT     H2 7749   6.377   3.878   2.977
 1757WAT    EPW 7750   6.426   3.932   3.004
 1758WAT      O 7751   7.035   3.291   3.376
 1758WAT     H1 7752   7.030   3.330   3.454
 1758WAT     H2 7753   6.972   3.232   3.379
 1758WAT    EPW 7754   7.025   3.288   3.388
 1759WAT      O 7755   6.542   3.954   3.249
 1759WAT     H1 7756   6.518   4.038   3.260
 1759WAT     H2 7757   6.510   3.914   3.320
 1759WAT    EPW 7758   6.534   3.961   3.261
 1760WAT      O 7759   7.134   4.087   3.219
 1760WAT     H1 7760   7.075   4.038   3.262
 1760WAT     H2 7761   7.118   4.168   3.247
 1760WAT    EPW 7762   7.123   4.092   3.230
 1761WAT      O 7763   7.175   2.935   2.643
 1761WAT     H1 7764   7.174   2.916   2.728
 1761WAT     H2 7765   7.195   2.859   2.605
 1761WAT    EPW 7766   7.178   2.921   2.650
 1762WAT      O 7767   5.799   4.337   3.878
 1762WAT     H1 7768   5.861   4.382   3.921
 1762WAT     H2 7769   5.802   4.258   3.916
 1762WAT    EPW 7770   5.809   4.332   3.890
 1763WAT      O 7771   7.408   3.280   3.536
 1763WAT     H1 7772   7.449   3.355   3.517
 1763WAT     H2 7773   7.383   3.291   3.619
 1763WAT    EPW 7774   7.411   3.293   3.546
 1764WAT      O 7775   6.164   3.273   2.766
 1764WAT     H1 7776   6.196   3.219   2.706
 1764WAT     H2 7777   6.163   3.226   2.839
 1764WAT    EPW 7778   6.169   3.258   2.768
 1765WAT      O 7779   7.485   4.014   2.196
 1765WAT     H1 7780   7.464   3.967   2.266
 1765WAT     H2 7781   7.561   3.980   2.171
 1765WAT    EPW 7782   7.493   4.002   2.202
 1766WAT      O 7783   6.219   4.079   2.705
 1766WAT     H1 7784   6.287   4.053   2.657
 1766WAT     H2 7785   6.169   4.008   2.711
 1766WAT    EPW 7786   6.222   4.065   2.698
 1767WAT      O 7787   6.102   4.680   2.807
 1767WAT     H1 7788   6.024   4.643   2.818
 1767WAT     H2 7789   6.098   4.751   2.857
 1767WAT    EPW 7790   6.090   4.685   2.816
 1768WAT      O 7791   5.990   3.435   3.104
 1768WAT     H1 7792   6.075   3.427   3.086
 1768WAT     H2 7793   5.961   3.492   3.045
 1768WAT    EPW 7794   5.999   3.442   3.093
 1769WAT      O 7795   7.246   3.716   2.149
 1769WAT     H1 7796   7.242   3.797   2.118
 1769WAT     H2 7797   7.214   3.724   2.230
 1769WAT    EPW 7798   7.241   3.729   2.157
 1770WAT      O 7799   6.416   4.008   2.511
 1770WAT     H1 7800   6.477   4.070   2.504
 1770WAT     H2 7801   6.444   3.944   2.460
 1770WAT    EPW 7802   6.429   4.008   2.503
 1771WAT      O 7803   5.852   4.155   2.964
 1771WAT     H1 7804   5.800   4.226   2.960
 1771WAT     H2 7805   5.931   4.187   2.946
 1771WAT    EPW 7806   5.856   4.170   2.961
 1772WAT      O 7807   6.607   3.536   3.879
 1772WAT     H1 7808   6.547   3.582   3.922
 1772WAT     H2 7809   6.598   3.563   3.796
 1772WAT    EPW 7810   6.597   3.547   3.873
 1773WAT      O 7811   5.915   3.844   2.464
 1773WAT     H1 7812   5.879   3.765   2.458
 1773WAT     H2 7813   5.980   3.841   2.406
 1773WAT    EPW 7814   5.919   3.832   2.454
 1774WAT      O 7815   7.416   3.122   2.300
 1774WAT     H1 7816   7.490   3.097   2.261
 1774WAT     H2 7817   7.405   3.204   2.273
 1774WAT    EPW 7818   7.425   3.131   2.290
 1775WAT      O 7819   6.859   4.414   2.841
 1775WAT     H1 7820   6.821   4.491   2.823
 1775WAT     H2 7821   6.875   4.380   2.762
 1775WAT    EPW 7822   6.856   4.420   2.827
 1776WAT      O 7823   5.810   4.348   2.401
 1776WAT     H1 7824   5.873   4.380   2.451
 1776WAT     H2 7825   5.804   4.265   2.426
 1776WAT    EPW 7826   5.818   4.340   2.412
 1777WAT      O 7827   6.237   4.102   3.114
 1777WAT     H1 7828   6.286   4.141   3.174
 1777WAT     H2 7829   6.295   4.057   3.066
 1777WAT    EPW 7830   6.253   4.101   3.116
 1778WAT      O 7831   7.116   3.356   2.820
 1778WAT     H1 7832   7.149   3.313   2.888
 1778WAT     H2 7833   7.052   3.304   2.791
 1778WAT    EPW 7834   7.111   3.342   2.825
 1779WAT      O 7835   5.902   4.134   2.019
 1779WAT     H1 7836   5.939   4.060   1.990
 1779WAT     H2 7837   5.837   4.106   2.070
 1779WAT    EPW 7838   5.898   4.119   2.022
 1780WAT      O 7839   5.879   3.881   2.931
 1780WAT     H1 7840   5.929   3.872   2.860
 1780WAT     H2 7841   5.870   3.967   2.939
 1780WAT    EPW 7842   5.885   3.892   2.921
 1781WAT      O 7843   6.577   3.301   2.278
 1781WAT     H1 7844   6.563   3.276   2.195
 1781WAT     H2 7845   6.548   3.384   2.279
 1781WAT    EPW 7846   6.571   3.310   2.266
 1782WAT      O 7847   7.268   4.485   3.407
 1782WAT     H1 7848   7.260   4.562   3.448
 1782WAT     H2 7849   7.317   4.505   3.337
 1782WAT    EPW 7850   7.274   4.500   3.403
 1783WAT      O 7851   6.381   4.381   2.731
 1783WAT     H1 7852   6.396   4.466   2.747
 1783WAT     H2 7853   6.451   4.341   2.765
 1783WAT    EPW 7854   6.394   4.388   2.738
 1784WAT      O 7855   6.162   3.665   3.756
 1784WAT     H1 7856   6.122   3.604   3.804
 1784WAT     H2 7857   6.156   3.635   3.675
 1784WAT    EPW 7858   6.155   3.652   3.751
 1785WAT      O 7859   6.203   3.563   2.244
 1785WAT     H1 7860   6.185   3.501   2.303
 1785WAT     H2 7861   6.163   3.535   2.172
 1785WAT    EPW 7862   6.195   3.550   2.242
 1786WAT      O 7863   6.247   3.746   2.949
 1786WAT     H1 7864   6.236   3.721   2.867
 1786WAT     H2 7865   6.259   3.672   2.993
 1786WAT    EPW 7866   6.247   3.731   2.944
 1787WAT      O 7867   6.231   3.717   3.281
 1787WAT     H1 7868   6.251   3.657   3.222
 1787WAT     H2 7869   6.175   3.770   3.239
 1787WAT    EPW 7870   6.226   3.716   3.266
 1788WAT      O 7871   7.276   3.491   3.104
 1788WAT     H1 7872   7.206   3.511   3.152
 1788WAT     H2 7873   7.278   3.553   3.043
 1788WAT    EPW 7874   7.266   3.503   3.102
 1789WAT      O 7875   6.601   4.607   3.210
 1789WAT     H1 7876   6.576   4.544   3.154
 1789WAT     H2 7877   6.588   4.680   3.165
 1789WAT    EPW 7878   6.596   4.608   3.195
 1790WAT      O 7879   6.872   3.077   3.451
 1790WAT     H1 7880   6.870   2.993   3.429
 1790WAT     H2 7881   6.906   3.076   3.532
 1790WAT    EPW 7882   6.877   3.065   3.460
 1791WAT      O 7883   7.083   3.280   2.424
 1791WAT     H1 7884   7.135   3.348   2.440
 1791WAT     H2 7885   7.003   3.315   2.419
 1791WAT    EPW 7886   7.079   3.295   2.426
 1792WAT      O 7887   6.029   3.895   3.839
 1792WAT     H1 7888   6.026   3.946   3.768
 1792WAT     H2 7889   6.073   3.824   3.812
 1792WAT    EPW 7890   6.035   3.892   3.825
 1793WAT      O 7891   7.231   4.052   3.681
 1793WAT     H1 7892   7.236   4.138   3.666
 1793WAT     H2 7893   7.284   4.018   3.620
 1793WAT    EPW 7894   7.240   4.060   3.670
 1794WAT      O 7895   6.615   4.415   3.722
 1794WAT     H1 7896   6.643   4.407   3.804
 1794WAT     H2 7897   6.591   4.334   3.700
 1794WAT    EPW 7898   6.616   4.402   3.731
 1795WAT      O 7899   6.671   3.415   3.056
 1795WAT     H1 7900   6.731   3.477   3.063
 1795WAT     H2 7901   6.712   3.343   3.085
 1795WAT    EPW 7902   6.686   3.413   3.062
 1796WAT      O 7903   6.927   3.740   2.249
 1796WAT     H1 7904   6.902   3.790   2.182
 1796WAT     H2 7905   6.865   3.755   2.309
 1796WAT    EPW 7906   6.914   3.750   2.248
 1797WAT      O 7907   7.423   4.100   2.563
 1797WAT     H1 7908   7.465   4.086   2.638
 1797WAT     H2 7909   7.425   4.023   2.523
 1797WAT    EPW 7910   7.429   4.087   2.568
 1798WAT      O 7911   7.084   4.459   3.000
 1798WAT     H1 7912   7.014   4.431   2.956
 1798WAT     H2 7913   7.113   4.527   2.953
 1798WAT    EPW 7914   7.078   4.465   2.987
 1799WAT      O 7915   7.001   4.132   2.975
 1799WAT     H1 7916   6.930   4.167   3.011
 1799WAT     H2 7917   7.046   4.102   3.044
 1799WAT    EPW 7918   6.997   4.133   2.990
 1800WAT      O 7919   6.432   4.651   2.395
 1800WAT     H1 7920   6.432   4.581   2.447
 1800WAT     H2 7921   6.496   4.635   2.338
 1800WAT    EPW 7922   6.442   4.638   2.394
 1801WAT      O 7923   6.370   2.966   2.197
 1801WAT     H1 7924   6.359   2.947   2.282
 1801WAT     H2 7925   6.322   3.038   2.186
 1801WAT    EPW 7926   6.361   2.973   2.208
 1802WAT      O 7927   6.647   4.606   2.232
 1802WAT     H1 7928   6.710   4.603   2.293
 1802WAT     H2 7929   6.658   4.684   2.195
 1802WAT    EPW 7930   6.658   4.617   2.236
 1803WAT      O 7931   7.434   3.968   3.502
 1803WAT     H1 7932   7.420   3.894   3.458
 1803WAT     H2 7933   7.456   4.025   3.440
 1803WAT    EPW 7934   7.436   3.966   3.487
 1804WAT      O 7935   6.970   4.508   3.907
 1804WAT     H1 7936   6.995   4.530   3.987
 1804WAT     H2 7937   6.993   4.577   3.858
 1804WAT    EPW 7938   6.977   4.521   3.911
 1805WAT      O 7939   7.349   3.009   3.797
 1805WAT     H1 7940   7.337   2.967   3.721
 1805WAT     H2 7941   7.377   2.946   3.851
 1805WAT    EPW 7942   7.351   2.993   3.794
 1806WAT      O 7943   6.163   3.830   2.323
 1806WAT     H1 7944   6.170   3.745   2.305
 1806WAT     H2 7945   6.223   3.842   2.386
 1806WAT    EPW 7946   6.173   3.819   2.330
 1807WAT      O 7947   6.933   3.951   3.350
 1807WAT     H1 7948   6.884   3.989   3.412
 1807WAT     H2 7949   6.966   3.881   3.390
 1807WAT    EPW 7950   6.931   3.946   3.365
 1808WAT      O 7951   5.798   2.977   2.438
 1808WAT     H1 7952   5.806   2.922   2.371
 1808WAT     H2 7953   5.766   2.927   2.502
 1808WAT    EPW 7954   5.795   2.962   2.437
 1809WAT      O 7955   6.761   3.771   2.471
 1809WAT     H1 7956   6.774   3.836   2.528
 1809WAT     H2 7957   6.754   3.701   2.522
 1809WAT    EPW 7958   6.762   3.770   2.487
 1810WAT      O 7959   7.304   4.284   3.072
 1810WAT     H1 7960   7.241   4.318   3.023
 1810WAT     H2 7961   7.266   4.215   3.110
 1810WAT    EPW 7962   7.289   4.279   3.071
 1811WAT      O 7963   6.239   3.203   2.141
 1811WAT     H1 7964   6.176   3.200   2.079
 1811WAT     H2 7965   6.305   3.242   2.100
 1811WAT    EPW 7966   6.239   3.208   2.126
 1812WAT      O 7967   6.679   4.006   2.891
 1812WAT     H1 7968   6.599   3.980   2.911
 1812WAT     H2 7969   6.728   3.974   2.956
 1812WAT    EPW 7970   6.675   3.997   2.904
 1813WAT      O 7971   6.360   4.597   2.003
 1813WAT     H1 7972   6.380   4.530   2.056
 1813WAT     H2 7973   6.361   4.666   2.056
 1813WAT    EPW 7974   6.363   4.597   2.019
 1814WAT      O 7975   6.050   3.899   3.165
 1814WAT     H1 7976   6.104   3.966   3.148
 1814WAT     H2 7977   6.012   3.883   3.088
 1814WAT    EPW 7978   6.053   3.907   3.151
 1815WAT      O 7979   6.370   3.447   2.821
 1815WAT     H1 7980   6.448   3.409   2.808
 1815WAT     H2 7981   6.313   3.385   2.802
 1815WAT    EPW 7982   6.373   3.433   2.816
 1816WAT      O 7983   5.839   3.571   2.468
 1816WAT     H1 7984   5.885   3.535   2.533
 1816WAT     H2 7985   5.866   3.528   2.397
 1816WAT    EPW 7986   5.850   3.560   2.467
 1817WAT      O 7987   7.322   3.885   3.142
 1817WAT     H1 7988   7.334   3.832   3.211
 1817WAT     H2 7989   7.258   3.938   3.168
 1817WAT    EPW 7990   7.315   3.885   3.156
 1818WAT      O 7991   6.374   3.734   2.014
 1818WAT     H1 7992   6.327   3.711   2.084
 1818WAT     H2 7993   6.320   3.716   1.948
 1818WAT    EPW 7994   6.359   3.728   2.015
 1819WAT      O 7995   6.032   4.040   3.602
 1819WAT     H1 7996   5.997   3.989   3.540
 1819WAT     H2 7997   6.010   4.120   3.578
 1819WAT    EPW 7998   6.024   4.044   3.590
 1820WAT      O 7999   6.479   3.559   2.251
 1820WAT     H1 8000   6.494   3.637   2.288
 1820WAT     H2 8001   6.392   3.553   2.252
 1820WAT    EPW 8002   6.468   3.570   2.256
 1821WAT      O 8003   7.321   3.285   3.805
 1821WAT     H1 8004   7.239   3.301   3.829
 1821WAT     H2 8005   7.327   3.198   3.808
 1821WAT    EPW 8006   7.310   3.274   3.809
 1822WAT      O 8007   5.863   3.217   2.967
 1822WAT     H1 8008   5.918   3.149   2.969
 1822WAT     H2 8009   5.907   3.280   3.009
 1822WAT    EPW 8010   5.878   3.217   2.974
 1823WAT      O 8011   7.093   3.634   3.833
 1823WAT     H1 8012   7.137   3.644   3.907
 1823WAT     H2 8013   7.018   3.677   3.847
 1823WAT    EPW 8014   7.088   3.642   3.846
 1824WAT      O 8015   7.269   3.690   3.626
 1824WAT     H1 8016   7.339   3.720   3.669
 1824WAT     H2 8017   7.216   3.662   3.689
 1824WAT    EPW 8018   7.272   3.690   3.642
 1825WAT      O 8019   7.405   4.282   2.181
 1825WAT     H1 8020   7.433   4.201   2.195
 1825WAT     H2 8021   7.322   4.281   2.209
 1825WAT    EPW 8022   7.397   4.270   2.187
 1826WAT      O 8023   7.335   3.498   2.731
 1826WAT     H1 8024   7.272   3.447   2.763
 1826WAT     H2 8025   7.338   3.565   2.787
 1826WAT    EPW 8026   7.326   3.501   2.744
 1827WAT      O 8027   7.012   4.105   2.120
 1827WAT     H1 8028   7.085   4.057   2.115
 1827WAT     H2 8029   6.983   4.105   2.038
 1827WAT    EPW 8030   7.019   4.098   2.108
 1828WAT      O 8031   6.455   4.221   3.257
 1828WAT     H1 8032   6.468   4.275   3.324
 1828WAT     H2 8033   6.467   4.271   3.187
 1828WAT    EPW 8034   6.459   4.236   3.257
 1829WAT      O 8035   6.299   4.089   3.544
 1829WAT     H1 8036   6.219   4.064   3.570
 1829WAT     H2 8037   6.289   4.175   3.531
 1829WAT    EPW 8038   6.286   4.098   3.546
 1830WAT      O 8039   7.251   3.109   3.389
 1830WAT     H1 8040   7.308   3.159   3.432
 1830WAT     H2 8041   7.181   3.160   3.381
 1830WAT    EPW 8042   7.249   3.124   3.394
 1831WAT      O 8043   6.780   3.876   3.129
 1831WAT     H1 8044   6.837   3.900   3.191
 1831WAT     H2 8045   6.703   3.889   3.167
 1831WAT    EPW 8046   6.777   3.881   3.144
 1832WAT      O 8047   6.394   3.434   3.509
 1832WAT     H1 8048   6.392   3.361   3.556
 1832WAT     H2 8049   6.421   3.408   3.430
 1832WAT    EPW 8050   6.397   3.420   3.504
 1833WAT      O 8051   6.723   4.620   2.704
 1833WAT     H1 8052   6.767   4.693   2.686
 1833WAT     H2 8053   6.739   4.569   2.636
 1833WAT    EPW 8054   6.732   4.623   2.691
 1834WAT      O 8055   7.301   2.958   3.158
 1834WAT     H1 8056   7.297   2.999   3.235
 1834WAT     H2 8057   7.348   2.887   3.175
 1834WAT    EPW 8058   7.307   2.954   3.172
 1835WAT      O 8059   6.602   3.116   3.508
 1835WAT     H1 8060   6.685   3.117   3.481
 1835WAT     H2 8061   6.556   3.105   3.435
 1835WAT    EPW 8062   6.608   3.115   3.493
 1836WAT      O 8063   6.482   4.408   3.056
 1836WAT     H1 8064   6.407   4.433   3.019
 1836WAT     H2 8065   6.524   4.368   2.991
 1836WAT    EPW 8066   6.477   4.406   3.041
 1837WAT      O 8067   6.957   4.034   3.752
 1837WAT     H1 8068   7.037   4.036   3.718
 1837WAT     H2 8069   6.907   4.066   3.688
 1837WAT    EPW 8070   6.961   4.039   3.737
 1838WAT      O 8071   7.247   4.324   3.634
 1838WAT     H1 8072   7.300   4.359   3.695
 1838WAT     H2 8073   7.265   4.370   3.562
 1838WAT    EPW 8074   7.257   4.336   3.633
 1839WAT      O 8075   7.504   3.640   2.083
 1839WAT     H1 8076   7.514   3.688   2.010
 1839WAT     H2 8077   7.422   3.659   2.107
 1839WAT    EPW 8078   7.493   3.650   2.076
 1840WAT      O 8079   6.599   3.885   2.078
 1840WAT     H1 8080   6.531   3.841   2.045
 1840WAT     H2 8081   6.573   3.968   2.074
 1840WAT    EPW 8082   6.585   3.891   2.072
 1841WAT      O 8083   6.286   3.504   3.084
 1841WAT     H1 8084   6.315   3.477   3.006
 1841WAT     H2 8085   6.329   3.452   3.140
 1841WAT    EPW 8086   6.297   3.492   3.081
 1842WAT      O 8087   6.998   3.427   3.615
 1842WAT     H1 8088   6.939   3.491   3.624
 1842WAT     H2 8089   7.033   3.420   3.694
 1842WAT    EPW 8090   6.994   3.435   3.628
 1843WAT      O 8091   7.045   3.541   3.249
 1843WAT     H1 8092   7.045   3.595   3.317
 1843WAT     H2 8093   7.034   3.462   3.285
 1843WAT    EPW 8094   7.043   3.537   3.264
 1844WAT      O 8095   6.756   4.639   3.625
 1844WAT     H1 8096   6.777   4.624   3.542
 1844WAT     H2 8097   6.722   4.563   3.652
 1844WAT    EPW 8098   6.754   4.626   3.617
 1845WAT      O 8099   7.236   3.510   2.471
 1845WAT     H1 8100   7.260   3.506   2.555
 1845WAT     H2 8101   7.312   3.519   2.429
 1845WAT    EPW 8102   7.251   3.510   2.478
 1846WAT      O 8103   6.599   2.978   3.009
 1846WAT     H1 8104   6.517   2.956   3.029
 1846WAT     H2 8105   6.593   3.004   2.926
 1846WAT    EPW 8106   6.586   2.979   2.999
 1847WAT      O 8107   7.414   3.082   2.578
 1847WAT     H1 8108   7.334   3.056   2.602
 1847WAT     H2 8109   7.408   3.091   2.491
 1847WAT    EPW 8110   7.402   3.080   2.569
 1848WAT      O 8111   7.413   3.858   2.416
 1848WAT     H1 8112   7.452   3.780   2.416
 1848WAT     H2 8113   7.328   3.839   2.420
 1848WAT    EPW 8114   7.406   3.844   2.417
 1849WAT      O 8115   6.781   4.098   3.537
 1849WAT     H1 8116   6.705   4.097   3.580
 1849WAT     H2 8117   6.788   4.181   3.511
 1849WAT    EPW 8118   6.771   4.110   3.540
 1850WAT      O 8119   5.743   3.058   3.625
 1850WAT     H1 8120   5.749   3.144   3.619
 1850WAT     H2 8121   5.665   3.046   3.662
 1850WAT    EPW 8122   5.732   3.069   3.630
 1851WAT      O 8123   6.273   4.755   3.124
 1851WAT     H1 8124   6.278   4.741   3.210
 1851WAT     H2 8125   6.279   4.676   3.090
 1851WAT    EPW 8126   6.275   4.742   3.132
 1852WAT      O 8127   6.164   3.323   2.384
 1852WAT     H1 8128   6.173   3.282   2.308
 1852WAT     H2 8129   6.083   3.301   2.410
 1852WAT    EPW 8130   6.153   3.314   2.377
 1853WAT      O 8131   7.047   4.079   2.706
 1853WAT     H1 8132   7.034   4.101   2.790
 1853WAT     H2 8133   7.079   3.999   2.711
 1853WAT    EPW 8134   7.050   4.071   2.719
 1854WAT      O 8135   6.791   3.994   2.636
 1854WAT     H1 8136   6.754   3.992   2.715
 1854WAT     H2 8137   6.871   4.025   2.653
 1854WAT    EPW 8138   6.797   3.999   2.650
 1855WAT      O 8139   6.796   4.369   3.460
 1855WAT     H1 8140   6.849   4.371   3.529
 1855WAT     H2 8141   6.832   4.426   3.404
 1855WAT    EPW 8142   6.809   4.377   3.462
 1856WAT      O 8143   7.038   3.723   3.463
 1856WAT     H1 8144   6.973   3.698   3.515
 1856WAT     H2 8145   7.109   3.717   3.514
 1856WAT    EPW 8146   7.039   3.718   3.478
 1857WAT      O 8147   5.988   4.708   3.632
 1857WAT     H1 8148   5.932   4.640   3.632
 1857WAT     H2 8149   5.939   4.774   3.662
 1857WAT    EPW 8150   5.972   4.708   3.637
 1858WAT      O 8151   6.856   3.806   3.872
 1858WAT     H1 8152   6.887   3.879   3.837
 1858WAT     H2 8153   6.775   3.827   3.897
 1858WAT    EPW 8154   6.849   3.820   3.871
 1859WAT      O 8155   7.149   4.703   2.886
 1859WAT     H1 8156   7.109   4.768   2.929
 1859WAT     H2 8157   7.234   4.723   2.892
 1859WAT    EPW 8158   7.155   4.716   2.893
 1860WAT      O 8159   6.814   4.232   3.160
 1860WAT     H1 8160   6.765   4.183   3.213
 1860WAT     H2 8161   6.873   4.267   3.214
 1860WAT    EPW 8162   6.815   4.230   3.176
 1861WAT      O 8163   7.425   4.400   3.838
 1861WAT     H1 8164   7.507   4.382   3.816
 1861WAT     H2 8165   7.414   4.358   3.914
 1861WAT    EPW 8166   7.435   4.391   3.846
 1862WAT      O 8167   6.148   3.558   3.493
 1862WAT     H1 8168   6.167   3.616   3.431
 1862WAT     H2 8169   6.221   3.512   3.501
 1862WAT    EPW 8170   6.161   3.560   3.485
 1863WAT      O 8171   5.937   3.420   3.374
 1863WAT     H1 8172   5.954   3.424   3.289
 1863WAT     H2 8173   6.006   3.460   3.410
 1863WAT    EPW 8174   5.950   3.427   3.367
 1864WAT      O 8175   7.493   3.584   2.382
 1864WAT     H1 8176   7.523   3.571   2.301
 1864WAT     H2 8177   7.523   3.516   2.427
 1864WAT    EPW 8178   7.502   3.572   2.377
 1865WAT      O 8179   6.136   3.075   3.638
 1865WAT     H1 8180   6.093   2.999   3.639
 1865WAT     H2 8181   6.117   3.108   3.560
 1865WAT    EPW 8182   6.126   3.068   3.627
 1866WAT      O 8183   6.852   4.351   2.571
 1866WAT     H1 8184   6.858   4.415   2.512
 1866WAT     H2 8185   6.790   4.299   2.538
 1866WAT    EPW 8186   6.844   4.353   2.557
 1867WAT      O 8187   7.381   3.730   3.370
 1867WAT     H1 8188   7.428   3.662   3.341
 1867WAT     H2 8189   7.339   3.698   3.439
 1867WAT    EPW 8190   7.382   3.715   3.376
 1868WAT      O 8191   5.907   3.900   3.401
 1868WAT     H1 8192   5.949   3.904   3.325
 1868WAT     H2 8193   5.876   3.818   3.403
 1868WAT    EPW 8194   5.909   3.888   3.390
 1869WAT      O 8195   6.069   3.469   2.018
 1869WAT     H1 8196   5.995   3.477   2.064
 1869WAT     H2 8197   6.062   3.389   1.984
 1869WAT    EPW 8198   6.057   3.458   2.020
 1870WAT      O 8199   6.949   3.099   3.721
 1870WAT     H1 8200   6.974   3.173   3.760
 1870WAT     H2 8201   6.867   3.088   3.748
 1870WAT    EPW 8202   6.941   3.108   3.731
 1871WAT      O 8203   6.892   3.198   2.773
 1871WAT     H1 8204   6.812   3.233   2.775
 1871WAT     H2 8205   6.886   3.137   2.712
 1871WAT    EPW 8206   6.879   3.194   2.764
 1872WAT      O 8207   6.371   4.380   2.195
 1872WAT     H1 8208   6.406   4.376   2.275
 1872WAT     H2 8209   6.294   4.339   2.204
 1872WAT    EPW 8210   6.365   4.373   2.208
 1873WAT      O 8211   7.217   3.222   3.043
 1873WAT     H1 8212   7.269   3.161   3.078
 1873WAT     H2 8213   7.244   3.296   3.078
 1873WAT    EPW 8214   7.228   3.224   3.053
 1874WAT      O 8215   6.412   3.839   3.464
 1874WAT     H1 8216   6.372   3.911   3.491
 1874WAT     H2 8217   6.352   3.801   3.412
 1874WAT    EPW 8218   6.397   3.844   3.460
 1875WAT      O 8219   7.289   3.709   2.919
 1875WAT     H1 8220   7.305   3.770   2.980
 1875WAT     H2 8221   7.242   3.752   2.860
 1875WAT    EPW 8222   7.284   3.724   2.920
 1876WAT      O 8223   7.290   4.541   2.539
 1876WAT     H1 8224   7.259   4.460   2.550
 1876WAT     H2 8225   7.341   4.535   2.469
 1876WAT    EPW 8226   7.293   4.528   2.530
 1877WAT      O 8227   6.125   4.261   2.233
 1877WAT     H1 8228   6.108   4.237   2.315
 1877WAT     H2 8229   6.126   4.186   2.190
 1877WAT    EPW 8230   6.122   4.247   2.239
 1878WAT      O 8231   6.450   4.128   2.051
 1878WAT     H1 8232   6.373   4.091   2.067
 1878WAT     H2 8233   6.446   4.205   2.093
 1878WAT    EPW 8234   6.438   4.134   2.059
 1879WAT      O 8235   6.430   3.073   3.296
 1879WAT     H1 8236   6.364   3.089   3.242
 1879WAT     H2 8237   6.416   2.990   3.321
 1879WAT    EPW 8238   6.418   3.063   3.292
 1880WAT      O 8239   6.761   3.168   3.135
 1880WAT     H1 8240   6.702   3.109   3.109
 1880WAT     H2 8241   6.837   3.133   3.111
 1880WAT    EPW 8242   6.764   3.154   3.128
 1881WAT      O 8243   7.057   4.350   3.266
 1881WAT     H1 8244   7.112   4.396   3.318
 1881WAT     H2 8245   7.067   4.387   3.188
 1881WAT    EPW 8246   7.067   4.362   3.262
 1882WAT      O 8247   7.015   4.701   3.711
 1882WAT     H1 8248   6.938   4.673   3.680
 1882WAT     H2 8249   7.001   4.787   3.724
 1882WAT    EPW 8250   7.001   4.710   3.708
 1883WAT      O 8251   6.553   3.636   3.613
 1883WAT     H1 8252   6.507   3.569   3.580
 1883WAT     H2 8253   6.514   3.706   3.579
 1883WAT    EPW 8254   6.540   3.637   3.603
 1884WAT      O 8255   6.640   2.985   2.140
 1884WAT     H1 8256   6.650   2.998   2.055
 1884WAT     H2 8257   6.554   2.992   2.153
 1884WAT    EPW 8258   6.629   2.988   2.130
 1885WAT      O 8259   7.482   4.093   3.248
 1885WAT     H1 8260   7.448   4.028   3.202
 1885WAT     H2 8261   7.472   4.163   3.196
 1885WAT    EPW 8262   7.476   4.094   3.234
 1886WAT      O 8263   6.429   4.633   3.633
 1886WAT     H1 8264   6.419   4.631   3.719
 1886WAT     H2 8265   6.487   4.569   3.618
 1886WAT    EPW 8266   6.436   4.623   3.643
 1887WAT      O 8267   7.394   4.541   3.155
 1887WAT     H1 8268   7.467   4.554   3.110
 1887WAT     H2 8269   7.366   4.464   3.127
 1887WAT    EPW 8270   7.401   4.532   3.145
 1888WAT      O 8271   6.067   3.171   3.392
 1888WAT     H1 8272   6.093   3.152   3.310
 1888WAT     H2 8273   6.020   3.244   3.381
 1888WAT    EPW 8274   6.064   3.179   3.378
 1889WAT      O 8275   6.986   3.071   3.002
 1889WAT     H1 8276   7.052   3.123   3.024
 1889WAT     H2 8277   6.952   3.109   2.931
 1889WAT    EPW 8278   6.991   3.084   2.995
 1890WAT      O 8279   6.144   4.511   3.771
 1890WAT     H1 8280   6.215   4.543   3.811
 1890WAT     H2 8281   6.109   4.580   3.732
 1890WAT    EPW 8282   6.149   4.526   3.771
 1891WAT      O 8283   6.971   3.592   2.792
 1891WAT     H1 8284   7.021   3.522   2.804
 1891WAT     H2 8285   6.935   3.607   2.870
 1891WAT    EPW 8286   6.973   3.584   2.805
 1892WAT      O 8287   5.992   3.487   2.691
 1892WAT     H1 8288   5.940   3.504   2.759
 1892WAT     H2 8289   6.029   3.411   2.712
 1892WAT    EPW 8290   5.990   3.479   2.704
 1893WAT      O 8291   5.996   4.295   3.495
 1893WAT     H1 8292   5.949   4.353   3.542
 1893WAT     H2 8293   6.077   4.326   3.501
 1893WAT    EPW 8294   6.001   4.308   3.503
 1894WAT      O 8295   7.148   3.761   2.419
 1894WAT     H1 8296   7.164   3.677   2.436
 1894WAT     H2 8297   7.072   3.759   2.376
 1894WAT    EPW 8298   7.139   3.748   2.415
 1895WAT      O 8299   6.144   4.591   2.315
 1895WAT     H1 8300   6.104   4.562   2.243
 1895WAT     H2 8301   6.227   4.565   2.303
 1895WAT    EPW 8302   6.151   4.583   2.303
 1896WAT      O 8303   6.525   3.817   2.340
 1896WAT     H1 8304   6.551   3.848   2.262
 1896WAT     H2 8305   6.599   3.804   2.383
 1896WAT    EPW 8306   6.540   3.820   2.334
 1897WAT      O 8307   7.423   4.644   2.071
 1897WAT     H1 8308   7.450   4.612   2.147
 1897WAT     H2 8309   7.419   4.573   2.019
 1897WAT    EPW 8310   7.427   4.629   2.074
 1898WAT      O 8311   7.511   3.806   3.729
 1898WAT     H1 8312   7.583   3.771   3.694
 1898WAT     H2 8313   7.494   3.874   3.677
 1898WAT    EPW 8314   7.519   3.811   3.716
 1899WAT      O 8315   7.148   4.302   2.277
 1899WAT     H1 8316   7.149   4.279   2.362
 1899WAT     H2 8317   7.094   4.244   2.241
 1899WAT    EPW 8318   7.140   4.290   2.285
 1900WAT      O 8319   7.559   3.380   3.925
 1900WAT     H1 8320   7.542   3.464   3.940
 1900WAT     H2 8321   7.487   3.351   3.885
 1900WAT    EPW 8322   7.546   3.388   3.921
 1901WAT      O 8323   7.503   3.505   3.265
 1901WAT     H1 8324   7.435   3.491   3.212
 1901WAT     H2 8325   7.571   3.473   3.220
 1901WAT    EPW 8326   7.503   3.498   3.251
 1902WAT      O 8327   6.390   3.204   3.667
 1902WAT     H1 8328   6.450   3.165   3.618
 1902WAT     H2 8329   6.319   3.155   3.656
 1902WAT    EPW 8330   6.388   3.191   3.658
 1903WAT      O 8331   7.250   3.970   3.951
 1903WAT     H1 8332   7.328   3.993   3.982
 1903WAT     H2 8333   7.254   3.992   3.866
 1903WAT    EPW 8334   7.262   3.976   3.943
 1904WAT      O 8335   6.216   4.499   2.989
 1904WAT     H1 8336   6.189   4.421   2.961
 1904WAT     H2 8337   6.195   4.553   2.923
 1904WAT    EPW 8338   6.209   4.496   2.975
 1905WAT      O 8339   6.756   4.159   2.225
 1905WAT     H1 8340   6.836   4.133   2.201
 1905WAT     H2 8341   6.740   4.227   2.173
 1905WAT    EPW 8342   6.766   4.165   2.214
 1906WAT      O 8343   5.959   4.771   3.358
 1906WAT     H1 8344   5.975   4.747   3.440
 1906WAT     H2 8345   5.990   4.705   3.310
 1906WAT    EPW 8346   5.966   4.758   3.363
 1907WAT      O 8347   6.928   2.991   0.657
 1907WAT     H1 8348   6.950   3.024   0.579
 1907WAT     H2 8349   7.004   2.969   0.692
 1907WAT    EPW 8350   6.942   2.992   0.650
 1908WAT      O 8351   6.873   3.621   1.153
 1908WAT     H1 8352   6.841   3.698   1.179
 1908WAT     H2 8353   6.928   3.599   1.217
 1908WAT    EPW 8354   6.876   3.630   1.167
 1909WAT      O 8355   5.859   4.094   0.669
 1909WAT     H1 8356   5.846   4.098   0.755
 1909WAT     H2 8357   5.852   4.009   0.650
 1909WAT    EPW 8358   5.856   4.082   0.679
 1910WAT      O 8359   7.492   4.456   0.452
 1910WAT     H1 8360   7.561   4.413   0.483
 1910WAT     H2 8361   7.446   4.395   0.410
 1910WAT    EPW 8362   7.495   4.441   0.450
 1911WAT      O 8363   5.866   3.456   0.313
 1911WAT     H1 8364   5.810   3.515   0.281
 1911WAT     H2 8365   5.826   3.380   0.300
 1911WAT    EPW 8366   5.852   3.454   0.307
 1912WAT      O 8367   6.118   3.999   0.251
 1912WAT     H1 8368   6.102   3.958   0.175
 1912WAT     H2 8369   6.124   3.933   0.308
 1912WAT    EPW 8370   6.116   3.983   0.248
 1913WAT      O 8371   7.134   3.818   0.821
 1913WAT     H1 8372   7.150   3.806   0.736
 1913WAT     H2 8373   7.074   3.757   0.840
 1913WAT    EPW 8374   7.127   3.807   0.811
 1914WAT      O 8375   6.107   4.206   0.620
 1914WAT     H1 8376   6.161   4.173   0.680
 1914WAT     H2 8377   6.032   4.165   0.634
 1914WAT    EPW 8378   6.104   4.195   0.631
 1915WAT      O 8379   6.588   3.113   0.615
 1915WAT     H1 8380   6.585   3.193   0.580
 1915WAT     H2 8381   6.630   3.065   0.556
 1915WAT    EPW 8382   6.593   3.118   0.601
 1916WAT      O 8383   6.016   4.504   0.267
 1916WAT     H1 8384   6.046   4.510   0.186
 1916WAT     H2 8385   6.042   4.424   0.293
 1916WAT    EPW 8386   6.024   4.493   0.259
 1917WAT      O 8387   5.869   4.308   1.328
 1917WAT     H1 8388   5.906   4.288   1.405
 1917WAT     H2 8389   5.798   4.258   1.325
 1917WAT    EPW 8390   5.864   4.298   1.339
 1918WAT      O 8391   6.534   4.145   1.782
 1918WAT     H1 8392   6.513   4.135   1.866
 1918WAT     H2 8393   6.461   4.123   1.740
 1918WAT    EPW 8394   6.520   4.140   1.788
 1919WAT      O 8395   6.056   3.844   0.805
 1919WAT     H1 8396   6.006   3.842   0.734
 1919WAT     H2 8397   6.110   3.776   0.794
 1919WAT    EPW 8398   6.056   3.834   0.793
 1920WAT      O 8399   6.487   3.426   1.352
 1920WAT     H1 8400   6.554   3.428   1.297
 1920WAT     H2 8401   6.462   3.342   1.350
 1920WAT    EPW 8402   6.493   3.414   1.344
 1921WAT      O 8403   6.519   4.431   1.522
 1921WAT     H1 8404   6.533   4.492   1.461
 1921WAT     H2 8405   6.599   4.408   1.546
 1921WAT    EPW 8406   6.533   4.437   1.516
 1922WAT      O 8407   6.219   3.622   0.788
 1922WAT     H1 8408   6.286   3.571   0.810
 1922WAT     H2 8409   6.150   3.569   0.792
 1922WAT    EPW 8410   6.219   3.607   0.792
 1923WAT      O 8411   6.628   4.266   0.941
 1923WAT     H1 8412   6.650   4.184   0.961
 1923WAT     H2 8413   6.705   4.308   0.940
 1923WAT    EPW 8414   6.643   4.260   0.944
 1924WAT      O 8415   6.655   4.181   0.590
 1924WAT     H1 8416   6.698   4.123   0.640
 1924WAT     H2 8417   6.694   4.172   0.512
 1924WAT    EPW 8418   6.667   4.171   0.586
 1925WAT      O 8419   6.823   3.659   1.742
 1925WAT     H1 8420   6.737   3.653   1.726
 1925WAT     H2 8421   6.828   3.704   1.816
 1925WAT    EPW 8422   6.811   3.664   1.750
 1926WAT      O 8423   6.309   3.126   0.683
 1926WAT     H1 8424   6.266   3.172   0.622
 1926WAT     H2 8425   6.390   3.122   0.652
 1926WAT    EPW 8426   6.314   3.132   0.670
 1927WAT      O 8427   7.244   2.872   1.653
 1927WAT     H1 8428   7.232   2.945   1.608
 1927WAT     H2 8429   7.170   2.862   1.698
 1927WAT    EPW 8430   7.231   2.881   1.653
 1928WAT      O 8431   6.614   3.057   0.886
 1928WAT     H1 8432   6.623   3.139   0.916
 1928WAT     H2 8433   6.599   3.068   0.800
 1928WAT    EPW 8434   6.613   3.071   0.878
 1929WAT      O 8435   5.870   3.575   1.054
 1929WAT     H1 8436   5.865   3.661   1.065
 1929WAT     H2 8437   5.803   3.545   1.102
 1929WAT    EPW 8438   5.859   3.583   1.063
 1930WAT      O 8439   5.853   4.541   0.873
 1930WAT     H1 8440   5.792   4.590   0.835
 1930WAT     H2 8441   5.895   4.506   0.805
 1930WAT    EPW 8442   5.851   4.543   0.857
 1931WAT      O 8443   6.477   4.399   0.581
 1931WAT     H1 8444   6.430   4.383   0.653
 1931WAT     H2 8445   6.541   4.339   0.585
 1931WAT    EPW 8446   6.480   4.388   0.592
 1932WAT      O 8447   7.001   4.508   0.366
 1932WAT     H1 8448   7.068   4.565   0.367
 1932WAT     H2 8449   7.038   4.433   0.388
 1932WAT    EPW 8450   7.017   4.505   0.369
 1933WAT      O 8451   6.825   4.604   0.555
 1933WAT     H1 8452   6.858   4.678   0.586
 1933WAT     H2 8453   6.882   4.578   0.495
 1933WAT    EPW 8454   6.838   4.611   0.551
 1934WAT      O 8455   6.109   3.085   1.092
 1934WAT     H1 8456   6.087   3.012   1.050
 1934WAT     H2 8457   6.169   3.059   1.149
 1934WAT    EPW 8458   6.115   3.071   1.094
 1935WAT      O 8459   6.476   3.289   2.005
 1935WAT     H1 8460   6.478   3.254   1.925
 1935WAT     H2 8461   6.516   3.366   1.995
 1935WAT    EPW 8462   6.482   3.295   1.992
 1936WAT      O 8463   5.994   4.457   0.648
 1936WAT     H1 8464   6.045   4.386   0.654
 1936WAT     H2 8465   6.043   4.512   0.602
 1936WAT    EPW 8466   6.009   4.454   0.642
 1937WAT      O 8467   7.519   3.353   0.680
 1937WAT     H1 8468   7.476   3.393   0.744
 1937WAT     H2 8469   7.497   3.269   0.689
 1937WAT    EPW 8470   7.510   3.347   0.691
 1938WAT      O 8471   7.064   4.657   1.308
 1938WAT     H1 8472   7.128   4.714   1.291
 1938WAT     H2 8473   7.064   4.604   1.238
 1938WAT    EPW 8474   7.073   4.658   1.295
 1939WAT      O 8475   6.051   3.201   1.929
 1939WAT     H1 8476   5.971   3.174   1.908
 1939WAT     H2 8477   6.101   3.169   1.865
 1939WAT    EPW 8478   6.046   3.192   1.917
 1940WAT      O 8479   6.131   4.274   1.008
 1940WAT     H1 8480   6.184   4.254   0.941
 1940WAT     H2 8481   6.159   4.224   1.073
 1940WAT    EPW 8482   6.143   4.264   1.007
 1941WAT      O 8483   6.430   4.593   0.916
 1941WAT     H1 8484   6.510   4.608   0.885
 1941WAT     H2 8485   6.378   4.639   0.863
 1941WAT    EPW 8486   6.434   4.602   0.904
 1942WAT      O 8487   6.669   3.020   1.868
 1942WAT     H1 8488   6.682   2.947   1.822
 1942WAT     H2 8489   6.602   3.058   1.827
 1942WAT    EPW 8490   6.661   3.015   1.856
 1943WAT      O 8491   6.758   3.552   0.716
 1943WAT     H1 8492   6.790   3.505   0.650
 1943WAT     H2 8493   6.828   3.569   0.766
 1943WAT    EPW 8494   6.773   3.547   0.714
 1944WAT      O 8495   6.875   3.558   0.262
 1944WAT     H1 8496   6.898   3.635   0.295
 1944WAT     H2 8497   6.807   3.576   0.211
 1944WAT    EPW 8498   6.869   3.572   0.259
 1945WAT      O 8499   7.205   4.686   0.414
 1945WAT     H1 8500   7.277   4.690   0.365
 1945WAT     H2 8501   7.234   4.652   0.489
 1945WAT    EPW 8502   7.220   4.681   0.418
 1946WAT      O 8503   6.277   4.679   1.497
 1946WAT     H1 8504   6.321   4.660   1.570
 1946WAT     H2 8505   6.221   4.613   1.488
 1946WAT    EPW 8506   6.276   4.666   1.506
 1947WAT      O 8507   5.773   3.311   1.645
 1947WAT     H1 8508   5.768   3.382   1.697
 1947WAT     H2 8509   5.836   3.332   1.588
 1947WAT    EPW 8510   5.781   3.325   1.645
 1948WAT      O 8511   6.969   4.355   1.766
 1948WAT     H1 8512   6.965   4.392   1.845
 1948WAT     H2 8513   7.054   4.346   1.751
 1948WAT    EPW 8514   6.981   4.359   1.775
 1949WAT      O 8515   6.789   4.419   0.206
 1949WAT     H1 8516   6.730   4.482   0.222
 1949WAT     H2 8517   6.863   4.453   0.236
 1949WAT    EPW 8518   6.791   4.434   0.213
 1950WAT      O 8519   7.021   3.054   0.403
 1950WAT     H1 8520   7.087   2.997   0.402
 1950WAT     H2 8521   7.059   3.129   0.428
 1950WAT    EPW 8522   7.036   3.057   0.407
 1951WAT      O 8523   5.882   3.227   0.588
 1951WAT     H1 8524   5.859   3.145   0.567
 1951WAT     H2 8525   5.833   3.245   0.657
 1951WAT    EPW 8526   5.872   3.217   0.595
 1952WAT      O 8527   6.053   4.532   1.366
 1952WAT     H1 8528   5.993   4.469   1.358
 1952WAT     H2 8529   6.096   4.528   1.290
 1952WAT    EPW 8530   6.050   4.522   1.353
 1953WAT      O 8531   6.830   3.407   0.488
 1953WAT     H1 8532   6.753   3.371   0.470
 1953WAT     H2 8533   6.849   3.453   0.416
 1953WAT    EPW 8534   6.821   3.409   0.475
 1954WAT      O 8535   6.844   4.633   1.465
 1954WAT     H1 8536   6.916   4.638   1.415
 1954WAT     H2 8537   6.779   4.629   1.406
 1954WAT    EPW 8538   6.845   4.633   1.449
 1955WAT      O 8539   6.744   3.061   0.371
 1955WAT     H1 8540   6.720   3.139   0.340
 1955WAT     H2 8541   6.831   3.064   0.368
 1955WAT    EPW 8542   6.753   3.073   0.366
 1956WAT      O 8543   7.458   4.683   0.859
 1956WAT     H1 8544   7.466   4.760   0.818
 1956WAT     H2 8545   7.424   4.631   0.797
 1956WAT    EPW 8546   7.454   4.686   0.844
 1957WAT      O 8547   6.654   3.348   0.885
 1957WAT     H1 8548   6.678   3.416   0.835
 1957WAT     H2 8549   6.666   3.378   0.967
 1957WAT    EPW 8550   6.659   3.363   0.890
 1958WAT      O 8551   7.209   4.279   0.682
 1958WAT     H1 8552   7.282   4.232   0.681
 1958WAT     H2 8553   7.155   4.232   0.732
 1958WAT    EPW 8554   7.212   4.265   0.689
 1959WAT      O 8555   6.255   4.373   1.632
 1959WAT     H1 8556   6.332   4.406   1.609
 1959WAT     H2 8557   6.236   4.414   1.707
 1959WAT    EPW 8558   6.263   4.384   1.639
 1960WAT      O 8559   6.243   2.865   0.742
 1960WAT     H1 8560   6.263   2.948   0.724
 1960WAT     H2 8561   6.210   2.836   0.666
 1960WAT    EPW 8562   6.241   2.873   0.728
 1961WAT      O 8563   6.434   3.955   1.085
 1961WAT     H1 8564   6.458   3.935   1.166
 1961WAT     H2 8565   6.379   3.891   1.063
 1961WAT    EPW 8566   6.430   3.943   1.094
 1962WAT      O 8567   7.011   3.284   1.478
 1962WAT     H1 8568   7.003   3.322   1.557
 1962WAT     H2 8569   6.945   3.227   1.476
 1962WAT    EPW 8570   7.000   3.281   1.489
 1963WAT      O 8571   6.534   3.948   1.343
 1963WAT     H1 8572   6.519   4.034   1.353
 1963WAT     H2 8573   6.503   3.914   1.417
 1963WAT    EPW 8574   6.527   3.956   1.356
 1964WAT      O 8575   7.131   4.084   1.319
 1964WAT     H1 8576   7.073   4.036   1.363
 1964WAT     H2 8577   7.116   4.165   1.347
 1964WAT    EPW 8578   7.120   4.089   1.330
 1965WAT      O 8579   7.178   2.925   0.750
 1965WAT     H1 8580   7.176   2.909   0.836
 1965WAT     H2 8581   7.217   2.854   0.717
 1965WAT    EPW 8582   7.183   2.912   0.758
 1966WAT      O 8583   5.801   4.373   1.927
 1966WAT     H1 8584   5.853   4.416   1.982
 1966WAT     H2 8585   5.822   4.290   1.938
 1966WAT    EPW 8586   5.811   4.367   1.937
 1967WAT      O 8587   7.400   3.283   1.617
 1967WAT     H1 8588   7.427   3.360   1.586
 1967WAT     H2 8589   7.382   3.300   1.701
 1967WAT    EPW 8590   7.401   3.297   1.625
 1968WAT      O 8591   6.177   3.262   0.891
 1968WAT     H1 8592   6.212   3.210   0.831
 1968WAT     H2 8593   6.161   3.208   0.958
 1968WAT    EPW 8594   6.180   3.246   0.892
 1969WAT      O 8595   7.390   4.003   0.310
 1969WAT     H1 8596   7.421   3.973   0.386
 1969WAT     H2 8597   7.357   3.932   0.272
 1969WAT    EPW 8598   7.390   3.989   0.316
 1970WAT      O 8599   6.226   4.064   0.825
 1970WAT     H1 8600   6.298   4.040   0.782
 1970WAT     H2 8601   6.177   3.992   0.824
 1970WAT    EPW 8602   6.229   4.050   0.819
 1971WAT      O 8603   6.064   4.699   0.951
 1971WAT     H1 8604   5.993   4.656   0.926
 1971WAT     H2 8605   6.113   4.701   0.879
 1971WAT    EPW 8606   6.061   4.693   0.937
 1972WAT      O 8607   6.045   3.423   1.209
 1972WAT     H1 8608   6.126   3.449   1.191
 1972WAT     H2 8609   5.996   3.473   1.156
 1972WAT    EPW 8610   6.049   3.434   1.199
 1973WAT      O 8611   7.270   3.748   0.268
 1973WAT     H1 8612   7.199   3.723   0.224
 1973WAT     H2 8613   7.242   3.755   0.350
 1973WAT    EPW 8614   7.256   3.745   0.273
 1974WAT      O 8615   6.434   4.007   0.651
 1974WAT     H1 8616   6.492   4.066   0.624
 1974WAT     H2 8617   6.443   3.940   0.595
 1974WAT    EPW 8618   6.444   4.006   0.639
 1975WAT      O 8619   5.882   4.154   0.952
 1975WAT     H1 8620   5.827   4.213   0.985
 1975WAT     H2 8621   5.961   4.190   0.963
 1975WAT    EPW 8622   5.886   4.168   0.959
 1976WAT      O 8623   6.610   3.535   1.996
 1976WAT     H1 8624   6.560   3.566   2.060
 1976WAT     H2 8625   6.583   3.581   1.926
 1976WAT    EPW 8626   6.599   3.547   1.995
 1977WAT      O 8627   5.910   3.827   0.575
 1977WAT     H1 8628   5.887   3.743   0.580
 1977WAT     H2 8629   5.982   3.826   0.526
 1977WAT    EPW 8630   5.918   3.814   0.569
 1978WAT      O 8631   7.436   3.074   0.423
 1978WAT     H1 8632   7.450   3.011   0.365
 1978WAT     H2 8633   7.422   3.145   0.373
 1978WAT    EPW 8634   7.436   3.075   0.407
 1979WAT      O 8635   6.859   4.423   0.925
 1979WAT     H1 8636   6.813   4.496   0.909
 1979WAT     H2 8637   6.878   4.393   0.846
 1979WAT    EPW 8638   6.855   4.429   0.911
 1980WAT      O 8639   5.820   4.303   0.494
 1980WAT     H1 8640   5.873   4.358   0.535
 1980WAT     H2 8641   5.814   4.235   0.550
 1980WAT    EPW 8642   5.827   4.301   0.509
 1981WAT      O 8643   6.242   4.114   1.205
 1981WAT     H1 8644   6.295   4.154   1.262
 1981WAT     H2 8645   6.297   4.070   1.154
 1981WAT    EPW 8646   6.258   4.114   1.206
 1982WAT      O 8647   7.109   3.364   0.918
 1982WAT     H1 8648   7.138   3.318   0.987
 1982WAT     H2 8649   7.050   3.310   0.882
 1982WAT    EPW 8650   7.105   3.349   0.923
 1983WAT      O 8651   5.841   4.107   0.289
 1983WAT     H1 8652   5.922   4.075   0.284
 1983WAT     H2 8653   5.849   4.175   0.343
 1983WAT    EPW 8654   5.854   4.113   0.296
 1984WAT      O 8655   5.902   3.887   1.032
 1984WAT     H1 8656   5.954   3.863   0.967
 1984WAT     H2 8657   5.893   3.973   1.021
 1984WAT    EPW 8658   5.908   3.896   1.021
 1985WAT      O 8659   6.574   3.311   0.413
 1985WAT     H1 8660   6.519   3.247   0.389
 1985WAT     H2 8661   6.528   3.384   0.398
 1985WAT    EPW 8662   6.559   3.312   0.407
 1986WAT      O 8663   7.276   4.485   1.502
 1986WAT     H1 8664   7.268   4.561   1.543
 1986WAT     H2 8665   7.324   4.503   1.432
 1986WAT    EPW 8666   7.282   4.499   1.498
 1987WAT      O 8667   6.370   4.340   0.827
 1987WAT     H1 8668   6.380   4.420   0.861
 1987WAT     H2 8669   6.439   4.296   0.858
 1987WAT    EPW 8670   6.382   4.345   0.837
 1988WAT      O 8671   6.157   3.666   1.845
 1988WAT     H1 8672   6.121   3.604   1.894
 1988WAT     H2 8673   6.155   3.632   1.764
 1988WAT    EPW 8674   6.152   3.652   1.840
 1989WAT      O 8675   6.135   3.520   0.380
 1989WAT     H1 8676   6.144   3.457   0.439
 1989WAT     H2 8677   6.055   3.507   0.347
 1989WAT    EPW 8678   6.125   3.509   0.384
 1990WAT      O 8679   6.255   3.755   1.035
 1990WAT     H1 8680   6.245   3.723   0.954
 1990WAT     H2 8681   6.271   3.684   1.083
 1990WAT    EPW 8682   6.256   3.740   1.030
 1991WAT      O 8683   6.229   3.721   1.385
 1991WAT     H1 8684   6.254   3.670   1.319
 1991WAT     H2 8685   6.174   3.778   1.347
 1991WAT    EPW 8686   6.224   3.722   1.370
 1992WAT      O 8687   7.275   3.486   1.211
 1992WAT     H1 8688   7.204   3.506   1.258
 1992WAT     H2 8689   7.279   3.550   1.151
 1992WAT    EPW 8690   7.265   3.498   1.209
 1993WAT      O 8691   6.617   4.598   1.311
 1993WAT     H1 8692   6.595   4.538   1.252
 1993WAT     H2 8693   6.602   4.673   1.270
 1993WAT    EPW 8694   6.611   4.600   1.297
 1994WAT      O 8695   6.844   3.064   1.545
 1994WAT     H1 8696   6.869   2.983   1.523
 1994WAT     H2 8697   6.877   3.075   1.625
 1994WAT    EPW 8698   6.852   3.053   1.554
 1995WAT      O 8699   7.089   3.297   0.510
 1995WAT     H1 8700   7.143   3.362   0.533
 1995WAT     H2 8701   7.010   3.334   0.510
 1995WAT    EPW 8702   7.085   3.312   0.514
 1996WAT      O 8703   6.034   3.905   1.913
 1996WAT     H1 8704   6.029   3.946   1.836
 1996WAT     H2 8705   6.073   3.829   1.893
 1996WAT    EPW 8706   6.039   3.900   1.899
 1997WAT      O 8707   7.231   4.055   1.782
 1997WAT     H1 8708   7.234   4.140   1.766
 1997WAT     H2 8709   7.284   4.021   1.721
 1997WAT    EPW 8710   7.239   4.062   1.771
 1998WAT      O 8711   6.613   4.414   1.817
 1998WAT     H1 8712   6.641   4.406   1.900
 1998WAT     H2 8713   6.589   4.332   1.797
 1998WAT    EPW 8714   6.614   4.401   1.826
 1999WAT      O 8715   6.680   3.422   1.150
 1999WAT     H1 8716   6.743   3.481   1.158
 1999WAT     H2 8717   6.717   3.348   1.179
 1999WAT    EPW 8718   6.694   3.420   1.155
 2000WAT      O 8719   6.947   3.793   0.389
 2000WAT     H1 8720   6.957   3.870   0.351
 2000WAT     H2 8721   6.877   3.804   0.440
 2000WAT    EPW 8722   6.938   3.806   0.391
 2001WAT      O 8723   7.442   4.128   0.681
 2001WAT     H1 8724   7.485   4.117   0.756
 2001WAT     H2 8725   7.447   4.049   0.643
 2001WAT    EPW 8726   7.449   4.114   0.687
 2002WAT      O 8727   7.079   4.457   1.101
 2002WAT     H1 8728   7.009   4.434   1.054
 2002WAT     H2 8729   7.110   4.527   1.058
 2002WAT    EPW 8730   7.073   4.464   1.088
 2003WAT      O 8731   6.986   4.136   1.085
 2003WAT     H1 8732   6.916   4.172   1.122
 2003WAT     H2 8733   7.032   4.105   1.152
 2003WAT    EPW 8734   6.982   4.136   1.100
 2004WAT      O 8735   6.420   4.644   0.448
 2004WAT     H1 8736   6.436   4.576   0.500
 2004WAT     H2 8737   6.489   4.645   0.395
 2004WAT    EPW 8738   6.433   4.634   0.448
 2005WAT      O 8739   6.404   3.094   0.361
 2005WAT     H1 8740   6.396   3.012   0.389
 2005WAT     H2 8741   6.329   3.109   0.319
 2005WAT    EPW 8742   6.392   3.084   0.359
 2006WAT      O 8743   6.665   4.645   0.327
 2006WAT     H1 8744   6.704   4.625   0.401
 2006WAT     H2 8745   6.684   4.730   0.316
 2006WAT    EPW 8746   6.673   4.655   0.336
 2007WAT      O 8747   7.435   3.969   1.605
 2007WAT     H1 8748   7.421   3.895   1.561
 2007WAT     H2 8749   7.455   4.027   1.543
 2007WAT    EPW 8750   7.436   3.966   1.589
 2008WAT      O 8751   6.965   4.508   2.002
 2008WAT     H1 8752   6.997   4.527   2.080
 2008WAT     H2 8753   6.991   4.574   1.952
 2008WAT    EPW 8754   6.973   4.520   2.006
 2009WAT      O 8755   7.339   3.006   1.887
 2009WAT     H1 8756   7.323   2.961   1.814
 2009WAT     H2 8757   7.370   2.946   1.942
 2009WAT    EPW 8758   7.341   2.991   1.884
 2010WAT      O 8759   6.154   3.795   0.437
 2010WAT     H1 8760   6.148   3.709   0.421
 2010WAT     H2 8761   6.232   3.803   0.476
 2010WAT    EPW 8762   6.165   3.783   0.440
 2011WAT      O 8763   6.934   3.948   1.454
 2011WAT     H1 8764   6.883   3.986   1.514
 2011WAT     H2 8765   6.964   3.877   1.495
 2011WAT    EPW 8766   6.931   3.943   1.469
 2012WAT      O 8767   5.792   2.966   0.516
 2012WAT     H1 8768   5.799   2.909   0.450
 2012WAT     H2 8769   5.762   2.918   0.582
 2012WAT    EPW 8770   5.789   2.951   0.516
 2013WAT      O 8771   6.731   3.792   0.566
 2013WAT     H1 8772   6.749   3.854   0.623
 2013WAT     H2 8773   6.730   3.719   0.614
 2013WAT    EPW 8774   6.733   3.790   0.581
 2014WAT      O 8775   7.298   4.280   1.167
 2014WAT     H1 8776   7.233   4.317   1.122
 2014WAT     H2 8777   7.261   4.210   1.203
 2014WAT    EPW 8778   7.283   4.275   1.166
 2015WAT      O 8779   6.170   3.207   0.243
 2015WAT     H1 8780   6.112   3.176   0.186
 2015WAT     H2 8781   6.192   3.284   0.210
 2015WAT    EPW 8782   6.165   3.214   0.230
 2016WAT      O 8783   6.690   3.998   0.992
 2016WAT     H1 8784   6.607   3.978   1.011
 2016WAT     H2 8785   6.734   3.967   1.061
 2016WAT    EPW 8786   6.684   3.990   1.005
 2017WAT      O 8787   6.059   3.912   1.268
 2017WAT     H1 8788   6.111   3.980   1.251
 2017WAT     H2 8789   6.019   3.898   1.192
 2017WAT    EPW 8790   6.061   3.920   1.254
 2018WAT      O 8791   6.386   3.440   0.921
 2018WAT     H1 8792   6.463   3.403   0.904
 2018WAT     H2 8793   6.329   3.374   0.911
 2018WAT    EPW 8794   6.389   3.425   0.917
 2019WAT      O 8795   5.862   3.551   0.591
 2019WAT     H1 8796   5.898   3.514   0.662
 2019WAT     H2 8797   5.873   3.491   0.529
 2019WAT    EPW 8798   5.869   3.537   0.592
 2020WAT      O 8799   7.325   3.887   1.248
 2020WAT     H1 8800   7.336   3.835   1.316
 2020WAT     H2 8801   7.259   3.939   1.271
 2020WAT    EPW 8802   7.317   3.887   1.261
 2021WAT      O 8803   6.026   4.035   1.672
 2021WAT     H1 8804   5.983   3.987   1.614
 2021WAT     H2 8805   6.001   4.117   1.653
 2021WAT    EPW 8806   6.016   4.040   1.660
 2022WAT      O 8807   6.422   3.540   0.363
 2022WAT     H1 8808   6.438   3.620   0.394
 2022WAT     H2 8809   6.335   3.537   0.359
 2022WAT    EPW 8810   6.411   3.552   0.367
 2023WAT      O 8811   7.323   3.284   1.893
 2023WAT     H1 8812   7.241   3.301   1.917
 2023WAT     H2 8813   7.327   3.197   1.893
 2023WAT    EPW 8814   7.311   3.273   1.897
 2024WAT      O 8815   5.820   3.181   1.060
 2024WAT     H1 8816   5.805   3.207   0.979
 2024WAT     H2 8817   5.907   3.176   1.064
 2024WAT    EPW 8818   5.831   3.184   1.049
 2025WAT      O 8819   7.090   3.637   1.933
 2025WAT     H1 8820   7.136   3.646   2.007
 2025WAT     H2 8821   7.016   3.680   1.950
 2025WAT    EPW 8822   7.086   3.645   1.947
 2026WAT      O 8823   7.269   3.686   1.728
 2026WAT     H1 8824   7.340   3.715   1.770
 2026WAT     H2 8825   7.216   3.661   1.792
 2026WAT    EPW 8826   7.272   3.687   1.743
 2027WAT      O 8827   7.335   4.277   0.317
 2027WAT     H1 8828   7.360   4.194   0.307
 2027WAT     H2 8829   7.254   4.270   0.349
 2027WAT    EPW 8830   7.326   4.263   0.320
 2028WAT      O 8831   7.340   3.494   0.847
 2028WAT     H1 8832   7.273   3.447   0.876
 2028WAT     H2 8833   7.343   3.562   0.902
 2028WAT    EPW 8834   7.330   3.497   0.859
 2029WAT      O 8835   7.019   4.031   0.261
 2029WAT     H1 8836   7.062   4.087   0.313
 2029WAT     H2 8837   7.060   4.040   0.184
 2029WAT    EPW 8838   7.032   4.041   0.257
 2030WAT      O 8839   6.478   4.226   1.336
 2030WAT     H1 8840   6.479   4.280   1.404
 2030WAT     H2 8841   6.481   4.279   1.267
 2030WAT    EPW 8842   6.479   4.242   1.336
 2031WAT      O 8843   6.296   4.094   1.640
 2031WAT     H1 8844   6.215   4.066   1.655
 2031WAT     H2 8845   6.286   4.180   1.629
 2031WAT    EPW 8846   6.283   4.103   1.641
 2032WAT      O 8847   7.228   3.105   1.497
 2032WAT     H1 8848   7.288   3.157   1.534
 2032WAT     H2 8849   7.159   3.157   1.488
 2032WAT    EPW 8850   7.227   3.121   1.501
 2033WAT      O 8851   6.779   3.872   1.235
 2033WAT     H1 8852   6.833   3.900   1.297
 2033WAT     H2 8853   6.700   3.887   1.270
 2033WAT    EPW 8854   6.775   3.878   1.250
 2034WAT      O 8855   6.417   3.430   1.623
 2034WAT     H1 8856   6.432   3.351   1.655
 2034WAT     H2 8857   6.448   3.426   1.541
 2034WAT    EPW 8858   6.423   3.418   1.615
 2035WAT      O 8859   6.695   4.635   0.829
 2035WAT     H1 8860   6.694   4.720   0.849
 2035WAT     H2 8861   6.714   4.634   0.744
 2035WAT    EPW 8862   6.698   4.648   0.820
 2036WAT      O 8863   7.290   2.970   1.262
 2036WAT     H1 8864   7.281   3.009   1.339
 2036WAT     H2 8865   7.342   2.902   1.279
 2036WAT    EPW 8866   7.296   2.966   1.276
 2037WAT      O 8867   6.568   3.027   1.536
 2037WAT     H1 8868   6.654   3.041   1.529
 2037WAT     H2 8869   6.563   2.940   1.544
 2037WAT    EPW 8870   6.580   3.016   1.536
 2038WAT      O 8871   6.503   4.415   1.135
 2038WAT     H1 8872   6.454   4.470   1.088
 2038WAT     H2 8873   6.547   4.369   1.075
 2038WAT    EPW 8874   6.503   4.416   1.120
 2039WAT      O 8875   6.956   4.033   1.852
 2039WAT     H1 8876   7.036   4.035   1.819
 2039WAT     H2 8877   6.905   4.065   1.788
 2039WAT    EPW 8878   6.960   4.038   1.838
 2040WAT      O 8879   7.243   4.326   1.731
 2040WAT     H1 8880   7.297   4.361   1.791
 2040WAT     H2 8881   7.263   4.370   1.658
 2040WAT    EPW 8882   7.254   4.338   1.729
 2041WAT      O 8883   7.496   3.580   0.246
 2041WAT     H1 8884   7.550   3.621   0.192
 2041WAT     H2 8885   7.424   3.630   0.245
 2041WAT    EPW 8886   7.493   3.593   0.238
 2042WAT      O 8887   6.305   3.523   1.174
 2042WAT     H1 8888   6.336   3.492   1.099
 2042WAT     H2 8889   6.362   3.492   1.233
 2042WAT    EPW 8890   6.318   3.514   1.172
 2043WAT      O 8891   6.979   3.424   1.715
 2043WAT     H1 8892   6.925   3.491   1.728
 2043WAT     H2 8893   7.019   3.414   1.793
 2043WAT    EPW 8894   6.977   3.432   1.729
 2044WAT      O 8895   7.044   3.535   1.356
 2044WAT     H1 8896   7.043   3.588   1.425
 2044WAT     H2 8897   7.028   3.456   1.391
 2044WAT    EPW 8898   7.041   3.531   1.371
 2045WAT      O 8899   6.758   4.639   1.728
 2045WAT     H1 8900   6.780   4.626   1.645
 2045WAT     H2 8901   6.723   4.563   1.752
 2045WAT    EPW 8902   6.756   4.626   1.720
 2046WAT      O 8903   7.248   3.516   0.586
 2046WAT     H1 8904   7.264   3.506   0.671
 2046WAT     H2 8905   7.326   3.527   0.551
 2046WAT    EPW 8906   7.262   3.516   0.593
 2047WAT      O 8907   6.564   2.979   1.161
 2047WAT     H1 8908   6.479   2.976   1.179
 2047WAT     H2 8909   6.567   2.983   1.074
 2047WAT    EPW 8910   6.552   2.979   1.151
 2048WAT      O 8911   7.418   3.078   0.701
 2048WAT     H1 8912   7.335   3.055   0.716
 2048WAT     H2 8913   7.425   3.072   0.614
 2048WAT    EPW 8914   7.406   3.073   0.690
 2049WAT      O 8915   7.438   3.874   0.557
 2049WAT     H1 8916   7.482   3.798   0.557
 2049WAT     H2 8917   7.355   3.850   0.561
 2049WAT    EPW 8918   7.432   3.859   0.558
 2050WAT      O 8919   6.777   4.095   1.640
 2050WAT     H1 8920   6.701   4.095   1.683
 2050WAT     H2 8921   6.783   4.176   1.609
 2050WAT    EPW 8922   6.767   4.107   1.642
 2051WAT      O 8923   5.819   3.085   1.800
 2051WAT     H1 8924   5.811   3.160   1.755
 2051WAT     H2 8925   5.737   3.063   1.818
 2051WAT    EPW 8926   5.806   3.093   1.796
 2052WAT      O 8927   6.301   4.761   1.228
 2052WAT     H1 8928   6.298   4.744   1.314
 2052WAT     H2 8929   6.281   4.684   1.191
 2052WAT    EPW 8930   6.298   4.747   1.235
 2053WAT      O 8931   6.145   3.277   0.515
 2053WAT     H1 8932   6.145   3.243   0.435
 2053WAT     H2 8933   6.064   3.262   0.544
 2053WAT    EPW 8934   6.133   3.269   0.508
 2054WAT      O 8935   7.052   4.087   0.820
 2054WAT     H1 8936   7.031   4.107   0.903
 2054WAT     H2 8937   7.085   4.006   0.827
 2054WAT    EPW 8938   7.054   4.078   0.833
 2055WAT      O 8939   6.800   4.000   0.738
 2055WAT     H1 8940   6.762   3.992   0.817
 2055WAT     H2 8941   6.879   4.030   0.757
 2055WAT    EPW 8942   6.806   4.003   0.753
 2056WAT      O 8943   6.794   4.366   1.554
 2056WAT     H1 8944   6.846   4.365   1.625
 2056WAT     H2 8945   6.827   4.431   1.506
 2056WAT    EPW 8946   6.807   4.376   1.558
 2057WAT      O 8947   7.034   3.718   1.569
 2057WAT     H1 8948   6.969   3.696   1.622
 2057WAT     H2 8949   7.105   3.712   1.620
 2057WAT    EPW 8950   7.035   3.714   1.584
 2058WAT      O 8951   5.978   4.719   1.740
 2058WAT     H1 8952   5.923   4.654   1.723
 2058WAT     H2 8953   5.926   4.782   1.771
 2058WAT    EPW 8954   5.962   4.719   1.742
 2059WAT      O 8955   6.852   3.810   1.979
 2059WAT     H1 8956   6.883   3.882   1.942
 2059WAT     H2 8957   6.771   3.832   2.002
 2059WAT    EPW 8958   6.845   3.824   1.977
 2060WAT      O 8959   7.155   4.712   1.016
 2060WAT     H1 8960   7.094   4.769   1.041
 2060WAT     H2 8961   7.227   4.738   1.059
 2060WAT    EPW 8962   7.157   4.724   1.026
 2061WAT      O 8963   6.797   4.245   1.262
 2061WAT     H1 8964   6.720   4.230   1.301
 2061WAT     H2 8965   6.848   4.272   1.327
 2061WAT    EPW 8966   6.793   4.247   1.277
 2062WAT      O 8967   7.425   4.402   1.931
 2062WAT     H1 8968   7.506   4.381   1.905
 2062WAT     H2 8969   7.415   4.356   2.005
 2062WAT    EPW 8970   7.435   4.392   1.938
 2063WAT      O 8971   6.164   3.544   1.591
 2063WAT     H1 8972   6.180   3.604   1.529
 2063WAT     H2 8973   6.241   3.505   1.602
 2063WAT    EPW 8974   6.177   3.547   1.583
 2064WAT      O 8975   5.976   3.379   1.468
 2064WAT     H1 8976   5.994   3.391   1.383
 2064WAT     H2 8977   6.032   3.432   1.508
 2064WAT    EPW 8978   5.987   3.389   1.461
 2065WAT      O 8979   7.508   3.593   0.523
 2065WAT     H1 8980   7.520   3.576   0.439
 2065WAT     H2 8981   7.536   3.521   0.563
 2065WAT    EPW 8982   7.514   3.580   0.517
 2066WAT      O 8983   6.199   3.076   1.730
 2066WAT     H1 8984   6.172   2.993   1.732
 2066WAT     H2 8985   6.180   3.102   1.649
 2066WAT    EPW 8986   6.192   3.067   1.719
 2067WAT      O 8987   6.871   4.348   0.658
 2067WAT     H1 8988   6.852   4.428   0.627
 2067WAT     H2 8989   6.799   4.302   0.642
 2067WAT    EPW 8990   6.858   4.353   0.651
 2068WAT      O 8991   7.380   3.730   1.474
 2068WAT     H1 8992   7.425   3.659   1.448
 2068WAT     H2 8993   7.336   3.701   1.543
 2068WAT    EPW 8994   7.380   3.715   1.480
 2069WAT      O 8995   5.883   3.895   1.482
 2069WAT     H1 8996   5.933   3.906   1.411
 2069WAT     H2 8997   5.861   3.810   1.478
 2069WAT    EPW 8998   5.887   3.884   1.471
 2070WAT      O 8999   6.927   3.112   1.810
 2070WAT     H1 9000   6.957   3.184   1.849
 2070WAT     H2 9001   6.847   3.103   1.843
 2070WAT    EPW 9002   6.920   3.121   1.821
 2071WAT      O 9003   6.900   3.198   0.845
 2071WAT     H1 9004   6.820   3.234   0.844
 2071WAT     H2 9005   6.896   3.139   0.780
 2071WAT    EPW 9006   6.887   3.195   0.835
 2072WAT      O 9007   6.408   4.280   0.336
 2072WAT     H1 9008   6.431   4.321   0.410
 2072WAT     H2 9009   6.321   4.286   0.336
 2072WAT    EPW 9010   6.398   4.287   0.347
 2073WAT      O 9011   7.205   3.222   1.139
 2073WAT     H1 9012   7.254   3.159   1.174
 2073WAT     H2 9013   7.236   3.295   1.175
 2073WAT    EPW 9014   7.217   3.224   1.149
 2074WAT      O 9015   6.409   3.842   1.567
 2074WAT     H1 9016   6.370   3.916   1.593
 2074WAT     H2 9017   6.349   3.805   1.516
 2074WAT    EPW 9018   6.394   3.848   1.563
 2075WAT      O 9019   7.292   3.707   1.030
 2075WAT     H1 9020   7.309   3.768   1.091
 2075WAT     H2 9021   7.246   3.751   0.970
 2075WAT    EPW 9022   7.288   3.723   1.030
 2076WAT      O 9023   7.307   4.544   0.641
 2076WAT     H1 9024   7.269   4.469   0.665
 2076WAT     H2 9025   7.372   4.518   0.589
 2076WAT    EPW 9026   7.311   4.529   0.637
 2077WAT      O 9027   6.130   4.263   0.349
 2077WAT     H1 9028   6.126   4.245   0.435
 2077WAT     H2 9029   6.127   4.184   0.312
 2077WAT    EPW 9030   6.129   4.248   0.357
 2078WAT      O 9031   6.414   4.006   0.279
 2078WAT     H1 9032   6.329   4.005   0.258
 2078WAT     H2 9033   6.430   4.090   0.294
 2078WAT    EPW 9034   6.403   4.019   0.278
 2079WAT      O 9035   6.392   3.174   1.375
 2079WAT     H1 9036   6.311   3.154   1.400
 2079WAT     H2 9037   6.441   3.116   1.417
 2079WAT    EPW 9038   6.387   3.162   1.385
 2080WAT      O 9039   6.761   3.170   1.222
 2080WAT     H1 9040   6.697   3.111   1.216
 2080WAT     H2 9041   6.830   3.130   1.189
 2080WAT    EPW 9042   6.762   3.156   1.216
 2081WAT      O 9043   7.060   4.347   1.369
 2081WAT     H1 9044   7.117   4.395   1.415
 2081WAT     H2 9045   7.064   4.383   1.289
 2081WAT    EPW 9046   7.069   4.360   1.364
 2082WAT      O 9047   7.019   4.698   1.806
 2082WAT     H1 9048   6.942   4.671   1.776
 2082WAT     H2 9049   7.007   4.783   1.822
 2082WAT    EPW 9050   7.006   4.707   1.804
 2083WAT      O 9051   6.544   3.650   1.734
 2083WAT     H1 9052   6.505   3.580   1.701
 2083WAT     H2 9053   6.506   3.717   1.692
 2083WAT    EPW 9054   6.533   3.650   1.723
 2084WAT      O 9055   7.481   4.097   1.353
 2084WAT     H1 9056   7.447   4.031   1.307
 2084WAT     H2 9057   7.468   4.167   1.301
 2084WAT    EPW 9058   7.474   4.098   1.338
 2085WAT      O 9059   6.434   4.630   1.731
 2085WAT     H1 9060   6.417   4.632   1.817
 2085WAT     H2 9061   6.488   4.562   1.723
 2085WAT    EPW 9062   6.439   4.620   1.743
 2086WAT      O 9063   7.397   4.536   1.244
 2086WAT     H1 9064   7.462   4.551   1.188
 2086WAT     H2 9065   7.367   4.458   1.220
 2086WAT    EPW 9066   7.402   4.527   1.232
 2087WAT      O 9067   6.129   3.142   1.473
 2087WAT     H1 9068   6.075   3.077   1.453
 2087WAT     H2 9069   6.079   3.213   1.465
 2087WAT    EPW 9070   6.113   3.143   1.469
 2088WAT      O 9071   6.979   3.070   1.080
 2088WAT     H1 9072   7.042   3.123   1.107
 2088WAT     H2 9073   6.951   3.106   1.006
 2088WAT    EPW 9074   6.984   3.083   1.073
 2089WAT      O 9075   6.140   4.513   1.860
 2089WAT     H1 9076   6.210   4.546   1.901
 2089WAT     H2 9077   6.101   4.583   1.826
 2089WAT    EPW 9078   6.144   4.528   1.861
 2090WAT      O 9079   6.969   3.603   0.892
 2090WAT     H1 9080   7.017   3.531   0.901
 2090WAT     H2 9081   6.936   3.617   0.971
 2090WAT    EPW 9082   6.971   3.594   0.905
 2091WAT      O 9083   5.994   3.466   0.823
 2091WAT     H1 9084   5.951   3.490   0.895
 2091WAT     H2 9085   6.036   3.394   0.848
 2091WAT    EPW 9086   5.994   3.459   0.837
 2092WAT      O 9087   5.985   4.297   1.581
 2092WAT     H1 9088   5.935   4.361   1.613
 2092WAT     H2 9089   6.065   4.329   1.584
 2092WAT    EPW 9090   5.989   4.311   1.586
 2093WAT      O 9091   7.176   3.773   0.542
 2093WAT     H1 9092   7.188   3.688   0.555
 2093WAT     H2 9093   7.097   3.777   0.504
 2093WAT    EPW 9094   7.166   3.761   0.538
 2094WAT      O 9095   6.148   4.624   0.485
 2094WAT     H1 9096   6.107   4.599   0.412
 2094WAT     H2 9097   6.231   4.628   0.461
 2094WAT    EPW 9098   6.154   4.621   0.471
 2095WAT      O 9099   6.468   3.803   0.460
 2095WAT     H1 9100   6.466   3.863   0.396
 2095WAT     H2 9101   6.552   3.800   0.483
 2095WAT    EPW 9102   6.480   3.811   0.454
 2096WAT      O 9103   7.447   4.672   0.277
 2096WAT     H1 9104   7.477   4.608   0.329
 2096WAT     H2 9105   7.444   4.635   0.198
 2096WAT    EPW 9106   7.451   4.657   0.273
 2097WAT      O 9107   7.513   3.802   1.827
 2097WAT     H1 9108   7.587   3.772   1.793
 2097WAT     H2 9109   7.494   3.871   1.777
 2097WAT    EPW 9110   7.521   3.808   1.815
 2098WAT      O 9111   7.079   4.249   0.439
 2098WAT     H1 9112   7.112   4.256   0.520
 2098WAT     H2 9113   6.993   4.242   0.454
 2098WAT    EPW 9114   7.071   4.249   0.453
 2099WAT      O 9115   7.494   3.356   2.105
 2099WAT     H1 9116   7.507   3.440   2.090
 2099WAT     H2 9117   7.447   3.330   2.036
 2099WAT    EPW 9118   7.489   3.364   2.092
 2100WAT      O 9119   7.490   3.490   1.388
 2100WAT     H1 9120   7.426   3.480   1.329
 2100WAT     H2 9121   7.561   3.462   1.346
 2100WAT    EPW 9122   7.491   3.485   1.373
 2101WAT      O 9123   6.459   3.171   1.742
 2101WAT     H1 9124   6.494   3.133   1.671
 2101WAT     H2 9125   6.379   3.138   1.745
 2101WAT    EPW 9126   6.453   3.160   1.732
 2102WAT      O 9127   7.248   3.973   2.052
 2102WAT     H1 9128   7.327   3.994   2.082
 2102WAT     H2 9129   7.252   3.995   1.967
 2102WAT    EPW 9130   7.260   3.979   2.044
 2103WAT      O 9131   6.185   4.522   1.122
 2103WAT     H1 9132   6.174   4.444   1.086
 2103WAT     H2 9133   6.146   4.576   1.066
 2103WAT    EPW 9134   6.178   4.519   1.109
 2104WAT      O 9135   6.804   4.189   0.359
 2104WAT     H1 9136   6.850   4.135   0.309
 2104WAT     H2 9137   6.787   4.256   0.306
 2104WAT    EPW 9138   6.809   4.191   0.344
 2105WAT      O 9139   5.954   4.774   1.464
 2105WAT     H1 9140   5.968   4.756   1.548
 2105WAT     H2 9141   5.983   4.703   1.422
 2105WAT    EPW 9142   5.960   4.761   1.470
 2106WAT      O 9143   6.906   1.150   6.376
 2106WAT     H1 9144   6.898   1.191   6.299
 2106WAT     H2 9145   6.992   1.142   6.387
 2106WAT    EPW 9146   6.917   1.155   6.366
 2107WAT      O 9147   6.877   1.769   6.840
 2107WAT     H1 9148   6.847   1.848   6.864
 2107WAT     H2 9149   6.932   1.748   6.905
 2107WAT    EPW 9150   6.881   1.778   6.854
 2108WAT      O 9151   5.851   2.249   6.351
 2108WAT     H1 9152   5.802   2.248   6.424
 2108WAT     H2 9153   5.849   2.165   6.325
 2108WAT    EPW 9154   5.843   2.236   6.358
 2109WAT      O 9155   7.470   2.669   6.122
 2109WAT     H1 9156   7.546   2.659   6.164
 2109WAT     H2 9157   7.455   2.590   6.087
 2109WAT    EPW 9158   7.479   2.656   6.123
 2110WAT      O 9159   5.847   1.593   6.012
 2110WAT     H1 9160   5.782   1.639   5.978
 2110WAT     H2 9161   5.817   1.511   6.009
 2110WAT    EPW 9162   5.833   1.588   6.006
 2111WAT      O 9163   6.180   2.181   5.922
 2111WAT     H1 9164   6.142   2.140   5.854
 2111WAT     H2 9165   6.177   2.121   5.986
 2111WAT    EPW 9166   6.174   2.166   5.921
 2112WAT      O 9167   7.126   1.960   6.500
 2112WAT     H1 9168   7.135   1.951   6.414
 2112WAT     H2 9169   7.070   1.897   6.522
 2112WAT    EPW 9170   7.119   1.950   6.491
 2113WAT      O 9171   6.102   2.362   6.315
 2113WAT     H1 9172   6.156   2.323   6.371
 2113WAT     H2 9173   6.026   2.322   6.329
 2113WAT    EPW 9174   6.099   2.350   6.325
 2114WAT      O 9175   6.552   1.248   6.246
 2114WAT     H1 9176   6.552   1.320   6.197
 2114WAT     H2 9177   6.629   1.211   6.229
 2114WAT    EPW 9178   6.563   1.253   6.236
 2115WAT      O 9179   5.992   2.639   5.919
 2115WAT     H1 9180   6.038   2.647   5.845
 2115WAT     H2 9181   6.027   2.569   5.957
 2115WAT    EPW 9182   6.004   2.630   5.914
 2116WAT      O 9183   5.900   2.460   7.045
 2116WAT     H1 9184   5.926   2.437   7.125
 2116WAT     H2 9185   5.829   2.411   7.032
 2116WAT    EPW 9186   5.893   2.449   7.055
 2117WAT      O 9187   6.553   2.307   7.473
 2117WAT     H1 9188   6.561   2.260   7.546
 2117WAT     H2 9189   6.476   2.280   7.441
 2117WAT    EPW 9190   6.543   2.296   7.479
 2118WAT      O 9191   6.049   1.998   6.491
 2118WAT     H1 9192   6.000   1.999   6.419
 2118WAT     H2 9193   6.103   1.931   6.478
 2118WAT    EPW 9194   6.050   1.988   6.478
 2119WAT      O 9195   6.481   1.582   7.035
 2119WAT     H1 9196   6.549   1.588   6.981
 2119WAT     H2 9197   6.457   1.499   7.028
 2119WAT    EPW 9198   6.488   1.571   7.026
 2120WAT      O 9199   6.501   2.547   7.229
 2120WAT     H1 9200   6.477   2.622   7.192
 2120WAT     H2 9201   6.587   2.557   7.243
 2120WAT    EPW 9202   6.510   2.559   7.226
 2121WAT      O 9203   6.219   1.780   6.474
 2121WAT     H1 9204   6.286   1.729   6.497
 2121WAT     H2 9205   6.150   1.727   6.476
 2121WAT    EPW 9206   6.219   1.765   6.477
 2122WAT      O 9207   6.623   2.425   6.655
 2122WAT     H1 9208   6.647   2.343   6.669
 2122WAT     H2 9209   6.699   2.468   6.649
 2122WAT    EPW 9210   6.638   2.419   6.656
 2123WAT      O 9211   6.677   2.332   6.271
 2123WAT     H1 9212   6.709   2.267   6.319
 2123WAT     H2 9213   6.703   2.312   6.190
 2123WAT    EPW 9214   6.686   2.319   6.266
 2124WAT      O 9215   6.854   1.749   7.445
 2124WAT     H1 9216   6.772   1.758   7.418
 2124WAT     H2 9217   6.859   1.804   7.513
 2124WAT    EPW 9218   6.843   1.759   7.451
 2125WAT      O 9219   6.289   1.289   6.352
 2125WAT     H1 9220   6.251   1.348   6.300
 2125WAT     H2 9221   6.371   1.286   6.323
 2125WAT    EPW 9222   6.296   1.297   6.340
 2126WAT      O 9223   7.288   1.064   7.321
 2126WAT     H1 9224   7.271   1.138   7.278
 2126WAT     H2 9225   7.211   1.044   7.357
 2126WAT    EPW 9226   7.274   1.072   7.320
 2127WAT      O 9227   6.596   1.213   6.524
 2127WAT     H1 9228   6.605   1.297   6.546
 2127WAT     H2 9229   6.572   1.216   6.440
 2127WAT    EPW 9230   6.594   1.226   6.515
 2128WAT      O 9231   7.047   1.468   5.784
 2128WAT     H1 9232   6.999   1.532   5.819
 2128WAT     H2 9233   7.052   1.409   5.848
 2128WAT    EPW 9234   7.041   1.469   5.799
 2129WAT      O 9235   5.870   1.741   6.739
 2129WAT     H1 9236   5.871   1.828   6.750
 2129WAT     H2 9237   5.802   1.715   6.788
 2129WAT    EPW 9238   5.860   1.750   6.748
 2130WAT      O 9239   5.855   2.696   6.573
 2130WAT     H1 9240   5.791   2.744   6.539
 2130WAT     H2 9241   5.895   2.663   6.502
 2130WAT    EPW 9242   5.852   2.699   6.557
 2131WAT      O 9243   6.443   2.474   6.262
 2131WAT     H1 9244   6.412   2.473   6.343
 2131WAT     H2 9245   6.521   2.436   6.269
 2131WAT    EPW 9246   6.450   2.469   6.275
 2132WAT      O 9247   7.039   2.715   6.067
 2132WAT     H1 9248   7.103   2.775   6.069
 2132WAT     H2 9249   7.081   2.639   6.078
 2132WAT    EPW 9250   7.055   2.713   6.069
 2133WAT      O 9251   6.840   2.754   6.251
 2133WAT     H1 9252   6.862   2.828   6.291
 2133WAT     H2 9253   6.905   2.741   6.194
 2133WAT    EPW 9254   6.853   2.763   6.249
 2134WAT      O 9255   6.169   1.246   6.785
 2134WAT     H1 9256   6.118   1.181   6.755
 2134WAT     H2 9257   6.229   1.205   6.832
 2134WAT    EPW 9258   6.170   1.231   6.787
 2135WAT      O 9259   5.988   2.613   6.339
 2135WAT     H1 9260   6.037   2.542   6.348
 2135WAT     H2 9261   6.037   2.666   6.289
 2135WAT    EPW 9262   6.003   2.610   6.333
 2136WAT      O 9263   7.512   1.511   6.354
 2136WAT     H1 9264   7.473   1.556   6.418
 2136WAT     H2 9265   7.495   1.428   6.374
 2136WAT    EPW 9266   7.504   1.505   6.366
 2137WAT      O 9267   7.073   2.811   7.009
 2137WAT     H1 9268   7.134   2.870   6.988
 2137WAT     H2 9269   7.069   2.759   6.939
 2137WAT    EPW 9270   7.082   2.812   6.996
 2138WAT      O 9271   6.042   1.436   7.557
 2138WAT     H1 9272   5.973   1.383   7.552
 2138WAT     H2 9273   6.106   1.390   7.518
 2138WAT    EPW 9274   6.042   1.421   7.550
 2139WAT      O 9275   6.136   2.418   6.689
 2139WAT     H1 9276   6.195   2.407   6.625
 2139WAT     H2 9277   6.164   2.366   6.753
 2139WAT    EPW 9278   6.149   2.409   6.689
 2140WAT      O 9279   6.417   2.749   6.592
 2140WAT     H1 9280   6.498   2.766   6.565
 2140WAT     H2 9281   6.367   2.798   6.539
 2140WAT    EPW 9282   6.421   2.759   6.581
 2141WAT      O 9283   6.671   1.204   7.561
 2141WAT     H1 9284   6.686   1.130   7.518
 2141WAT     H2 9285   6.611   1.245   7.511
 2141WAT    EPW 9286   6.664   1.199   7.547
 2142WAT      O 9287   6.763   1.677   6.412
 2142WAT     H1 9288   6.794   1.636   6.342
 2142WAT     H2 9289   6.835   1.693   6.459
 2142WAT    EPW 9290   6.778   1.674   6.409
 2143WAT      O 9291   6.865   1.649   5.915
 2143WAT     H1 9292   6.889   1.729   5.941
 2143WAT     H2 9293   6.791   1.663   5.871
 2143WAT    EPW 9294   6.858   1.663   5.912
 2144WAT      O 9295   7.229   2.922   6.039
 2144WAT     H1 9296   7.276   2.886   5.974
 2144WAT     H2 9297   7.285   2.980   6.074
 2144WAT    EPW 9298   7.244   2.925   6.034
 2145WAT      O 9299   6.338   2.766   7.154
 2145WAT     H1 9300   6.344   2.791   7.237
 2145WAT     H2 9301   6.257   2.734   7.148
 2145WAT    EPW 9302   6.327   2.765   7.165
 2146WAT      O 9303   5.758   1.425   7.282
 2146WAT     H1 9304   5.754   1.487   7.343
 2146WAT     H2 9305   5.823   1.451   7.230
 2146WAT    EPW 9306   5.767   1.438   7.283
 2147WAT      O 9307   7.002   2.568   7.439
 2147WAT     H1 9308   7.018   2.652   7.459
 2147WAT     H2 9309   7.082   2.532   7.438
 2147WAT    EPW 9310   7.017   2.575   7.442
 2148WAT      O 9311   6.727   2.536   5.871
 2148WAT     H1 9312   6.695   2.596   5.925
 2148WAT     H2 9313   6.805   2.568   5.849
 2148WAT    EPW 9314   6.734   2.549   5.876
 2149WAT      O 9315   7.060   1.289   5.995
 2149WAT     H1 9316   7.114   1.220   5.997
 2149WAT     H2 9317   7.081   1.334   6.067
 2149WAT    EPW 9318   7.071   1.285   6.006
 2150WAT      O 9319   5.905   1.382   6.273
 2150WAT     H1 9320   5.881   1.300   6.256
 2150WAT     H2 9321   5.855   1.404   6.341
 2150WAT    EPW 9322   5.894   1.373   6.280
 2151WAT      O 9323   6.078   2.680   7.054
 2151WAT     H1 9324   6.023   2.613   7.056
 2151WAT     H2 9325   6.115   2.675   6.975
 2151WAT    EPW 9326   6.076   2.670   7.043
 2152WAT      O 9327   6.830   1.547   6.172
 2152WAT     H1 9328   6.760   1.498   6.155
 2152WAT     H2 9329   6.849   1.583   6.095
 2152WAT    EPW 9330   6.822   1.545   6.158
 2153WAT      O 9331   6.843   2.796   7.153
 2153WAT     H1 9332   6.919   2.797   7.111
 2153WAT     H2 9333   6.784   2.796   7.089
 2153WAT    EPW 9334   6.845   2.796   7.138
 2154WAT      O 9335   6.822   1.222   6.119
 2154WAT     H1 9336   6.766   1.204   6.055
 2154WAT     H2 9337   6.895   1.245   6.077
 2154WAT    EPW 9338   6.824   1.223   6.103
 2155WAT      O 9339   7.447   2.830   6.541
 2155WAT     H1 9340   7.457   2.906   6.498
 2155WAT     H2 9341   7.403   2.780   6.485
 2155WAT    EPW 9342   7.442   2.834   6.526
 2156WAT      O 9343   6.645   1.487   6.579
 2156WAT     H1 9344   6.674   1.551   6.528
 2156WAT     H2 9345   6.656   1.519   6.660
 2156WAT    EPW 9346   6.651   1.501   6.584
 2157WAT      O 9347   7.202   2.420   6.348
 2157WAT     H1 9348   7.272   2.369   6.357
 2157WAT     H2 9349   7.141   2.380   6.397
 2157WAT    EPW 9350   7.203   2.407   6.357
 2158WAT      O 9351   6.247   2.495   7.343
 2158WAT     H1 9352   6.324   2.520   7.310
 2158WAT     H2 9353   6.232   2.553   7.406
 2158WAT    EPW 9354   6.256   2.507   7.347
 2159WAT      O 9355   6.233   1.030   6.436
 2159WAT     H1 9356   6.250   1.112   6.413
 2159WAT     H2 9357   6.206   0.993   6.361
 2159WAT    EPW 9358   6.231   1.036   6.421
 2160WAT      O 9359   6.435   2.094   6.771
 2160WAT     H1 9360   6.460   2.075   6.852
 2160WAT     H2 9361   6.378   2.031   6.752
 2160WAT    EPW 9362   6.431   2.082   6.780
 2161WAT      O 9363   7.016   1.440   7.171
 2161WAT     H1 9364   7.014   1.464   7.255
 2161WAT     H2 9365   6.953   1.380   7.166
 2161WAT    EPW 9366   7.006   1.434   7.183
 2162WAT      O 9367   6.543   2.097   7.025
 2162WAT     H1 9368   6.526   2.183   7.031
 2162WAT     H2 9369   6.510   2.064   7.098
 2162WAT    EPW 9370   6.536   2.105   7.037
 2163WAT      O 9371   7.133   2.237   7.009
 2163WAT     H1 9372   7.078   2.186   7.054
 2163WAT     H2 9373   7.116   2.317   7.039
 2163WAT    EPW 9374   7.122   2.241   7.020
 2164WAT      O 9375   7.171   1.099   6.436
 2164WAT     H1 9376   7.168   1.076   6.520
 2164WAT     H2 9377   7.213   1.032   6.398
 2164WAT    EPW 9378   7.177   1.085   6.443
 2165WAT      O 9379   7.390   1.531   7.290
 2165WAT     H1 9380   7.441   1.509   7.358
 2165WAT     H2 9381   7.344   1.598   7.320
 2165WAT    EPW 9382   7.391   1.537   7.305
 2166WAT      O 9383   6.171   1.421   6.573
 2166WAT     H1 9384   6.199   1.368   6.510
 2166WAT     H2 9385   6.167   1.369   6.643
 2166WAT    EPW 9386   6.175   1.405   6.574
 2167WAT      O 9387   7.484   2.169   5.998
 2167WAT     H1 9388   7.464   2.122   6.069
 2167WAT     H2 9389   7.562   2.138   5.974
 2167WAT    EPW 9390   7.492   2.157   6.005
 2168WAT      O 9391   6.238   2.202   6.494
 2168WAT     H1 9392   6.293   2.168   6.436
 2168WAT     H2 9393   6.178   2.140   6.504
 2168WAT    EPW 9394   6.237   2.188   6.487
 2169WAT      O 9395   6.067   2.854   6.652
 2169WAT     H1 9396   5.993   2.815   6.628
 2169WAT     H2 9397   6.111   2.863   6.577
 2169WAT    EPW 9398   6.063   2.849   6.638
 2170WAT      O 9399   6.028   1.550   6.860
 2170WAT     H1 9400   6.112   1.574   6.856
 2170WAT     H2 9401   5.986   1.618   6.825
 2170WAT    EPW 9402   6.035   1.564   6.854
 2171WAT      O 9403   7.249   1.867   5.947
 2171WAT     H1 9404   7.246   1.948   5.916
 2171WAT     H2 9405   7.218   1.875   6.028
 2171WAT    EPW 9406   7.244   1.880   5.955
 2172WAT      O 9407   6.377   2.135   6.259
 2172WAT     H1 9408   6.409   2.214   6.242
 2172WAT     H2 9409   6.437   2.081   6.225
 2172WAT    EPW 9410   6.391   2.139   6.251
 2173WAT      O 9411   5.877   2.307   6.663
 2173WAT     H1 9412   5.827   2.370   6.698
 2173WAT     H2 9413   5.956   2.343   6.661
 2173WAT    EPW 9414   5.881   2.322   6.668
 2174WAT      O 9415   5.907   1.991   6.254
 2174WAT     H1 9416   5.891   1.906   6.255
 2174WAT     H2 9417   5.980   1.998   6.207
 2174WAT    EPW 9418   5.916   1.980   6.247
 2175WAT      O 9419   7.425   1.272   6.114
 2175WAT     H1 9420   7.491   1.264   6.058
 2175WAT     H2 9421   7.404   1.356   6.110
 2175WAT    EPW 9422   7.431   1.283   6.105
 2176WAT      O 9423   6.850   2.585   6.630
 2176WAT     H1 9424   6.804   2.656   6.610
 2176WAT     H2 9425   6.871   2.552   6.553
 2176WAT    EPW 9426   6.846   2.591   6.616
 2177WAT      O 9427   5.820   2.460   6.180
 2177WAT     H1 9428   5.873   2.515   6.222
 2177WAT     H2 9429   5.814   2.392   6.234
 2177WAT    EPW 9430   5.827   2.458   6.194
 2178WAT      O 9431   6.247   2.259   6.887
 2178WAT     H1 9432   6.301   2.300   6.942
 2178WAT     H2 9433   6.300   2.212   6.837
 2178WAT    EPW 9434   6.263   2.258   6.888
 2179WAT      O 9435   7.118   1.503   6.609
 2179WAT     H1 9436   7.150   1.463   6.680
 2179WAT     H2 9437   7.054   1.450   6.583
 2179WAT    EPW 9438   7.114   1.489   6.616
 2180WAT      O 9439   5.832   2.302   5.946
 2180WAT     H1 9440   5.907   2.257   5.943
 2180WAT     H2 9441   5.842   2.354   6.015
 2180WAT    EPW 9442   5.845   2.303   5.956
 2181WAT      O 9443   5.903   2.038   6.723
 2181WAT     H1 9444   5.953   2.018   6.655
 2181WAT     H2 9445   5.892   2.124   6.715
 2181WAT    EPW 9446   5.908   2.048   6.712
 2182WAT      O 9447   6.573   1.460   6.074
 2182WAT     H1 9448   6.565   1.435   5.991
 2182WAT     H2 9449   6.539   1.541   6.074
 2182WAT    EPW 9450   6.567   1.468   6.061
 2183WAT      O 9451   7.283   2.643   7.193
 2183WAT     H1 9452   7.272   2.723   7.225
 2183WAT     H2 9453   7.329   2.657   7.120
 2183WAT    EPW 9454   7.288   2.657   7.187
 2184WAT      O 9455   6.375   2.486   6.528
 2184WAT     H1 9456   6.380   2.570   6.550
 2184WAT     H2 9457   6.446   2.451   6.565
 2184WAT    EPW 9458   6.386   2.493   6.537
 2185WAT      O 9459   6.002   1.708   7.485
 2185WAT     H1 9460   6.020   1.631   7.521
 2185WAT     H2 9461   6.048   1.708   7.411
 2185WAT    EPW 9462   6.011   1.697   7.480
 2186WAT      O 9463   6.185   1.726   6.073
 2186WAT     H1 9464   6.169   1.660   6.128
 2186WAT     H2 9465   6.147   1.700   5.999
 2186WAT    EPW 9466   6.177   1.712   6.071
 2187WAT      O 9467   6.245   1.902   6.727
 2187WAT     H1 9468   6.237   1.874   6.645
 2187WAT     H2 9469   6.257   1.828   6.772
 2187WAT    EPW 9470   6.246   1.887   6.721
 2188WAT      O 9471   6.234   1.872   7.072
 2188WAT     H1 9472   6.257   1.820   7.006
 2188WAT     H2 9473   6.178   1.929   7.036
 2188WAT    EPW 9474   6.229   1.873   7.057
 2189WAT      O 9475   7.279   1.642   6.899
 2189WAT     H1 9476   7.208   1.663   6.946
 2189WAT     H2 9477   7.282   1.705   6.838
 2189WAT    EPW 9478   7.269   1.654   6.897
 2190WAT      O 9479   6.633   2.793   6.978
 2190WAT     H1 9480   6.595   2.723   6.944
 2190WAT     H2 9481   6.627   2.853   6.915
 2190WAT    EPW 9482   6.627   2.791   6.964
 2191WAT      O 9483   6.845   1.222   7.225
 2191WAT     H1 9484   6.863   1.139   7.202
 2191WAT     H2 9485   6.868   1.226   7.308
 2191WAT    EPW 9486   6.851   1.210   7.234
 2192WAT      O 9487   7.079   1.431   6.228
 2192WAT     H1 9488   7.131   1.499   6.242
 2192WAT     H2 9489   7.000   1.468   6.219
 2192WAT    EPW 9490   7.075   1.447   6.229
 2193WAT      O 9491   5.920   1.969   7.576
 2193WAT     H1 9492   5.966   2.026   7.529
 2193WAT     H2 9493   5.952   1.892   7.551
 2193WAT    EPW 9494   5.931   1.966   7.565
 2194WAT      O 9495   7.218   2.214   7.435
 2194WAT     H1 9496   7.232   2.300   7.436
 2194WAT     H2 9497   7.273   2.185   7.374
 2194WAT    EPW 9498   7.228   2.223   7.426
 2195WAT      O 9499   6.588   2.596   7.525
 2195WAT     H1 9500   6.602   2.585   7.610
 2195WAT     H2 9501   6.576   2.514   7.496
 2195WAT    EPW 9502   6.588   2.582   7.533
 2196WAT      O 9503   6.679   1.575   6.838
 2196WAT     H1 9504   6.742   1.635   6.844
 2196WAT     H2 9505   6.716   1.503   6.871
 2196WAT    EPW 9506   6.694   1.573   6.844
 2197WAT      O 9507   6.934   1.892   6.042
 2197WAT     H1 9508   6.910   1.944   5.977
 2197WAT     H2 9509   6.874   1.907   6.104
 2197WAT    EPW 9510   6.922   1.902   6.042
 2198WAT      O 9511   7.423   2.251   6.367
 2198WAT     H1 9512   7.462   2.236   6.443
 2198WAT     H2 9513   7.427   2.174   6.326
 2198WAT    EPW 9514   7.429   2.237   6.372
 2199WAT      O 9515   7.075   2.621   6.797
 2199WAT     H1 9516   7.004   2.598   6.752
 2199WAT     H2 9517   7.106   2.688   6.752
 2199WAT    EPW 9518   7.069   2.627   6.784
 2200WAT      O 9519   6.991   2.289   6.773
 2200WAT     H1 9520   6.921   2.326   6.809
 2200WAT     H2 9521   7.035   2.257   6.841
 2200WAT    EPW 9522   6.987   2.290   6.788
 2201WAT      O 9523   6.426   2.746   6.194
 2201WAT     H1 9524   6.432   2.668   6.232
 2201WAT     H2 9525   6.496   2.749   6.141
 2201WAT    EPW 9526   6.437   2.735   6.192
 2202WAT      O 9527   6.369   1.125   6.009
 2202WAT     H1 9528   6.386   1.127   6.094
 2202WAT     H2 9529   6.325   1.199   5.995
 2202WAT    EPW 9530   6.365   1.136   6.020
 2203WAT      O 9531   6.655   2.742   6.042
 2203WAT     H1 9532   6.715   2.750   6.106
 2203WAT     H2 9533   6.660   2.818   6.001
 2203WAT    EPW 9534   6.665   2.754   6.046
 2204WAT      O 9535   7.423   2.126   7.263
 2204WAT     H1 9536   7.408   2.053   7.217
 2204WAT     H2 9537   7.449   2.183   7.201
 2204WAT    EPW 9538   7.425   2.124   7.247
 2205WAT      O 9539   7.354   1.220   7.548
 2205WAT     H1 9540   7.340   1.165   7.482
 2205WAT     H2 9541   7.431   1.256   7.529
 2205WAT    EPW 9542   7.363   1.217   7.535
 2206WAT      O 9543   6.157   2.003   6.134
 2206WAT     H1 9544   6.175   1.918   6.124
 2206WAT     H2 9545   6.223   2.033   6.183
 2206WAT    EPW 9546   6.170   1.995   6.140
 2207WAT      O 9547   6.943   2.089   7.144
 2207WAT     H1 9548   6.889   2.132   7.197
 2207WAT     H2 9549   6.969   2.021   7.192
 2207WAT    EPW 9550   6.939   2.085   7.159
 2208WAT      O 9551   5.814   1.114   6.222
 2208WAT     H1 9552   5.813   1.058   6.155
 2208WAT     H2 9553   5.781   1.068   6.288
 2208WAT    EPW 9554   5.809   1.099   6.222
 2209WAT      O 9555   6.777   1.919   6.270
 2209WAT     H1 9556   6.787   1.985   6.326
 2209WAT     H2 9557   6.765   1.850   6.322
 2209WAT    EPW 9558   6.776   1.919   6.286
 2210WAT      O 9559   7.296   2.438   6.856
 2210WAT     H1 9560   7.232   2.473   6.808
 2210WAT     H2 9561   7.258   2.370   6.895
 2210WAT    EPW 9562   7.281   2.433   6.855
 2211WAT      O 9563   6.244   1.364   5.946
 2211WAT     H1 9564   6.182   1.359   5.885
 2211WAT     H2 9565   6.311   1.401   5.905
 2211WAT    EPW 9566   6.245   1.369   5.931
 2212WAT      O 9567   6.690   2.155   6.685
 2212WAT     H1 9568   6.609   2.130   6.703
 2212WAT     H2 9569   6.736   2.123   6.752
 2212WAT    EPW 9570   6.685   2.146   6.698
 2213WAT      O 9571   6.347   2.750   5.828
 2213WAT     H1 9572   6.372   2.682   5.875
 2213WAT     H2 9573   6.355   2.818   5.883
 2213WAT    EPW 9574   6.352   2.750   5.843
 2214WAT      O 9575   6.061   2.061   6.959
 2214WAT     H1 9576   6.113   2.129   6.941
 2214WAT     H2 9577   6.019   2.047   6.884
 2214WAT    EPW 9578   6.062   2.069   6.945
 2215WAT      O 9579   6.381   1.593   6.607
 2215WAT     H1 9580   6.458   1.554   6.594
 2215WAT     H2 9581   6.323   1.530   6.595
 2215WAT    EPW 9582   6.384   1.578   6.603
 2216WAT      O 9583   5.868   1.716   6.268
 2216WAT     H1 9584   5.903   1.676   6.337
 2216WAT     H2 9585   5.880   1.658   6.203
 2216WAT    EPW 9586   5.875   1.701   6.269
 2217WAT      O 9587   7.324   2.047   6.919
 2217WAT     H1 9588   7.334   1.991   6.985
 2217WAT     H2 9589   7.259   2.099   6.945
 2217WAT    EPW 9590   7.316   2.046   6.933
 2218WAT      O 9591   6.386   1.881   5.816
 2218WAT     H1 9592   6.362   1.834   5.886
 2218WAT     H2 9593   6.327   1.860   5.756
 2218WAT    EPW 9594   6.374   1.871   5.818
 2219WAT      O 9595   6.031   2.159   7.398
 2219WAT     H1 9596   5.998   2.114   7.331
 2219WAT     H2 9597   6.002   2.240   7.384
 2219WAT    EPW 9598   6.022   2.164   7.386
 2220WAT      O 9599   6.457   1.711   6.044
 2220WAT     H1 9600   6.486   1.785   6.082
 2220WAT     H2 9601   6.373   1.708   6.066
 2220WAT    EPW 9602   6.449   1.722   6.052
 2221WAT      O 9603   7.233   1.463   7.612
 2221WAT     H1 9604   7.205   1.461   7.695
 2221WAT     H2 9605   7.250   1.379   7.594
 2221WAT    EPW 9606   7.231   1.450   7.622
 2222WAT      O 9607   5.852   1.347   6.736
 2222WAT     H1 9608   5.831   1.381   6.658
 2222WAT     H2 9609   5.920   1.395   6.761
 2222WAT    EPW 9610   5.859   1.359   6.728
 2223WAT      O 9611   7.149   1.818   7.636
 2223WAT     H1 9612   7.196   1.890   7.653
 2223WAT     H2 9613   7.067   1.844   7.649
 2223WAT    EPW 9614   7.144   1.833   7.640
 2224WAT      O 9615   7.288   1.781   7.399
 2224WAT     H1 9616   7.359   1.826   7.421
 2224WAT     H2 9617   7.243   1.776   7.474
 2224WAT    EPW 9618   7.292   1.787   7.413
 2225WAT      O 9619   7.401   2.437   5.986
 2225WAT     H1 9620   7.428   2.355   6.000
 2225WAT     H2 9621   7.318   2.436   6.013
 2225WAT    EPW 9622   7.393   2.425   5.992
 2226WAT      O 9623   7.337   1.650   6.525
 2226WAT     H1 9624   7.275   1.597   6.557
 2226WAT     H2 9625   7.340   1.715   6.582
 2226WAT    EPW 9626   7.328   1.652   6.538
 2227WAT      O 9627   7.015   2.255   5.920
 2227WAT     H1 9628   7.089   2.208   5.914
 2227WAT     H2 9629   6.987   2.258   5.837
 2227WAT    EPW 9630   7.022   2.248   5.907
 2228WAT      O 9631   6.477   2.370   7.021
 2228WAT     H1 9632   6.478   2.416   7.095
 2228WAT     H2 9633   6.483   2.431   6.958
 2228WAT    EPW 9634   6.478   2.385   7.022
 2229WAT      O 9635   6.301   2.223   7.371
 2229WAT     H1 9636   6.223   2.190   7.390
 2229WAT     H2 9637   6.284   2.307   7.354
 2229WAT    EPW 9638   6.287   2.231   7.371
 2230WAT      O 9639   7.260   1.305   7.179
 2230WAT     H1 9640   7.308   1.370   7.212
 2230WAT     H2 9641   7.181   1.340   7.170
 2230WAT    EPW 9642   7.256   1.319   7.183
 2231WAT      O 9643   6.788   2.021   6.921
 2231WAT     H1 9644   6.844   2.046   6.984
 2231WAT     H2 9645   6.710   2.037   6.956
 2231WAT    EPW 9646   6.785   2.027   6.935
 2232WAT      O 9647   6.424   1.580   7.308
 2232WAT     H1 9648   6.446   1.501   7.337
 2232WAT     H2 9649   6.451   1.580   7.225
 2232WAT    EPW 9650   6.432   1.568   7.300
 2233WAT      O 9651   6.685   2.787   6.513
 2233WAT     H1 9652   6.689   2.874   6.519
 2233WAT     H2 9653   6.711   2.772   6.431
 2233WAT    EPW 9654   6.689   2.798   6.502
 2234WAT      O 9655   7.301   1.131   6.963
 2234WAT     H1 9656   7.298   1.179   7.036
 2234WAT     H2 9657   7.366   1.074   6.979
 2234WAT    EPW 9658   7.310   1.129   6.976
 2235WAT      O 9659   6.572   1.170   7.163
 2235WAT     H1 9660   6.654   1.198   7.168
 2235WAT     H2 9661   6.579   1.093   7.123
 2235WAT    EPW 9662   6.585   1.163   7.158
 2236WAT      O 9663   6.500   2.584   6.845
 2236WAT     H1 9664   6.437   2.624   6.800
 2236WAT     H2 9665   6.544   2.540   6.784
 2236WAT    EPW 9666   6.497   2.583   6.830
 2237WAT      O 9667   6.949   2.155   7.498
 2237WAT     H1 9668   7.031   2.176   7.475
 2237WAT     H2 9669   6.900   2.196   7.439
 2237WAT    EPW 9670   6.954   2.164   7.486
 2238WAT      O 9671   7.272   2.487   7.423
 2238WAT     H1 9672   7.332   2.524   7.474
 2238WAT     H2 9673   7.284   2.528   7.346
 2238WAT    EPW 9674   7.283   2.499   7.419
 2239WAT      O 9675   7.509   1.800   5.879
 2239WAT     H1 9676   7.518   1.848   5.808
 2239WAT     H2 9677   7.426   1.815   5.904
 2239WAT    EPW 9678   7.498   1.809   5.872
 2240WAT      O 9679   6.611   2.034   5.871
 2240WAT     H1 9680   6.541   1.993   5.840
 2240WAT     H2 9681   6.587   2.118   5.873
 2240WAT    EPW 9682   6.597   2.041   5.867
 2241WAT      O 9683   6.290   1.664   6.860
 2241WAT     H1 9684   6.324   1.638   6.784
 2241WAT     H2 9685   6.348   1.637   6.919
 2241WAT    EPW 9686   6.303   1.656   6.857
 2242WAT      O 9687   7.012   1.514   7.439
 2242WAT     H1 9688   6.965   1.586   7.455
 2242WAT     H2 9689   7.080   1.522   7.494
 2242WAT    EPW 9690   7.015   1.526   7.450
 2243WAT      O 9691   7.047   1.688   7.046
 2243WAT     H1 9692   7.044   1.741   7.115
 2243WAT     H2 9693   7.030   1.609   7.080
 2243WAT    EPW 9694   7.044   1.684   7.061
 2244WAT      O 9695   6.740   2.812   7.420
 2244WAT     H1 9696   6.755   2.799   7.335
 2244WAT     H2 9697   6.709   2.734   7.446
 2244WAT    EPW 9698   6.738   2.798   7.411
 2245WAT      O 9699   7.237   1.659   6.266
 2245WAT     H1 9700   7.261   1.656   6.350
 2245WAT     H2 9701   7.313   1.670   6.224
 2245WAT    EPW 9702   7.252   1.660   6.273
 2246WAT      O 9703   6.582   1.153   6.800
 2246WAT     H1 9704   6.500   1.137   6.824
 2246WAT     H2 9705   6.577   1.161   6.714
 2246WAT    EPW 9706   6.569   1.152   6.791
 2247WAT      O 9707   7.417   1.241   6.396
 2247WAT     H1 9708   7.334   1.219   6.412
 2247WAT     H2 9709   7.423   1.236   6.309
 2247WAT    EPW 9710   7.406   1.237   6.385
 2248WAT      O 9711   7.415   2.011   6.217
 2248WAT     H1 9712   7.454   1.933   6.215
 2248WAT     H2 9713   7.330   1.991   6.220
 2248WAT    EPW 9714   7.409   1.996   6.218
 2249WAT      O 9715   6.778   2.263   7.302
 2249WAT     H1 9716   6.703   2.264   7.347
 2249WAT     H2 9717   6.790   2.347   7.281
 2249WAT    EPW 9718   6.768   2.276   7.306
 2250WAT      O 9719   5.844   1.244   7.480
 2250WAT     H1 9720   5.814   1.297   7.417
 2250WAT     H2 9721   5.772   1.204   7.508
 2250WAT    EPW 9722   5.829   1.246   7.475
 2251WAT      O 9723   6.333   2.890   6.902
 2251WAT     H1 9724   6.341   2.859   6.983
 2251WAT     H2 9725   6.301   2.822   6.857
 2251WAT    EPW 9726   6.329   2.876   6.907
 2252WAT      O 9727   6.156   1.472   6.192
 2252WAT     H1 9728   6.170   1.436   6.113
 2252WAT     H2 9729   6.075   1.446   6.212
 2252WAT    EPW 9730   6.146   1.463   6.183
 2253WAT      O 9731   7.051   2.232   6.507
 2253WAT     H1 9732   7.033   2.254   6.589
 2253WAT     H2 9733   7.083   2.151   6.514
 2253WAT    EPW 9734   7.053   2.224   6.520
 2254WAT      O 9735   6.800   2.142   6.432
 2254WAT     H1 9736   6.761   2.141   6.510
 2254WAT     H2 9737   6.879   2.176   6.448
 2254WAT    EPW 9738   6.806   2.147   6.446
 2255WAT      O 9739   6.793   2.541   7.259
 2255WAT     H1 9740   6.854   2.542   7.321
 2255WAT     H2 9741   6.818   2.606   7.206
 2255WAT    EPW 9742   6.806   2.551   7.260
 2256WAT      O 9743   7.040   1.855   7.270
 2256WAT     H1 9744   6.977   1.823   7.322
 2256WAT     H2 9745   7.112   1.844   7.318
 2256WAT    EPW 9746   7.041   1.849   7.285
 2257WAT      O 9747   5.982   2.861   7.404
 2257WAT     H1 9748   5.923   2.797   7.396
 2257WAT     H2 9749   5.935   2.928   7.435
 2257WAT    EPW 9750   5.966   2.862   7.408
 2258WAT      O 9751   6.892   1.934   7.649
 2258WAT     H1 9752   6.910   2.006   7.604
 2258WAT     H2 9753   6.825   1.957   7.700
 2258WAT    EPW 9754   6.885   1.948   7.650
 2259WAT      O 9755   7.153   2.871   6.701
 2259WAT     H1 9756   7.097   2.928   6.736
 2259WAT     H2 9757   7.230   2.895   6.735
 2259WAT    EPW 9758   7.156   2.883   6.711
 2260WAT      O 9759   6.807   2.398   6.957
 2260WAT     H1 9760   6.734   2.381   7.002
 2260WAT     H2 9761   6.861   2.430   7.017
 2260WAT    EPW 9762   6.804   2.400   6.973
 2261WAT      O 9763   6.161   1.673   7.255
 2261WAT     H1 9764   6.181   1.742   7.204
 2261WAT     H2 9765   6.239   1.643   7.279
 2261WAT    EPW 9766   6.176   1.679   7.251
 2262WAT      O 9767   5.970   1.517   7.126
 2262WAT     H1 9768   5.986   1.527   7.041
 2262WAT     H2 9769   6.027   1.571   7.164
 2262WAT    EPW 9770   5.981   1.526   7.119
 2263WAT      O 9771   7.493   1.737   6.177
 2263WAT     H1 9772   7.525   1.726   6.096
 2263WAT     H2 9773   7.525   1.669   6.221
 2263WAT    EPW 9774   7.502   1.725   6.172
 2264WAT      O 9775   6.203   1.247   7.409
 2264WAT     H1 9776   6.161   1.171   7.423
 2264WAT     H2 9777   6.182   1.267   7.327
 2264WAT    EPW 9778   6.194   1.239   7.399
 2265WAT      O 9779   6.877   2.501   6.369
 2265WAT     H1 9780   6.866   2.577   6.326
 2265WAT     H2 9781   6.813   2.451   6.337
 2265WAT    EPW 9782   6.866   2.505   6.358
 2266WAT      O 9783   7.367   1.885   7.141
 2266WAT     H1 9784   7.422   1.822   7.115
 2266WAT     H2 9785   7.322   1.846   7.205
 2266WAT    EPW 9786   7.369   1.870   7.147
 2267WAT      O 9787   5.909   2.026   7.190
 2267WAT     H1 9788   5.951   2.041   7.114
 2267WAT     H2 9789   5.886   1.942   7.184
 2267WAT    EPW 9790   5.912   2.016   7.178
 2268WAT      O 9791   6.059   1.627   5.838
 2268WAT     H1 9792   5.987   1.623   5.886
 2268WAT     H2 9793   6.063   1.549   5.799
 2268WAT    EPW 9794   6.049   1.615   5.839
 2269WAT      O 9795   6.932   1.251   7.487
 2269WAT     H1 9796   6.953   1.336   7.483
 2269WAT     H2 9797   6.854   1.251   7.527
 2269WAT    EPW 9798   6.923   1.264   7.493
 2270WAT      O 9799   6.893   1.343   6.574
 2270WAT     H1 9800   6.815   1.382   6.574
 2270WAT     H2 9801   6.887   1.284   6.511
 2270WAT    EPW 9802   6.881   1.340   6.565
 2271WAT      O 9803   6.382   2.511   5.982
 2271WAT     H1 9804   6.416   2.508   6.063
 2271WAT     H2 9805   6.298   2.489   5.995
 2271WAT    EPW 9806   6.374   2.508   5.996
 2272WAT      O 9807   7.215   1.377   6.836
 2272WAT     H1 9808   7.268   1.316   6.869
 2272WAT     H2 9809   7.246   1.451   6.869
 2272WAT    EPW 9810   7.227   1.379   6.846
 2273WAT      O 9811   6.419   1.995   7.248
 2273WAT     H1 9812   6.378   2.062   7.285
 2273WAT     H2 9813   6.356   1.956   7.201
 2273WAT    EPW 9814   6.404   1.999   7.247
 2274WAT      O 9815   7.288   1.859   6.711
 2274WAT     H1 9816   7.306   1.922   6.769
 2274WAT     H2 9817   7.241   1.899   6.650
 2274WAT    EPW 9818   7.284   1.874   6.711
 2275WAT      O 9819   7.288   2.695   6.339
 2275WAT     H1 9820   7.257   2.614   6.350
 2275WAT     H2 9821   7.338   2.689   6.268
 2275WAT    EPW 9822   7.291   2.682   6.330
 2276WAT      O 9823   6.125   2.424   6.040
 2276WAT     H1 9824   6.122   2.405   6.125
 2276WAT     H2 9825   6.140   2.347   6.002
 2276WAT    EPW 9826   6.127   2.410   6.047
 2277WAT      O 9827   6.444   2.268   5.849
 2277WAT     H1 9828   6.366   2.233   5.865
 2277WAT     H2 9829   6.440   2.346   5.887
 2277WAT    EPW 9830   6.432   2.274   5.857
 2278WAT      O 9831   6.388   1.330   7.025
 2278WAT     H1 9832   6.309   1.311   7.058
 2278WAT     H2 9833   6.441   1.273   7.064
 2278WAT    EPW 9834   6.384   1.319   7.035
 2279WAT      O 9835   6.761   1.328   6.923
 2279WAT     H1 9836   6.699   1.276   6.891
 2279WAT     H2 9837   6.835   1.288   6.901
 2279WAT    EPW 9838   6.762   1.315   6.915
 2280WAT      O 9839   7.063   2.501   7.062
 2280WAT     H1 9840   7.117   2.550   7.110
 2280WAT     H2 9841   7.067   2.537   6.982
 2280WAT    EPW 9842   7.072   2.513   7.057
 2281WAT      O 9843   7.012   2.851   7.461
 2281WAT     H1 9844   6.927   2.834   7.451
 2281WAT     H2 9845   7.013   2.933   7.492
 2281WAT    EPW 9846   7.000   2.861   7.464
 2282WAT      O 9847   6.589   1.799   7.371
 2282WAT     H1 9848   6.538   1.730   7.361
 2282WAT     H2 9849   6.543   1.864   7.336
 2282WAT    EPW 9850   6.575   1.799   7.364
 2283WAT      O 9851   6.636   1.145   5.933
 2283WAT     H1 9852   6.646   1.157   5.847
 2283WAT     H2 9853   6.550   1.149   5.944
 2283WAT    EPW 9854   6.625   1.148   5.922
 2284WAT      O 9855   7.481   2.259   7.020
 2284WAT     H1 9856   7.450   2.192   6.973
 2284WAT     H2 9857   7.465   2.328   6.970
 2284WAT    EPW 9858   7.474   2.259   7.006
 2285WAT      O 9859   6.418   2.805   7.426
 2285WAT     H1 9860   6.465   2.878   7.437
 2285WAT     H2 9861   6.471   2.742   7.453
 2285WAT    EPW 9862   6.433   2.806   7.431
 2286WAT      O 9863   7.400   2.691   6.934
 2286WAT     H1 9864   7.466   2.705   6.879
 2286WAT     H2 9865   7.367   2.615   6.908
 2286WAT    EPW 9866   7.405   2.682   6.922
 2287WAT      O 9867   6.137   1.294   7.147
 2287WAT     H1 9868   6.083   1.229   7.126
 2287WAT     H2 9869   6.088   1.365   7.136
 2287WAT    EPW 9870   6.122   1.295   7.142
 2288WAT      O 9871   6.988   1.219   6.804
 2288WAT     H1 9872   7.053   1.274   6.826
 2288WAT     H2 9873   6.956   1.254   6.731
 2288WAT    EPW 9874   6.993   1.233   6.797
 2289WAT      O 9875   6.180   2.697   7.520
 2289WAT     H1 9876   6.253   2.744   7.505
 2289WAT     H2 9877   6.116   2.749   7.491
 2289WAT    EPW 9878   6.182   2.712   7.513
 2290WAT      O 9879   6.974   1.740   6.581
 2290WAT     H1 9880   7.025   1.670   6.592
 2290WAT     H2 9881   6.942   1.756   6.660
 2290WAT    EPW 9882   6.977   1.732   6.594
 2291WAT      O 9883   5.992   1.629   6.505
 2291WAT     H1 9884   5.948   1.655   6.576
 2291WAT     H2 9885   6.030   1.555   6.531
 2291WAT    EPW 9886   5.991   1.622   6.519
 2292WAT      O 9887   5.975   2.426   7.311
 2292WAT     H1 9888   5.926   2.493   7.338
 2292WAT     H2 9889   6.056   2.457   7.316
 2292WAT    EPW 9890   5.980   2.441   7.315
 2293WAT      O 9891   7.152   1.912   6.217
 2293WAT     H1 9892   7.167   1.828   6.234
 2293WAT     H2 9893   7.077   1.911   6.172
 2293WAT    EPW 9894   7.143   1.900   6.213
 2294WAT      O 9895   6.151   2.763   6.170
 2294WAT     H1 9896   6.122   2.756   6.088
 2294WAT     H2 9897   6.237   2.752   6.162
 2294WAT    EPW 9898   6.159   2.761   6.157
 2295WAT      O 9899   6.545   1.958   6.130
 2295WAT     H1 9900   6.573   1.990   6.053
 2295WAT     H2 9901   6.619   1.948   6.176
 2295WAT    EPW 9902   6.560   1.962   6.125
 2296WAT      O 9903   7.416   2.799   5.874
 2296WAT     H1 9904   7.445   2.768   5.950
 2296WAT     H2 9905   7.411   2.728   5.824
 2296WAT    EPW 9906   7.420   2.784   5.878
 2297WAT      O 9907   7.501   1.958   7.472
 2297WAT     H1 9908   7.587   1.955   7.482
 2297WAT     H2 9909   7.490   2.020   7.410
 2297WAT    EPW 9910   7.512   1.967   7.464
 2298WAT      O 9911   7.143   2.457   6.079
 2298WAT     H1 9912   7.145   2.435   6.163
 2298WAT     H2 9913   7.091   2.397   6.043
 2298WAT    EPW 9914   7.135   2.445   6.086
 2299WAT      O 9915   7.503   1.482   7.540
 2299WAT     H1 9916   7.551   1.537   7.588
 2299WAT     H2 9917   7.423   1.490   7.573
 2299WAT    EPW 9918   7.498   1.491   7.552
 2300WAT      O 9919   7.503   1.660   7.066
 2300WAT     H1 9920   7.443   1.643   7.005
 2300WAT     H2 9921   7.480   1.607   7.132
 2300WAT    EPW 9922   7.491   1.649   7.067
 2301WAT      O 9923   6.475   1.307   7.387
 2301WAT     H1 9924   6.497   1.265   7.314
 2301WAT     H2 9925   6.391   1.286   7.399
 2301WAT    EPW 9926   6.466   1.298   7.378
 2302WAT      O 9927   7.300   2.049   7.649
 2302WAT     H1 9928   7.374   2.024   7.610
 2302WAT     H2 9929   7.267   2.109   7.595
 2302WAT    EPW 9930   7.306   2.054   7.636
 2303WAT      O 9931   6.193   2.663   6.803
 2303WAT     H1 9932   6.177   2.586   6.766
 2303WAT     H2 9933   6.151   2.719   6.750
 2303WAT    EPW 9934   6.184   2.660   6.790
 2304WAT      O 9935   6.753   2.293   6.010
 2304WAT     H1 9936   6.835   2.273   5.990
 2304WAT     H2 9937   6.738   2.365   5.963
 2304WAT    EPW 9938   6.763   2.300   6.000
 2305WAT      O 9939   5.948   2.916   7.133
 2305WAT     H1 9940   5.960   2.899   7.218
 2305WAT     H2 9941   5.982   2.846   7.094
 2305WAT    EPW 9942   5.955   2.903   7.140
 2306WAT      O 9943   6.908   1.150   4.479
 2306WAT     H1 9944   6.900   1.191   4.402
 2306WAT     H2 9945   6.994   1.143   4.490
 2306WAT    EPW 9946   6.919   1.155   4.469
 2307WAT      O 9947   6.875   1.768   4.948
 2307WAT     H1 9948   6.844   1.846   4.972
 2307WAT     H2 9949   6.931   1.748   5.012
 2307WAT    EPW 9950   6.879   1.776   4.961
 2308WAT      O 9951   5.836   2.242   4.443
 2308WAT     H1 9952   5.774   2.237   4.504
 2308WAT     H2 9953   5.845   2.159   4.416
 2308WAT    EPW 9954   5.828   2.229   4.448
 2309WAT      O 9955   7.463   2.677   4.228
 2309WAT     H1 9956   7.529   2.676   4.284
 2309WAT     H2 9957   7.459   2.595   4.199
 2309WAT    EPW 9958   7.472   2.665   4.232
 2310WAT      O 9959   5.855   1.585   4.117
 2310WAT     H1 9960   5.799   1.647   4.091
 2310WAT     H2 9961   5.811   1.511   4.103
 2310WAT    EPW 9962   5.840   1.583   4.111
 2311WAT      O 9963   6.187   2.185   4.013
 2311WAT     H1 9964   6.150   2.155   3.941
 2311WAT     H2 9965   6.178   2.120   4.070
 2311WAT    EPW 9966   6.180   2.171   4.011
 2312WAT      O 9967   7.129   1.961   4.609
 2312WAT     H1 9968   7.136   1.954   4.522
 2312WAT     H2 9969   7.071   1.899   4.629
 2312WAT    EPW 9970   7.121   1.951   4.599
 2313WAT      O 9971   6.090   2.356   4.414
 2313WAT     H1 9972   6.144   2.319   4.472
 2313WAT     H2 9973   6.014   2.317   4.430
 2313WAT    EPW 9974   6.087   2.345   4.425
 2314WAT      O 9975   6.563   1.261   4.363
 2314WAT     H1 9976   6.557   1.331   4.311
 2314WAT     H2 9977   6.640   1.227   4.342
 2314WAT    EPW 9978   6.573   1.267   4.352
 2315WAT      O 9979   5.962   2.617   4.000
 2315WAT     H1 9980   6.017   2.635   3.934
 2315WAT     H2 9981   6.007   2.560   4.049
 2315WAT    EPW 9982   5.977   2.611   3.997
 2316WAT      O 9983   5.884   2.472   5.144
 2316WAT     H1 9984   5.914   2.449   5.223
 2316WAT     H2 9985   5.813   2.422   5.134
 2316WAT    EPW 9986   5.878   2.461   5.154
 2317WAT      O 9987   6.535   2.293   5.583
 2317WAT     H1 9988   6.513   2.281   5.667
 2317WAT     H2 9989   6.462   2.272   5.540
 2317WAT    EPW 9990   6.521   2.288   5.589
 2318WAT      O 9991   6.044   1.995   4.596
 2318WAT     H1 9992   5.996   1.996   4.523
 2318WAT     H2 9993   6.099   1.929   4.583
 2318WAT    EPW 9994   6.045   1.986   4.583
 2319WAT      O 9995   6.482   1.581   5.146
 2319WAT     H1 9996   6.550   1.584   5.091
 2319WAT     H2 9997   6.458   1.497   5.142
 2319WAT    EPW 9998   6.489   1.569   5.137
 2320WAT      O 9999   6.508   2.564   5.322
 2320WAT     H110000   6.501   2.639   5.278
 2320WAT     H210001   6.593   2.558   5.339
 2320WAT    EPW10002   6.520   2.574   5.318
 2321WAT      O10003   6.218   1.780   4.583
 2321WAT     H110004   6.284   1.728   4.607
 2321WAT     H210005   6.149   1.727   4.583
 2321WAT    EPW10006   6.218   1.765   4.587
 2322WAT      O10007   6.630   2.416   4.748
 2322WAT     H110008   6.655   2.334   4.764
 2322WAT     H210009   6.706   2.459   4.742
 2322WAT    EPW10010   6.645   2.410   4.749
 2323WAT      O10011   6.693   2.336   4.372
 2323WAT     H110012   6.720   2.269   4.421
 2323WAT     H210013   6.715   2.312   4.291
 2323WAT    EPW10014   6.700   2.322   4.368
 2324WAT      O10015   6.828   1.812   5.535
 2324WAT     H110016   6.742   1.808   5.517
 2324WAT     H210017   6.831   1.859   5.609
 2324WAT    EPW10018   6.816   1.819   5.543
 2325WAT      O10019   6.293   1.286   4.456
 2325WAT     H110020   6.255   1.344   4.403
 2325WAT     H210021   6.376   1.286   4.430
 2325WAT    EPW10022   6.300   1.294   4.444
 2326WAT      O10023   7.258   1.035   5.453
 2326WAT     H110024   7.244   1.108   5.407
 2326WAT     H210025   7.182   1.022   5.493
 2326WAT    EPW10026   7.244   1.044   5.452
 2327WAT      O10027   6.599   1.208   4.642
 2327WAT     H110028   6.607   1.291   4.667
 2327WAT     H210029   6.576   1.213   4.558
 2327WAT    EPW10030   6.597   1.221   4.634
 2328WAT      O10031   7.048   1.467   3.884
 2328WAT     H110032   7.002   1.532   3.919
 2328WAT     H210033   7.053   1.408   3.947
 2328WAT    EPW10034   7.042   1.468   3.898
 2329WAT      O10035   5.872   1.736   4.846
 2329WAT     H110036   5.872   1.823   4.855
 2329WAT     H210037   5.805   1.710   4.895
 2329WAT    EPW10038   5.862   1.745   4.855
 2330WAT      O10039   5.856   2.695   4.665
 2330WAT     H110040   5.793   2.744   4.630
 2330WAT     H210041   5.896   2.661   4.596
 2330WAT    EPW10042   5.853   2.697   4.650
 2331WAT      O10043   6.442   2.445   4.352
 2331WAT     H110044   6.412   2.450   4.434
 2331WAT     H210045   6.523   2.414   4.362
 2331WAT    EPW10046   6.450   2.441   4.366
 2332WAT      O10047   7.034   2.708   4.166
 2332WAT     H110048   7.097   2.769   4.169
 2332WAT     H210049   7.077   2.634   4.180
 2332WAT    EPW10050   7.050   2.706   4.169
 2333WAT      O10051   6.839   2.756   4.352
 2333WAT     H110052   6.862   2.830   4.392
 2333WAT     H210053   6.903   2.742   4.294
 2333WAT    EPW10054   6.852   2.765   4.349
 2334WAT      O10055   6.161   1.250   4.885
 2334WAT     H110056   6.111   1.185   4.856
 2334WAT     H210057   6.220   1.210   4.936
 2334WAT    EPW10058   6.163   1.235   4.889
 2335WAT      O10059   6.477   1.444   5.801
 2335WAT     H110060   6.478   1.407   5.722
 2335WAT     H210061   6.518   1.520   5.790
 2335WAT    EPW10062   6.483   1.449   5.788
 2336WAT      O10063   5.983   2.610   4.428
 2336WAT     H110064   6.030   2.537   4.437
 2336WAT     H210065   6.036   2.664   4.384
 2336WAT    EPW10066   5.998   2.607   4.423
 2337WAT      O10067   7.515   1.516   4.460
 2337WAT     H110068   7.475   1.559   4.524
 2337WAT     H210069   7.496   1.433   4.476
 2337WAT    EPW10070   7.506   1.510   4.472
 2338WAT      O10071   7.064   2.804   5.107
 2338WAT     H110072   7.126   2.863   5.089
 2338WAT     H210073   7.062   2.754   5.036
 2338WAT    EPW10074   7.073   2.805   5.094
 2339WAT      O10075   6.056   1.363   5.737
 2339WAT     H110076   5.974   1.338   5.719
 2339WAT     H210077   6.103   1.331   5.672
 2339WAT    EPW10078   6.051   1.355   5.725
 2340WAT      O10079   6.148   2.426   4.794
 2340WAT     H110080   6.204   2.413   4.729
 2340WAT     H210081   6.177   2.373   4.857
 2340WAT    EPW10082   6.160   2.416   4.794
 2341WAT      O10083   6.423   2.737   4.705
 2341WAT     H110084   6.502   2.756   4.674
 2341WAT     H210085   6.369   2.787   4.658
 2341WAT    EPW10086   6.426   2.747   4.694
 2342WAT      O10087   6.669   1.175   5.662
 2342WAT     H110088   6.685   1.103   5.616
 2342WAT     H210089   6.602   1.212   5.620
 2342WAT    EPW10090   6.662   1.170   5.649
 2343WAT      O10091   6.763   1.676   4.518
 2343WAT     H110092   6.794   1.635   4.448
 2343WAT     H210093   6.835   1.694   4.565
 2343WAT    EPW10094   6.778   1.672   4.515
 2344WAT      O10095   6.870   1.649   4.018
 2344WAT     H110096   6.893   1.729   4.044
 2344WAT     H210097   6.796   1.662   3.973
 2344WAT    EPW10098   6.863   1.663   4.015
 2345WAT      O10099   7.222   2.915   4.139
 2345WAT     H110100   7.269   2.881   4.075
 2345WAT     H210101   7.278   2.969   4.180
 2345WAT    EPW10102   7.237   2.918   4.136
 2346WAT      O10103   6.322   2.799   5.287
 2346WAT     H110104   6.340   2.795   5.373
 2346WAT     H210105   6.248   2.754   5.279
 2346WAT    EPW10106   6.314   2.792   5.299
 2347WAT      O10107   5.783   1.470   5.454
 2347WAT     H110108   5.778   1.545   5.499
 2347WAT     H210109   5.840   1.488   5.391
 2347WAT    EPW10110   5.791   1.484   5.451
 2348WAT      O10111   6.963   2.508   5.562
 2348WAT     H110112   6.960   2.544   5.642
 2348WAT     H210113   7.049   2.497   5.548
 2348WAT    EPW10114   6.976   2.512   5.572
 2349WAT      O10115   6.731   2.532   3.974
 2349WAT     H110116   6.699   2.594   4.027
 2349WAT     H210117   6.809   2.563   3.951
 2349WAT    EPW10118   6.738   2.546   3.978
 2350WAT      O10119   7.058   1.288   4.095
 2350WAT     H110120   7.112   1.220   4.097
 2350WAT     H210121   7.080   1.334   4.166
 2350WAT    EPW10122   7.069   1.285   4.106
 2351WAT      O10123   5.911   1.377   4.384
 2351WAT     H110124   5.882   1.298   4.362
 2351WAT     H210125   5.860   1.400   4.451
 2351WAT    EPW10126   5.899   1.369   4.391
 2352WAT      O10127   6.072   2.685   5.173
 2352WAT     H110128   6.011   2.623   5.170
 2352WAT     H210129   6.109   2.682   5.094
 2352WAT    EPW10130   6.068   2.675   5.161
 2353WAT      O10131   6.830   1.549   4.275
 2353WAT     H110132   6.758   1.502   4.258
 2353WAT     H210133   6.850   1.585   4.198
 2353WAT    EPW10134   6.822   1.548   4.261
 2354WAT      O10135   6.843   2.789   5.264
 2354WAT     H110136   6.916   2.792   5.215
 2354WAT     H210137   6.779   2.787   5.204
 2354WAT    EPW10138   6.844   2.789   5.248
 2355WAT      O10139   6.821   1.224   4.223
 2355WAT     H110140   6.764   1.205   4.160
 2355WAT     H210141   6.893   1.246   4.180
 2355WAT    EPW10142   6.823   1.224   4.208
 2356WAT      O10143   7.508   2.813   4.539
 2356WAT     H110144   7.491   2.898   4.534
 2356WAT     H210145   7.430   2.775   4.526
 2356WAT    EPW10146   7.494   2.820   4.536
 2357WAT      O10147   6.645   1.485   4.688
 2357WAT     H110148   6.673   1.550   4.636
 2357WAT     H210149   6.656   1.518   4.768
 2357WAT    EPW10150   6.651   1.500   4.692
 2358WAT      O10151   7.203   2.417   4.453
 2358WAT     H110152   7.272   2.365   4.463
 2358WAT     H210153   7.142   2.380   4.503
 2358WAT    EPW10154   7.204   2.404   4.462
 2359WAT      O10155   6.251   2.519   5.448
 2359WAT     H110156   6.328   2.548   5.417
 2359WAT     H210157   6.240   2.567   5.521
 2359WAT    EPW10158   6.261   2.531   5.454
 2360WAT      O10159   6.233   1.027   4.540
 2360WAT     H110160   6.252   1.109   4.517
 2360WAT     H210161   6.205   0.992   4.465
 2360WAT    EPW10162   6.232   1.034   4.525
 2361WAT      O10163   6.436   2.093   4.880
 2361WAT     H110164   6.459   2.073   4.962
 2361WAT     H210165   6.378   2.032   4.860
 2361WAT    EPW10166   6.431   2.081   4.889
 2362WAT      O10167   7.017   1.443   5.279
 2362WAT     H110168   7.010   1.481   5.357
 2362WAT     H210169   6.951   1.386   5.277
 2362WAT    EPW10170   7.006   1.440   5.290
 2363WAT      O10171   6.535   2.091   5.138
 2363WAT     H110172   6.525   2.178   5.146
 2363WAT     H210173   6.504   2.060   5.213
 2363WAT    EPW10174   6.529   2.099   5.150
 2364WAT      O10175   7.129   2.238   5.119
 2364WAT     H110176   7.070   2.189   5.161
 2364WAT     H210177   7.112   2.319   5.147
 2364WAT    EPW10178   7.118   2.243   5.129
 2365WAT      O10179   7.174   1.103   4.537
 2365WAT     H110180   7.172   1.080   4.621
 2365WAT     H210181   7.214   1.037   4.498
 2365WAT    EPW10182   7.180   1.090   4.544
 2366WAT      O10183   5.789   2.516   5.760
 2366WAT     H110184   5.848   2.561   5.805
 2366WAT     H210185   5.793   2.436   5.795
 2366WAT    EPW10186   5.798   2.511   5.772
 2367WAT      O10187   7.403   1.443   5.423
 2367WAT     H110188   7.430   1.521   5.393
 2367WAT     H210189   7.383   1.460   5.507
 2367WAT    EPW10190   7.404   1.457   5.431
 2368WAT      O10191   6.168   1.422   4.672
 2368WAT     H110192   6.197   1.370   4.609
 2368WAT     H210193   6.164   1.369   4.742
 2368WAT    EPW10194   6.172   1.406   4.673
 2369WAT      O10195   7.484   2.169   4.100
 2369WAT     H110196   7.464   2.121   4.170
 2369WAT     H210197   7.564   2.141   4.078
 2369WAT    EPW10198   7.493   2.158   4.107
 2370WAT      O10199   6.233   2.200   4.593
 2370WAT     H110200   6.284   2.168   4.530
 2370WAT     H210201   6.173   2.138   4.604
 2370WAT    EPW10202   6.232   2.186   4.585
 2371WAT      O10203   6.059   2.856   4.762
 2371WAT     H110204   5.987   2.815   4.732
 2371WAT     H210205   6.108   2.865   4.690
 2371WAT    EPW10206   6.055   2.851   4.747
 2372WAT      O10207   6.029   1.558   4.990
 2372WAT     H110208   6.113   1.580   4.979
 2372WAT     H210209   5.986   1.620   4.946
 2372WAT    EPW10210   6.035   1.570   4.982
 2373WAT      O10211   7.249   1.867   4.050
 2373WAT     H110212   7.246   1.948   4.018
 2373WAT     H210213   7.216   1.876   4.131
 2373WAT    EPW10214   7.244   1.880   4.057
 2374WAT      O10215   6.359   2.140   4.348
 2374WAT     H110216   6.385   2.221   4.330
 2374WAT     H210217   6.425   2.090   4.318
 2374WAT    EPW10218   6.373   2.144   4.341
 2375WAT      O10219   5.888   2.312   4.787
 2375WAT     H110220   5.835   2.376   4.812
 2375WAT     H210221   5.965   2.350   4.780
 2375WAT    EPW10222   5.891   2.327   4.790
 2376WAT      O10223   6.612   1.689   5.781
 2376WAT     H110224   6.557   1.730   5.834
 2376WAT     H210225   6.598   1.726   5.703
 2376WAT    EPW10226   6.602   1.701   5.777
 2377WAT      O10227   5.908   1.987   4.355
 2377WAT     H110228   5.887   1.902   4.355
 2377WAT     H210229   5.979   1.991   4.305
 2377WAT    EPW10230   5.915   1.975   4.348
 2378WAT      O10231   7.421   1.276   4.211
 2378WAT     H110232   7.489   1.272   4.156
 2378WAT     H210233   7.396   1.360   4.205
 2378WAT    EPW10234   7.427   1.288   4.202
 2379WAT      O10235   6.854   2.582   4.729
 2379WAT     H110236   6.807   2.652   4.710
 2379WAT     H210237   6.878   2.552   4.650
 2379WAT    EPW10238   6.851   2.588   4.714
 2380WAT      O10239   5.803   2.458   4.278
 2380WAT     H110240   5.856   2.515   4.316
 2380WAT     H210241   5.801   2.391   4.334
 2380WAT    EPW10242   5.810   2.457   4.292
 2381WAT      O10243   6.254   2.265   4.995
 2381WAT     H110244   6.309   2.306   5.049
 2381WAT     H210245   6.307   2.216   4.946
 2381WAT    EPW10246   6.270   2.264   4.996
 2382WAT      O10247   7.120   1.505   4.715
 2382WAT     H110248   7.152   1.464   4.785
 2382WAT     H210249   7.056   1.453   4.687
 2382WAT    EPW10250   7.115   1.491   4.721
 2383WAT      O10251   5.803   2.287   4.058
 2383WAT     H110252   5.876   2.240   4.060
 2383WAT     H210253   5.814   2.345   4.121
 2383WAT    EPW10254   5.815   2.288   4.067
 2384WAT      O10255   5.905   2.040   4.832
 2384WAT     H110256   5.952   2.019   4.762
 2384WAT     H210257   5.897   2.127   4.826
 2384WAT    EPW10258   5.911   2.050   4.821
 2385WAT      O10259   6.571   1.467   4.178
 2385WAT     H110260   6.563   1.438   4.096
 2385WAT     H210261   6.537   1.547   4.175
 2385WAT    EPW10262   6.565   1.475   4.166
 2386WAT      O10263   7.273   2.636   5.311
 2386WAT     H110264   7.267   2.714   5.351
 2386WAT     H210265   7.323   2.654   5.241
 2386WAT    EPW10266   7.280   2.650   5.306
 2387WAT      O10267   6.382   2.478   4.619
 2387WAT     H110268   6.386   2.562   4.645
 2387WAT     H210269   6.453   2.442   4.656
 2387WAT    EPW10270   6.393   2.485   4.628
 2388WAT      O10271   6.167   1.808   5.653
 2388WAT     H110272   6.126   1.748   5.702
 2388WAT     H210273   6.161   1.775   5.572
 2388WAT    EPW10274   6.160   1.794   5.648
 2389WAT      O10275   6.188   1.721   4.177
 2389WAT     H110276   6.173   1.655   4.232
 2389WAT     H210277   6.149   1.696   4.103
 2389WAT    EPW10278   6.180   1.708   4.174
 2390WAT      O10279   6.244   1.903   4.836
 2390WAT     H110280   6.234   1.876   4.754
 2390WAT     H210281   6.257   1.829   4.880
 2390WAT    EPW10282   6.245   1.888   4.830
 2391WAT      O10283   6.226   1.874   5.183
 2391WAT     H110284   6.249   1.823   5.117
 2391WAT     H210285   6.174   1.933   5.145
 2391WAT    EPW10286   6.222   1.875   5.168
 2392WAT      O10287   7.281   1.643   5.008
 2392WAT     H110288   7.210   1.662   5.054
 2392WAT     H210289   7.284   1.705   4.947
 2392WAT    EPW10290   7.271   1.655   5.006
 2393WAT      O10291   6.620   2.772   5.104
 2393WAT     H110292   6.593   2.705   5.055
 2393WAT     H210293   6.613   2.840   5.051
 2393WAT    EPW10294   6.615   2.772   5.089
 2394WAT      O10295   6.846   1.229   5.345
 2394WAT     H110296   6.867   1.148   5.322
 2394WAT     H210297   6.878   1.237   5.426
 2394WAT    EPW10298   6.854   1.218   5.354
 2395WAT      O10299   7.080   1.433   4.326
 2395WAT     H110300   7.132   1.501   4.342
 2395WAT     H210301   7.001   1.469   4.319
 2395WAT    EPW10302   7.076   1.449   4.327
 2396WAT      O10303   6.046   2.047   5.721
 2396WAT     H110304   6.038   2.094   5.648
 2396WAT     H210305   6.090   1.976   5.695
 2396WAT    EPW10306   6.051   2.043   5.707
 2397WAT      O10307   7.235   2.205   5.581
 2397WAT     H110308   7.236   2.291   5.566
 2397WAT     H210309   7.287   2.173   5.519
 2397WAT    EPW10310   7.242   2.213   5.570
 2398WAT      O10311   6.613   2.563   5.619
 2398WAT     H110312   6.643   2.554   5.700
 2398WAT     H210313   6.589   2.483   5.596
 2398WAT    EPW10314   6.614   2.550   5.628
 2399WAT      O10315   6.679   1.571   4.948
 2399WAT     H110316   6.742   1.631   4.953
 2399WAT     H210317   6.716   1.499   4.980
 2399WAT    EPW10318   6.694   1.569   4.953
 2400WAT      O10319   6.934   1.893   4.146
 2400WAT     H110320   6.911   1.946   4.081
 2400WAT     H210321   6.873   1.906   4.207
 2400WAT    EPW10322   6.922   1.902   4.146
 2401WAT      O10323   7.422   2.247   4.473
 2401WAT     H110324   7.463   2.230   4.548
 2401WAT     H210325   7.427   2.171   4.430
 2401WAT    EPW10326   7.429   2.233   4.478
 2402WAT      O10327   7.080   2.616   4.896
 2402WAT     H110328   7.009   2.592   4.851
 2402WAT     H210329   7.110   2.684   4.851
 2402WAT    EPW10330   7.074   2.623   4.883
 2403WAT      O10331   6.981   2.287   4.885
 2403WAT     H110332   6.910   2.320   4.923
 2403WAT     H210333   7.029   2.259   4.952
 2403WAT    EPW10334   6.978   2.288   4.901
 2404WAT      O10335   6.441   2.726   4.312
 2404WAT     H110336   6.447   2.643   4.339
 2404WAT     H210337   6.505   2.733   4.253
 2404WAT    EPW10338   6.452   2.715   4.307
 2405WAT      O10339   6.365   1.122   4.106
 2405WAT     H110340   6.375   1.119   4.193
 2405WAT     H210341   6.323   1.197   4.093
 2405WAT    EPW10342   6.361   1.132   4.117
 2406WAT      O10343   6.656   2.741   4.140
 2406WAT     H110344   6.715   2.752   4.204
 2406WAT     H210345   6.655   2.817   4.099
 2406WAT    EPW10346   6.665   2.754   4.144
 2407WAT      O10347   7.437   2.123   5.401
 2407WAT     H110348   7.422   2.049   5.357
 2407WAT     H210349   7.455   2.180   5.339
 2407WAT    EPW10350   7.437   2.120   5.385
 2408WAT      O10351   6.969   2.655   5.804
 2408WAT     H110352   6.995   2.678   5.884
 2408WAT     H210353   6.994   2.723   5.755
 2408WAT    EPW10354   6.977   2.669   5.809
 2409WAT      O10355   7.342   1.167   5.690
 2409WAT     H110356   7.327   1.124   5.616
 2409WAT     H210357   7.379   1.107   5.742
 2409WAT    EPW10358   7.345   1.152   5.687
 2410WAT      O10359   6.149   1.999   4.218
 2410WAT     H110360   6.169   1.915   4.214
 2410WAT     H210361   6.212   2.033   4.268
 2410WAT    EPW10362   6.161   1.992   4.225
 2411WAT      O10363   6.932   2.100   5.250
 2411WAT     H110364   6.881   2.137   5.310
 2411WAT     H210365   6.964   2.030   5.292
 2411WAT    EPW10366   6.929   2.095   5.265
 2412WAT      O10367   5.804   1.121   4.314
 2412WAT     H110368   5.808   1.063   4.250
 2412WAT     H210369   5.772   1.076   4.382
 2412WAT    EPW10370   5.800   1.106   4.315
 2413WAT      O10371   6.774   1.917   4.373
 2413WAT     H110372   6.786   1.983   4.428
 2413WAT     H210373   6.762   1.848   4.425
 2413WAT    EPW10374   6.774   1.917   4.389
 2414WAT      O10375   7.298   2.436   4.970
 2414WAT     H110376   7.236   2.474   4.921
 2414WAT     H210377   7.256   2.370   5.008
 2414WAT    EPW10378   7.283   2.432   4.969
 2415WAT      O10379   6.247   1.364   4.045
 2415WAT     H110380   6.186   1.363   3.983
 2415WAT     H210381   6.315   1.401   4.005
 2415WAT    EPW10382   6.248   1.369   4.030
 2416WAT      O10383   6.691   2.146   4.788
 2416WAT     H110384   6.608   2.124   4.807
 2416WAT     H210385   6.736   2.116   4.857
 2416WAT    EPW10386   6.685   2.138   4.801
 2417WAT      O10387   6.344   2.757   3.932
 2417WAT     H110388   6.366   2.686   3.978
 2417WAT     H210389   6.350   2.821   3.991
 2417WAT    EPW10390   6.348   2.756   3.948
 2418WAT      O10391   6.063   2.071   5.067
 2418WAT     H110392   6.116   2.138   5.048
 2418WAT     H210393   6.023   2.055   4.991
 2418WAT    EPW10394   6.065   2.078   5.053
 2419WAT      O10395   6.380   1.591   4.716
 2419WAT     H110396   6.456   1.552   4.702
 2419WAT     H210397   6.321   1.529   4.701
 2419WAT    EPW10398   6.382   1.576   4.712
 2420WAT      O10399   5.852   1.713   4.372
 2420WAT     H110400   5.890   1.677   4.442
 2420WAT     H210401   5.867   1.655   4.309
 2420WAT    EPW10402   5.860   1.699   4.373
 2421WAT      O10403   7.319   2.038   5.043
 2421WAT     H110404   7.331   1.986   5.113
 2421WAT     H210405   7.254   2.090   5.068
 2421WAT    EPW10406   7.312   2.038   5.057
 2422WAT      O10407   6.387   1.895   3.914
 2422WAT     H110408   6.373   1.842   3.983
 2422WAT     H210409   6.322   1.874   3.859
 2422WAT    EPW10410   6.375   1.884   3.916
 2423WAT      O10411   6.024   2.185   5.485
 2423WAT     H110412   5.985   2.137   5.423
 2423WAT     H210413   6.000   2.267   5.466
 2423WAT    EPW10414   6.015   2.190   5.473
 2424WAT      O10415   6.458   1.721   4.135
 2424WAT     H110416   6.485   1.793   4.177
 2424WAT     H210417   6.375   1.714   4.158
 2424WAT    EPW10418   6.450   1.731   4.144
 2425WAT      O10419   7.323   1.444   5.698
 2425WAT     H110420   7.240   1.459   5.723
 2425WAT     H210421   7.327   1.357   5.697
 2425WAT    EPW10422   7.311   1.433   5.702
 2426WAT      O10423   5.851   1.345   4.849
 2426WAT     H110424   5.832   1.379   4.771
 2426WAT     H210425   5.923   1.389   4.873
 2426WAT    EPW10426   5.859   1.357   4.841
 2427WAT      O10427   7.093   1.787   5.732
 2427WAT     H110428   7.138   1.796   5.806
 2427WAT     H210429   7.021   1.834   5.746
 2427WAT    EPW10430   7.089   1.795   5.745
 2428WAT      O10431   7.272   1.839   5.527
 2428WAT     H110432   7.342   1.869   5.569
 2428WAT     H210433   7.219   1.813   5.591
 2428WAT    EPW10434   7.274   1.839   5.542
 2429WAT      O10435   7.405   2.438   4.094
 2429WAT     H110436   7.431   2.356   4.106
 2429WAT     H210437   7.322   2.437   4.120
 2429WAT    EPW10438   7.397   2.426   4.100
 2430WAT      O10439   7.337   1.653   4.631
 2430WAT     H110440   7.276   1.600   4.662
 2430WAT     H210441   7.339   1.719   4.688
 2430WAT    EPW10442   7.329   1.655   4.644
 2431WAT      O10443   7.018   2.253   4.019
 2431WAT     H110444   7.092   2.207   4.013
 2431WAT     H210445   6.990   2.258   3.936
 2431WAT    EPW10446   7.025   2.247   4.006
 2432WAT      O10447   6.495   2.373   5.122
 2432WAT     H110448   6.491   2.423   5.193
 2432WAT     H210449   6.491   2.431   5.057
 2432WAT    EPW10450   6.494   2.389   5.123
 2433WAT      O10451   6.294   2.242   5.445
 2433WAT     H110452   6.212   2.214   5.461
 2433WAT     H210453   6.284   2.328   5.437
 2433WAT    EPW10454   6.280   2.251   5.446
 2434WAT      O10455   7.236   1.267   5.296
 2434WAT     H110456   7.294   1.319   5.334
 2434WAT     H210457   7.165   1.318   5.287
 2434WAT    EPW10458   7.234   1.282   5.300
 2435WAT      O10459   6.781   2.018   5.030
 2435WAT     H110460   6.835   2.049   5.091
 2435WAT     H210461   6.701   2.031   5.064
 2435WAT    EPW10462   6.777   2.025   5.044
 2436WAT      O10463   6.415   1.581   5.417
 2436WAT     H110464   6.430   1.501   5.449
 2436WAT     H210465   6.445   1.577   5.335
 2436WAT    EPW10466   6.422   1.569   5.410
 2437WAT      O10467   6.686   2.785   4.619
 2437WAT     H110468   6.686   2.872   4.629
 2437WAT     H210469   6.705   2.775   4.534
 2437WAT    EPW10470   6.689   2.797   4.608
 2438WAT      O10471   7.295   1.126   5.064
 2438WAT     H110472   7.287   1.166   5.142
 2438WAT     H210473   7.350   1.060   5.081
 2438WAT    EPW10474   7.302   1.122   5.078
 2439WAT      O10475   6.570   1.193   5.326
 2439WAT     H110476   6.655   1.209   5.320
 2439WAT     H210477   6.564   1.108   5.309
 2439WAT    EPW10478   6.582   1.183   5.323
 2440WAT      O10479   6.507   2.577   4.935
 2440WAT     H110480   6.457   2.629   4.885
 2440WAT     H210481   6.552   2.530   4.876
 2440WAT    EPW10482   6.507   2.578   4.919
 2441WAT      O10483   6.959   2.189   5.650
 2441WAT     H110484   7.039   2.191   5.615
 2441WAT     H210485   6.909   2.222   5.586
 2441WAT    EPW10486   6.964   2.194   5.635
 2442WAT      O10487   7.239   2.477   5.536
 2442WAT     H110488   7.290   2.513   5.596
 2442WAT     H210489   7.258   2.521   5.463
 2442WAT    EPW10490   7.250   2.489   5.534
 2443WAT      O10491   7.508   1.797   3.982
 2443WAT     H110492   7.518   1.846   3.910
 2443WAT     H210493   7.426   1.814   4.007
 2443WAT    EPW10494   7.497   1.807   3.975
 2444WAT      O10495   6.618   2.036   3.974
 2444WAT     H110496   6.546   1.999   3.941
 2444WAT     H210497   6.598   2.121   3.978
 2444WAT    EPW10498   6.604   2.043   3.970
 2445WAT      O10499   6.292   1.666   4.970
 2445WAT     H110500   6.324   1.637   4.894
 2445WAT     H210501   6.351   1.638   5.028
 2445WAT    EPW10502   6.305   1.657   4.967
 2446WAT      O10503   6.985   1.579   5.518
 2446WAT     H110504   6.930   1.646   5.527
 2446WAT     H210505   7.025   1.575   5.595
 2446WAT    EPW10506   6.983   1.588   5.531
 2447WAT      O10507   7.049   1.690   5.152
 2447WAT     H110508   7.048   1.745   5.219
 2447WAT     H210509   7.034   1.613   5.188
 2447WAT    EPW10510   7.047   1.687   5.167
 2448WAT      O10511   6.762   2.786   5.531
 2448WAT     H110512   6.779   2.778   5.446
 2448WAT     H210513   6.725   2.711   5.552
 2448WAT    EPW10514   6.759   2.774   5.522
 2449WAT      O10515   7.238   1.661   4.371
 2449WAT     H110516   7.262   1.658   4.455
 2449WAT     H210517   7.313   1.672   4.329
 2449WAT    EPW10518   7.252   1.662   4.378
 2450WAT      O10519   6.582   1.140   4.923
 2450WAT     H110520   6.499   1.132   4.946
 2450WAT     H210521   6.580   1.148   4.837
 2450WAT    EPW10522   6.570   1.140   4.914
 2451WAT      O10523   7.418   1.247   4.493
 2451WAT     H110524   7.336   1.223   4.511
 2451WAT     H210525   7.422   1.242   4.406
 2451WAT    EPW10526   7.407   1.243   4.483
 2452WAT      O10527   7.415   2.010   4.319
 2452WAT     H110528   7.453   1.932   4.316
 2452WAT     H210529   7.330   1.992   4.322
 2452WAT    EPW10530   7.408   1.996   4.319
 2453WAT      O10531   6.777   2.248   5.439
 2453WAT     H110532   6.701   2.248   5.483
 2453WAT     H210533   6.781   2.329   5.405
 2453WAT    EPW10534   6.766   2.260   5.440
 2454WAT      O10535   5.814   1.251   5.623
 2454WAT     H110536   5.810   1.321   5.570
 2454WAT     H210537   5.730   1.229   5.634
 2454WAT    EPW10538   5.801   1.258   5.617
 2455WAT      O10539   6.329   2.890   5.019
 2455WAT     H110540   6.331   2.869   5.104
 2455WAT     H210541   6.296   2.819   4.981
 2455WAT    EPW10542   6.325   2.876   5.026
 2456WAT      O10543   6.160   1.467   4.294
 2456WAT     H110544   6.172   1.433   4.215
 2456WAT     H210545   6.079   1.444   4.315
 2456WAT    EPW10546   6.150   1.459   4.286
 2457WAT      O10547   7.050   2.233   4.619
 2457WAT     H110548   7.030   2.255   4.701
 2457WAT     H210549   7.083   2.153   4.626
 2457WAT    EPW10550   7.052   2.225   4.632
 2458WAT      O10551   6.803   2.139   4.535
 2458WAT     H110552   6.763   2.136   4.612
 2458WAT     H210553   6.881   2.173   4.554
 2458WAT    EPW10554   6.809   2.144   4.549
 2459WAT      O10555   6.792   2.521   5.347
 2459WAT     H110556   6.842   2.519   5.418
 2459WAT     H210557   6.824   2.587   5.300
 2459WAT    EPW10558   6.804   2.530   5.350
 2460WAT      O10559   7.039   1.872   5.365
 2460WAT     H110560   6.973   1.850   5.418
 2460WAT     H210561   7.109   1.866   5.417
 2460WAT    EPW10562   7.040   1.868   5.381
 2461WAT      O10563   5.971   2.870   5.540
 2461WAT     H110564   5.916   2.804   5.530
 2461WAT     H210565   5.920   2.936   5.567
 2461WAT    EPW10566   5.955   2.870   5.543
 2462WAT      O10567   6.861   1.962   5.771
 2462WAT     H110568   6.891   2.035   5.735
 2462WAT     H210569   6.780   1.984   5.796
 2462WAT    EPW10570   6.853   1.976   5.769
 2463WAT      O10571   7.159   2.873   4.811
 2463WAT     H110572   7.093   2.925   4.836
 2463WAT     H210573   7.225   2.898   4.862
 2463WAT    EPW10574   7.159   2.884   4.822
 2464WAT      O10575   6.785   2.383   5.066
 2464WAT     H110576   6.701   2.375   5.088
 2464WAT     H210577   6.822   2.414   5.138
 2464WAT    EPW10578   6.778   2.386   5.080
 2465WAT      O10579   7.419   2.556   5.736
 2465WAT     H110580   7.499   2.536   5.710
 2465WAT     H210581   7.409   2.511   5.810
 2465WAT    EPW10582   7.429   2.546   5.743
 2466WAT      O10583   6.163   1.699   5.391
 2466WAT     H110584   6.177   1.759   5.330
 2466WAT     H210585   6.239   1.658   5.399
 2466WAT    EPW10586   6.176   1.702   5.383
 2467WAT      O10587   5.978   1.530   5.262
 2467WAT     H110588   5.990   1.540   5.176
 2467WAT     H210589   6.032   1.589   5.297
 2467WAT    EPW10590   5.988   1.541   5.254
 2468WAT      O10591   7.492   1.737   4.280
 2468WAT     H110592   7.524   1.725   4.199
 2468WAT     H210593   7.525   1.670   4.325
 2468WAT    EPW10594   7.502   1.726   4.275
 2469WAT      O10595   6.193   1.230   5.537
 2469WAT     H110596   6.152   1.153   5.541
 2469WAT     H210597   6.176   1.257   5.456
 2469WAT    EPW10598   6.185   1.223   5.525
 2470WAT      O10599   6.891   2.506   4.467
 2470WAT     H110600   6.875   2.583   4.428
 2470WAT     H210601   6.828   2.454   4.436
 2470WAT    EPW10602   6.879   2.510   4.457
 2471WAT      O10603   7.380   1.884   5.272
 2471WAT     H110604   7.426   1.814   5.245
 2471WAT     H210605   7.337   1.855   5.341
 2471WAT    EPW10606   7.381   1.869   5.278
 2472WAT      O10607   5.895   2.043   5.287
 2472WAT     H110608   5.941   2.060   5.214
 2472WAT     H210609   5.871   1.960   5.277
 2472WAT    EPW10610   5.898   2.033   5.275
 2473WAT      O10611   6.062   1.631   3.942
 2473WAT     H110612   5.991   1.619   3.990
 2473WAT     H210613   6.069   1.557   3.896
 2473WAT    EPW10614   6.053   1.618   3.942
 2474WAT      O10615   6.930   1.267   5.612
 2474WAT     H110616   6.960   1.339   5.651
 2474WAT     H210617   6.849   1.258   5.643
 2474WAT    EPW10618   6.922   1.276   5.622
 2475WAT      O10619   6.895   1.346   4.675
 2475WAT     H110620   6.817   1.384   4.675
 2475WAT     H210621   6.888   1.286   4.612
 2475WAT    EPW10622   6.882   1.343   4.666
 2476WAT      O10623   6.374   2.513   4.081
 2476WAT     H110624   6.408   2.502   4.160
 2476WAT     H210625   6.289   2.493   4.092
 2476WAT    EPW10626   6.366   2.508   4.094
 2477WAT      O10627   7.216   1.376   4.942
 2477WAT     H110628   7.265   1.314   4.977
 2477WAT     H210629   7.246   1.450   4.978
 2477WAT    EPW10630   7.228   1.378   4.952
 2478WAT      O10631   6.407   1.994   5.365
 2478WAT     H110632   6.370   2.068   5.391
 2478WAT     H210633   6.347   1.958   5.313
 2478WAT    EPW10634   6.393   2.000   5.361
 2479WAT      O10635   7.291   1.860   4.822
 2479WAT     H110636   7.305   1.921   4.883
 2479WAT     H210637   7.243   1.902   4.762
 2479WAT    EPW10638   7.286   1.876   4.822
 2480WAT      O10639   7.270   2.695   4.434
 2480WAT     H110640   7.245   2.612   4.447
 2480WAT     H210641   7.318   2.690   4.361
 2480WAT    EPW10642   7.273   2.682   4.425
 2481WAT      O10643   6.116   2.423   4.137
 2481WAT     H110644   6.112   2.403   4.222
 2481WAT     H210645   6.135   2.346   4.099
 2481WAT    EPW10646   6.118   2.408   4.144
 2482WAT      O10647   6.450   2.272   3.952
 2482WAT     H110648   6.373   2.235   3.966
 2482WAT     H210649   6.442   2.351   3.988
 2482WAT    EPW10650   6.438   2.278   3.960
 2483WAT      O10651   6.389   1.329   5.163
 2483WAT     H110652   6.309   1.311   5.194
 2483WAT     H210653   6.441   1.277   5.210
 2483WAT    EPW10654   6.385   1.318   5.175
 2484WAT      O10655   6.763   1.324   5.032
 2484WAT     H110656   6.701   1.268   5.006
 2484WAT     H210657   6.837   1.286   5.006
 2484WAT    EPW10658   6.764   1.310   5.024
 2485WAT      O10659   7.062   2.500   5.170
 2485WAT     H110660   7.117   2.550   5.216
 2485WAT     H210661   7.061   2.537   5.091
 2485WAT    EPW10662   7.070   2.513   5.165
 2486WAT      O10663   7.021   2.850   5.611
 2486WAT     H110664   6.945   2.821   5.580
 2486WAT     H210665   7.006   2.935   5.625
 2486WAT    EPW10666   7.008   2.858   5.608
 2487WAT      O10667   6.550   1.799   5.522
 2487WAT     H110668   6.509   1.730   5.489
 2487WAT     H210669   6.511   1.867   5.484
 2487WAT    EPW10670   6.538   1.799   5.511
 2488WAT      O10671   6.635   1.146   4.038
 2488WAT     H110672   6.646   1.157   3.952
 2488WAT     H210673   6.548   1.150   4.048
 2488WAT    EPW10674   6.624   1.148   4.027
 2489WAT      O10675   7.477   2.249   5.146
 2489WAT     H110676   7.443   2.182   5.102
 2489WAT     H210677   7.459   2.318   5.095
 2489WAT    EPW10678   7.469   2.249   5.132
 2490WAT      O10679   6.417   2.760   5.555
 2490WAT     H110680   6.401   2.775   5.639
 2490WAT     H210681   6.480   2.699   5.555
 2490WAT    EPW10682   6.424   2.753   5.567
 2491WAT      O10683   7.402   2.685   5.062
 2491WAT     H110684   7.484   2.685   5.031
 2491WAT     H210685   7.368   2.611   5.031
 2491WAT    EPW10686   7.409   2.674   5.053
 2492WAT      O10687   6.134   1.302   5.279
 2492WAT     H110688   6.079   1.237   5.257
 2492WAT     H210689   6.086   1.374   5.270
 2492WAT    EPW10690   6.119   1.303   5.275
 2493WAT      O10691   6.988   1.221   4.905
 2493WAT     H110692   7.053   1.275   4.927
 2493WAT     H210693   6.956   1.257   4.832
 2493WAT    EPW10694   6.993   1.234   4.897
 2494WAT      O10695   6.128   2.670   5.678
 2494WAT     H110696   6.199   2.703   5.717
 2494WAT     H210697   6.093   2.739   5.638
 2494WAT    EPW10698   6.134   2.685   5.678
 2495WAT      O10699   6.974   1.741   4.688
 2495WAT     H110700   7.025   1.671   4.699
 2495WAT     H210701   6.941   1.757   4.767
 2495WAT    EPW10702   6.977   1.733   4.701
 2496WAT      O10703   5.988   1.631   4.606
 2496WAT     H110704   5.947   1.656   4.679
 2496WAT     H210705   6.026   1.556   4.628
 2496WAT    EPW10706   5.987   1.624   4.620
 2497WAT      O10707   5.982   2.448   5.402
 2497WAT     H110708   5.932   2.511   5.435
 2497WAT     H210709   6.063   2.481   5.408
 2497WAT    EPW10710   5.986   2.462   5.408
 2498WAT      O10711   7.151   1.914   4.322
 2498WAT     H110712   7.166   1.830   4.339
 2498WAT     H210713   7.076   1.913   4.278
 2498WAT    EPW10714   7.142   1.901   4.318
 2499WAT      O10715   6.170   2.770   4.295
 2499WAT     H110716   6.154   2.824   4.228
 2499WAT     H210717   6.255   2.753   4.288
 2499WAT    EPW10718   6.180   2.776   4.284
 2500WAT      O10719   6.543   1.966   4.232
 2500WAT     H110720   6.573   1.996   4.157
 2500WAT     H210721   6.615   1.953   4.280
 2500WAT    EPW10722   6.558   1.968   4.228
 2501WAT      O10723   7.415   2.799   3.977
 2501WAT     H110724   7.442   2.768   4.054
 2501WAT     H210725   7.409   2.727   3.927
 2501WAT    EPW10726   7.418   2.784   3.981
 2502WAT      O10727   7.514   1.958   5.625
 2502WAT     H110728   7.588   1.927   5.591
 2502WAT     H210729   7.495   2.027   5.575
 2502WAT    EPW10730   7.522   1.963   5.613
 2503WAT      O10731   7.145   2.454   4.183
 2503WAT     H110732   7.145   2.432   4.267
 2503WAT     H210733   7.093   2.394   4.146
 2503WAT    EPW10734   7.137   2.442   4.190
 2504WAT      O10735   7.514   1.515   5.892
 2504WAT     H110736   7.522   1.601   5.879
 2504WAT     H210737   7.459   1.490   5.830
 2504WAT    EPW10738   7.507   1.524   5.881
 2505WAT      O10739   7.495   1.647   5.186
 2505WAT     H110740   7.432   1.637   5.127
 2505WAT     H210741   7.567   1.619   5.144
 2505WAT    EPW10742   7.497   1.642   5.171
 2506WAT      O10743   6.457   1.322   5.540
 2506WAT     H110744   6.491   1.285   5.468
 2506WAT     H210745   6.377   1.287   5.544
 2506WAT    EPW10746   6.450   1.311   5.530
 2507WAT      O10747   7.251   2.123   5.850
 2507WAT     H110748   7.329   2.146   5.881
 2507WAT     H210749   7.255   2.145   5.766
 2507WAT    EPW10750   7.263   2.130   5.842
 2508WAT      O10751   6.182   2.671   4.921
 2508WAT     H110752   6.175   2.594   4.880
 2508WAT     H210753   6.141   2.727   4.867
 2508WAT    EPW10754   6.175   2.668   4.907
 2509WAT      O10755   6.756   2.287   4.109
 2509WAT     H110756   6.839   2.268   4.089
 2509WAT     H210757   6.740   2.360   4.065
 2509WAT    EPW10758   6.766   2.295   4.100
 2510WAT      O10759   5.953   2.921   5.262
 2510WAT     H110760   5.961   2.902   5.347
 2510WAT     H210761   5.986   2.851   5.223
 2510WAT    EPW10762   5.959   2.908   5.269
 2511WAT      O10763   6.906   1.153   2.578
 2511WAT     H110764   6.899   1.194   2.502
 2511WAT     H210765   6.992   1.145   2.590
 2511WAT    EPW10766   6.918   1.158   2.569
 2512WAT      O10767   6.879   1.768   3.049
 2512WAT     H110768   6.847   1.845   3.074
 2512WAT     H210769   6.935   1.747   3.113
 2512WAT    EPW10770   6.883   1.776   3.062
 2513WAT      O10771   5.832   2.233   2.527
 2513WAT     H110772   5.759   2.232   2.574
 2513WAT     H210773   5.839   2.152   2.496
 2513WAT    EPW10774   5.823   2.221   2.530
 2514WAT      O10775   7.457   2.687   2.325
 2514WAT     H110776   7.515   2.696   2.389
 2514WAT     H210777   7.463   2.603   2.303
 2514WAT    EPW10778   7.466   2.676   2.331
 2515WAT      O10779   5.845   1.592   2.208
 2515WAT     H110780   5.779   1.639   2.175
 2515WAT     H210781   5.815   1.510   2.203
 2515WAT    EPW10782   5.830   1.587   2.202
 2516WAT      O10783   6.171   2.179   2.116
 2516WAT     H110784   6.136   2.139   2.047
 2516WAT     H210785   6.172   2.117   2.177
 2516WAT    EPW10786   6.166   2.164   2.115
 2517WAT      O10787   7.130   1.961   2.706
 2517WAT     H110788   7.138   1.952   2.620
 2517WAT     H210789   7.073   1.898   2.728
 2517WAT    EPW10790   7.123   1.950   2.697
 2518WAT      O10791   6.090   2.351   2.520
 2518WAT     H110792   6.141   2.313   2.579
 2518WAT     H210793   6.013   2.312   2.531
 2518WAT    EPW10794   6.086   2.340   2.530
 2519WAT      O10795   6.566   1.265   2.467
 2519WAT     H110796   6.559   1.334   2.413
 2519WAT     H210797   6.643   1.230   2.445
 2519WAT    EPW10798   6.576   1.270   2.456
 2520WAT      O10799   6.002   2.638   2.121
 2520WAT     H110800   6.047   2.643   2.046
 2520WAT     H210801   6.034   2.567   2.160
 2520WAT    EPW10802   6.013   2.628   2.116
 2521WAT      O10803   5.943   2.365   3.219
 2521WAT     H110804   5.964   2.409   3.291
 2521WAT     H210805   5.859   2.385   3.206
 2521WAT    EPW10806   5.934   2.375   3.228
 2522WAT      O10807   6.535   2.287   3.686
 2522WAT     H110808   6.516   2.278   3.770
 2522WAT     H210809   6.462   2.263   3.646
 2522WAT    EPW10810   6.522   2.282   3.692
 2523WAT      O10811   6.017   1.995   2.682
 2523WAT     H110812   5.978   1.990   2.603
 2523WAT     H210813   6.071   1.927   2.681
 2523WAT    EPW10814   6.019   1.984   2.670
 2524WAT      O10815   6.478   1.597   3.244
 2524WAT     H110816   6.547   1.598   3.190
 2524WAT     H210817   6.451   1.514   3.240
 2524WAT    EPW10818   6.484   1.585   3.235
 2525WAT      O10819   6.501   2.553   3.435
 2525WAT     H110820   6.484   2.632   3.401
 2525WAT     H210821   6.587   2.556   3.452
 2525WAT    EPW10822   6.511   2.565   3.433
 2526WAT      O10823   6.198   1.794   2.724
 2526WAT     H110824   6.270   1.748   2.741
 2526WAT     H210825   6.136   1.734   2.716
 2526WAT    EPW10826   6.200   1.778   2.726
 2527WAT      O10827   6.631   2.404   2.842
 2527WAT     H110828   6.658   2.323   2.861
 2527WAT     H210829   6.705   2.450   2.840
 2527WAT    EPW10830   6.646   2.399   2.845
 2528WAT      O10831   6.695   2.341   2.469
 2528WAT     H110832   6.722   2.274   2.518
 2528WAT     H210833   6.717   2.317   2.388
 2528WAT    EPW10834   6.703   2.328   2.464
 2529WAT      O10835   6.829   1.812   3.636
 2529WAT     H110836   6.744   1.807   3.622
 2529WAT     H210837   6.835   1.859   3.710
 2529WAT    EPW10838   6.818   1.818   3.645
 2530WAT      O10839   6.294   1.286   2.555
 2530WAT     H110840   6.256   1.344   2.501
 2530WAT     H210841   6.378   1.287   2.529
 2530WAT    EPW10842   6.301   1.295   2.543
 2531WAT      O10843   7.258   1.034   3.552
 2531WAT     H110844   7.245   1.107   3.507
 2531WAT     H210845   7.182   1.021   3.593
 2531WAT    EPW10846   7.245   1.043   3.551
 2532WAT      O10847   6.594   1.214   2.747
 2532WAT     H110848   6.603   1.297   2.772
 2532WAT     H210849   6.575   1.219   2.662
 2532WAT    EPW10850   6.593   1.227   2.738
 2533WAT      O10851   7.049   1.468   1.983
 2533WAT     H110852   7.004   1.533   2.019
 2533WAT     H210853   7.055   1.409   2.048
 2533WAT    EPW10854   7.043   1.469   1.998
 2534WAT      O10855   5.856   1.733   2.937
 2534WAT     H110856   5.838   1.818   2.934
 2534WAT     H210857   5.790   1.700   2.984
 2534WAT    EPW10858   5.843   1.740   2.944
 2535WAT      O10859   5.822   2.667   2.745
 2535WAT     H110860   5.762   2.721   2.711
 2535WAT     H210861   5.869   2.643   2.676
 2535WAT    EPW10862   5.820   2.671   2.730
 2536WAT      O10863   6.440   2.440   2.446
 2536WAT     H110864   6.413   2.447   2.529
 2536WAT     H210865   6.523   2.415   2.455
 2536WAT    EPW10866   6.449   2.438   2.460
 2537WAT      O10867   7.035   2.716   2.269
 2537WAT     H110868   7.098   2.776   2.271
 2537WAT     H210869   7.078   2.640   2.280
 2537WAT    EPW10870   7.050   2.713   2.271
 2538WAT      O10871   6.839   2.758   2.459
 2538WAT     H110872   6.863   2.832   2.499
 2538WAT     H210873   6.902   2.747   2.399
 2538WAT    EPW10874   6.852   2.768   2.456
 2539WAT      O10875   6.097   1.252   2.973
 2539WAT     H110876   6.080   1.177   2.932
 2539WAT     H210877   6.157   1.230   3.032
 2539WAT    EPW10878   6.104   1.238   2.976
 2540WAT      O10879   6.484   1.441   3.902
 2540WAT     H110880   6.486   1.404   3.823
 2540WAT     H210881   6.524   1.517   3.891
 2540WAT    EPW10882   6.490   1.447   3.889
 2541WAT      O10883   5.976   2.605   2.519
 2541WAT     H110884   6.029   2.538   2.536
 2541WAT     H210885   6.027   2.662   2.479
 2541WAT    EPW10886   5.991   2.603   2.516
 2542WAT      O10887   7.519   1.518   2.562
 2542WAT     H110888   7.477   1.560   2.626
 2542WAT     H210889   7.496   1.435   2.574
 2542WAT    EPW10890   7.509   1.512   2.573
 2543WAT      O10891   7.074   2.802   3.224
 2543WAT     H110892   7.136   2.860   3.202
 2543WAT     H210893   7.063   2.757   3.150
 2543WAT    EPW10894   7.082   2.804   3.210
 2544WAT      O10895   6.072   1.371   3.826
 2544WAT     H110896   5.992   1.341   3.807
 2544WAT     H210897   6.122   1.334   3.764
 2544WAT    EPW10898   6.068   1.361   3.814
 2545WAT      O10899   6.174   2.436   2.895
 2545WAT     H110900   6.230   2.438   2.828
 2545WAT     H210901   6.216   2.392   2.956
 2545WAT    EPW10902   6.188   2.430   2.894
 2546WAT      O10903   6.425   2.718   2.822
 2546WAT     H110904   6.501   2.753   2.798
 2546WAT     H210905   6.393   2.776   2.879
 2546WAT    EPW10906   6.432   2.731   2.827
 2547WAT      O10907   6.673   1.171   3.767
 2547WAT     H110908   6.688   1.099   3.721
 2547WAT     H210909   6.608   1.210   3.724
 2547WAT    EPW10910   6.666   1.166   3.754
 2548WAT      O10911   6.764   1.679   2.619
 2548WAT     H110912   6.794   1.638   2.548
 2548WAT     H210913   6.836   1.696   2.665
 2548WAT    EPW10914   6.779   1.676   2.615
 2549WAT      O10915   6.870   1.648   2.118
 2549WAT     H110916   6.893   1.728   2.145
 2549WAT     H210917   6.797   1.662   2.072
 2549WAT    EPW10918   6.863   1.662   2.115
 2550WAT      O10919   7.224   2.922   2.237
 2550WAT     H110920   7.270   2.885   2.172
 2550WAT     H210921   7.280   2.978   2.273
 2550WAT    EPW10922   7.239   2.925   2.232
 2551WAT      O10923   6.379   2.807   3.379
 2551WAT     H110924   6.386   2.808   3.466
 2551WAT     H210925   6.300   2.772   3.365
 2551WAT    EPW10926   6.369   2.802   3.390
 2552WAT      O10927   5.747   1.413   3.502
 2552WAT     H110928   5.729   1.460   3.573
 2552WAT     H210929   5.814   1.455   3.465
 2552WAT    EPW10930   5.754   1.426   3.507
 2553WAT      O10931   6.967   2.502   3.657
 2553WAT     H110932   6.962   2.536   3.737
 2553WAT     H210933   7.053   2.493   3.643
 2553WAT    EPW10934   6.979   2.506   3.666
 2554WAT      O10935   6.723   2.539   2.075
 2554WAT     H110936   6.692   2.596   2.133
 2554WAT     H210937   6.801   2.571   2.053
 2554WAT    EPW10938   6.730   2.552   2.081
 2555WAT      O10939   7.060   1.291   2.196
 2555WAT     H110940   7.113   1.222   2.198
 2555WAT     H210941   7.082   1.335   2.268
 2555WAT    EPW10942   7.071   1.287   2.207
 2556WAT      O10943   5.903   1.382   2.477
 2556WAT     H110944   5.879   1.300   2.458
 2556WAT     H210945   5.851   1.404   2.543
 2556WAT    EPW10946   5.892   1.373   2.484
 2557WAT      O10947   6.140   2.687   3.300
 2557WAT     H110948   6.099   2.621   3.338
 2557WAT     H210949   6.123   2.676   3.215
 2557WAT    EPW10950   6.132   2.676   3.293
 2558WAT      O10951   6.829   1.551   2.376
 2558WAT     H110952   6.759   1.502   2.359
 2558WAT     H210953   6.850   1.585   2.299
 2558WAT    EPW10954   6.822   1.549   2.362
 2559WAT      O10955   6.847   2.801   3.375
 2559WAT     H110956   6.924   2.800   3.334
 2559WAT     H210957   6.789   2.797   3.310
 2559WAT    EPW10958   6.850   2.800   3.359
 2560WAT      O10959   6.822   1.228   2.324
 2560WAT     H110960   6.766   1.208   2.260
 2560WAT     H210961   6.895   1.250   2.280
 2560WAT    EPW10962   6.824   1.228   2.308
 2561WAT      O10963   7.514   2.811   2.598
 2561WAT     H110964   7.498   2.897   2.603
 2561WAT     H210965   7.435   2.776   2.606
 2561WAT    EPW10966   7.500   2.819   2.600
 2562WAT      O10967   6.642   1.492   2.790
 2562WAT     H110968   6.672   1.556   2.738
 2562WAT     H210969   6.656   1.524   2.871
 2562WAT    EPW10970   6.649   1.506   2.795
 2563WAT      O10971   7.200   2.416   2.547
 2563WAT     H110972   7.270   2.365   2.557
 2563WAT     H210973   7.140   2.380   2.598
 2563WAT    EPW10974   7.201   2.403   2.556
 2564WAT      O10975   6.257   2.506   3.585
 2564WAT     H110976   6.332   2.537   3.552
 2564WAT     H210977   6.239   2.561   3.650
 2564WAT    EPW10978   6.266   2.519   3.590
 2565WAT      O10979   6.234   1.023   2.619
 2565WAT     H110980   6.253   1.106   2.599
 2565WAT     H210981   6.205   0.990   2.543
 2565WAT    EPW10982   6.233   1.030   2.605
 2566WAT      O10983   6.442   2.072   2.980
 2566WAT     H110984   6.463   2.055   3.063
 2566WAT     H210985   6.369   2.026   2.968
 2566WAT    EPW10986   6.435   2.063   2.991
 2567WAT      O10987   7.019   1.442   3.380
 2567WAT     H110988   7.012   1.480   3.458
 2567WAT     H210989   6.953   1.385   3.379
 2567WAT    EPW10990   7.008   1.439   3.391
 2568WAT      O10991   6.531   2.080   3.243
 2568WAT     H110992   6.532   2.166   3.253
 2568WAT     H210993   6.500   2.050   3.319
 2568WAT    EPW10994   6.527   2.088   3.256
 2569WAT      O10995   7.131   2.238   3.220
 2569WAT     H110996   7.072   2.189   3.262
 2569WAT     H210997   7.114   2.319   3.248
 2569WAT    EPW10998   7.120   2.242   3.230
 2570WAT      O10999   7.172   1.102   2.634
 2570WAT     H111000   7.171   1.080   2.719
 2570WAT     H211001   7.213   1.035   2.596
 2570WAT    EPW11002   7.178   1.089   2.641
 2571WAT      O11003   5.762   2.487   3.860
 2571WAT     H111004   5.822   2.534   3.903
 2571WAT     H211005   5.763   2.410   3.901
 2571WAT    EPW11006   5.771   2.483   3.873
 2572WAT      O11007   7.405   1.443   3.522
 2572WAT     H111008   7.430   1.521   3.490
 2572WAT     H211009   7.385   1.461   3.605
 2572WAT    EPW11010   7.406   1.457   3.530
 2573WAT      O11011   6.179   1.424   2.773
 2573WAT     H111012   6.211   1.372   2.711
 2573WAT     H211013   6.158   1.369   2.837
 2573WAT    EPW11014   6.181   1.408   2.774
 2574WAT      O11015   7.483   2.170   2.200
 2574WAT     H111016   7.464   2.123   2.270
 2574WAT     H211017   7.563   2.142   2.177
 2574WAT    EPW11018   7.492   2.159   2.207
 2575WAT      O11019   6.221   2.181   2.698
 2575WAT     H111020   6.276   2.157   2.634
 2575WAT     H211021   6.156   2.123   2.692
 2575WAT    EPW11022   6.220   2.169   2.687
 2576WAT      O11023   6.018   2.838   2.841
 2576WAT     H111024   5.952   2.791   2.809
 2576WAT     H211025   6.057   2.871   2.770
 2576WAT    EPW11026   6.014   2.836   2.825
 2577WAT      O11027   6.020   1.670   3.156
 2577WAT     H111028   6.100   1.659   3.124
 2577WAT     H211029   5.971   1.681   3.084
 2577WAT    EPW11030   6.024   1.670   3.141
 2578WAT      O11031   7.249   1.866   2.149
 2578WAT     H111032   7.246   1.948   2.118
 2578WAT     H211033   7.218   1.875   2.230
 2578WAT    EPW11034   7.244   1.880   2.156
 2579WAT      O11035   6.359   2.144   2.452
 2579WAT     H111036   6.383   2.226   2.437
 2579WAT     H211037   6.425   2.097   2.421
 2579WAT    EPW11038   6.372   2.149   2.445
 2580WAT      O11039   5.917   2.326   2.891
 2580WAT     H111040   5.871   2.392   2.925
 2580WAT     H211041   5.993   2.363   2.870
 2580WAT    EPW11042   5.921   2.341   2.893
 2581WAT      O11043   6.616   1.687   3.889
 2581WAT     H111044   6.564   1.723   3.949
 2581WAT     H211045   6.595   1.730   3.816
 2581WAT    EPW11046   6.605   1.699   3.887
 2582WAT      O11047   5.901   1.980   2.432
 2582WAT     H111048   5.886   1.894   2.436
 2582WAT     H211049   5.976   1.986   2.388
 2582WAT    EPW11050   5.910   1.968   2.426
 2583WAT      O11051   7.428   1.276   2.303
 2583WAT     H111052   7.500   1.249   2.262
 2583WAT     H211053   7.418   1.358   2.274
 2583WAT    EPW11054   7.437   1.285   2.293
 2584WAT      O11055   6.848   2.580   2.838
 2584WAT     H111056   6.801   2.652   2.822
 2584WAT     H211057   6.873   2.554   2.759
 2584WAT    EPW11058   6.844   2.587   2.824
 2585WAT      O11059   5.821   2.446   2.357
 2585WAT     H111060   5.872   2.502   2.400
 2585WAT     H211061   5.812   2.379   2.412
 2585WAT    EPW11062   5.827   2.444   2.371
 2586WAT      O11063   6.288   2.274   3.087
 2586WAT     H111064   6.341   2.309   3.147
 2586WAT     H211065   6.341   2.221   3.042
 2586WAT    EPW11066   6.304   2.271   3.089
 2587WAT      O11067   7.120   1.505   2.815
 2587WAT     H111068   7.151   1.463   2.885
 2587WAT     H211069   7.056   1.453   2.787
 2587WAT    EPW11070   7.115   1.491   2.821
 2588WAT      O11071   5.834   2.279   2.133
 2588WAT     H111072   5.909   2.234   2.128
 2588WAT     H211073   5.846   2.331   2.201
 2588WAT    EPW11074   5.847   2.280   2.142
 2589WAT      O11075   5.850   2.059   2.892
 2589WAT     H111076   5.896   2.029   2.824
 2589WAT     H211077   5.853   2.146   2.883
 2589WAT    EPW11078   5.857   2.067   2.881
 2590WAT      O11079   6.569   1.467   2.279
 2590WAT     H111080   6.560   1.438   2.197
 2590WAT     H211081   6.539   1.549   2.275
 2590WAT    EPW11082   6.564   1.475   2.266
 2591WAT      O11083   7.287   2.637   3.415
 2591WAT     H111084   7.282   2.715   3.453
 2591WAT     H211085   7.333   2.653   3.342
 2591WAT    EPW11086   7.293   2.651   3.410
 2592WAT      O11087   6.386   2.470   2.713
 2592WAT     H111088   6.389   2.553   2.739
 2592WAT     H211089   6.457   2.435   2.749
 2592WAT    EPW11090   6.397   2.477   2.722
 2593WAT      O11091   6.160   1.825   3.763
 2593WAT     H111092   6.118   1.771   3.817
 2593WAT     H211093   6.156   1.785   3.686
 2593WAT    EPW11094   6.153   1.811   3.760
 2594WAT      O11095   6.191   1.716   2.271
 2594WAT     H111096   6.175   1.649   2.325
 2594WAT     H211097   6.151   1.692   2.197
 2594WAT    EPW11098   6.183   1.703   2.268
 2595WAT      O11099   6.194   1.946   2.970
 2595WAT     H111100   6.186   1.920   2.886
 2595WAT     H211101   6.219   1.873   3.011
 2595WAT    EPW11102   6.196   1.931   2.963
 2596WAT      O11103   6.199   1.869   3.312
 2596WAT     H111104   6.232   1.823   3.245
 2596WAT     H211105   6.114   1.876   3.294
 2596WAT    EPW11106   6.192   1.864   3.299
 2597WAT      O11107   7.282   1.642   3.107
 2597WAT     H111108   7.211   1.662   3.154
 2597WAT     H211109   7.284   1.704   3.046
 2597WAT    EPW11110   7.271   1.654   3.105
 2598WAT      O11111   6.679   2.757   3.164
 2598WAT     H111112   6.636   2.692   3.125
 2598WAT     H211113   6.664   2.825   3.112
 2598WAT    EPW11114   6.670   2.758   3.151
 2599WAT      O11115   6.848   1.228   3.443
 2599WAT     H111116   6.869   1.146   3.422
 2599WAT     H211117   6.878   1.236   3.524
 2599WAT    EPW11118   6.855   1.217   3.452
 2600WAT      O11119   7.077   1.431   2.430
 2600WAT     H111120   7.131   1.498   2.445
 2600WAT     H211121   6.999   1.470   2.422
 2600WAT    EPW11122   7.073   1.447   2.431
 2601WAT      O11123   6.057   2.084   3.789
 2601WAT     H111124   6.030   2.114   3.712
 2601WAT     H211125   6.089   2.005   3.771
 2601WAT    EPW11126   6.058   2.077   3.775
 2602WAT      O11127   7.236   2.205   3.680
 2602WAT     H111128   7.239   2.291   3.666
 2602WAT     H211129   7.289   2.173   3.617
 2602WAT    EPW11130   7.244   2.213   3.669
 2603WAT      O11131   6.614   2.559   3.724
 2603WAT     H111132   6.643   2.549   3.806
 2603WAT     H211133   6.589   2.479   3.702
 2603WAT    EPW11134   6.615   2.546   3.733
 2604WAT      O11135   6.679   1.576   3.050
 2604WAT     H111136   6.744   1.634   3.055
 2604WAT     H211137   6.713   1.503   3.082
 2604WAT    EPW11138   6.694   1.574   3.056
 2605WAT      O11139   6.933   1.892   2.248
 2605WAT     H111140   6.911   1.945   2.182
 2605WAT     H211141   6.872   1.906   2.308
 2605WAT    EPW11142   6.921   1.902   2.247
 2606WAT      O11143   7.420   2.247   2.571
 2606WAT     H111144   7.461   2.232   2.646
 2606WAT     H211145   7.426   2.171   2.529
 2606WAT    EPW11146   7.427   2.234   2.576
 2607WAT      O11147   7.074   2.618   3.003
 2607WAT     H111148   7.002   2.595   2.959
 2607WAT     H211149   7.104   2.687   2.960
 2607WAT    EPW11150   7.068   2.624   2.990
 2608WAT      O11151   6.985   2.278   2.983
 2608WAT     H111152   6.915   2.313   3.023
 2608WAT     H211153   7.035   2.252   3.050
 2608WAT    EPW11154   6.982   2.280   2.999
 2609WAT      O11155   6.404   2.725   2.389
 2609WAT     H111156   6.413   2.649   2.430
 2609WAT     H211157   6.480   2.733   2.345
 2609WAT    EPW11158   6.417   2.715   2.388
 2610WAT      O11159   6.371   1.122   2.200
 2610WAT     H111160   6.372   1.110   2.286
 2610WAT     H211161   6.324   1.195   2.190
 2610WAT    EPW11162   6.364   1.131   2.211
 2611WAT      O11163   6.647   2.735   2.257
 2611WAT     H111164   6.706   2.743   2.320
 2611WAT     H211165   6.652   2.811   2.214
 2611WAT    EPW11166   6.657   2.747   2.260
 2612WAT      O11167   7.438   2.123   3.500
 2612WAT     H111168   7.424   2.049   3.455
 2612WAT     H211169   7.457   2.181   3.437
 2612WAT    EPW11170   7.439   2.120   3.484
 2613WAT      O11171   6.976   2.644   3.903
 2613WAT     H111172   6.998   2.667   3.984
 2613WAT     H211173   7.006   2.710   3.854
 2613WAT    EPW11174   6.984   2.657   3.907
 2614WAT      O11175   7.343   1.167   3.789
 2614WAT     H111176   7.328   1.123   3.715
 2614WAT     H211177   7.380   1.107   3.841
 2614WAT    EPW11178   7.347   1.151   3.786
 2615WAT      O11179   6.155   1.995   2.322
 2615WAT     H111180   6.177   1.911   2.315
 2615WAT     H211181   6.219   2.029   2.371
 2615WAT    EPW11182   6.168   1.987   2.328
 2616WAT      O11183   6.933   2.100   3.351
 2616WAT     H111184   6.883   2.140   3.410
 2616WAT     H211185   6.964   2.031   3.394
 2616WAT    EPW11186   6.930   2.096   3.366
 2617WAT      O11187   5.812   1.116   2.421
 2617WAT     H111188   5.813   1.062   2.353
 2617WAT     H211189   5.779   1.068   2.486
 2617WAT    EPW11190   5.807   1.101   2.421
 2618WAT      O11191   6.770   1.920   2.472
 2618WAT     H111192   6.784   1.986   2.527
 2618WAT     H211193   6.761   1.851   2.525
 2618WAT    EPW11194   6.771   1.919   2.488
 2619WAT      O11195   7.298   2.439   3.070
 2619WAT     H111196   7.235   2.477   3.023
 2619WAT     H211197   7.257   2.374   3.111
 2619WAT    EPW11198   7.282   2.435   3.069
 2620WAT      O11199   6.242   1.361   2.146
 2620WAT     H111200   6.180   1.356   2.084
 2620WAT     H211201   6.309   1.398   2.105
 2620WAT    EPW11202   6.242   1.366   2.130
 2621WAT      O11203   6.695   2.137   2.888
 2621WAT     H111204   6.614   2.110   2.906
 2621WAT     H211205   6.741   2.110   2.957
 2621WAT    EPW11206   6.690   2.129   2.901
 2622WAT      O11207   6.358   2.750   2.021
 2622WAT     H111208   6.380   2.680   2.068
 2622WAT     H211209   6.362   2.816   2.078
 2622WAT    EPW11210   6.362   2.750   2.036
 2623WAT      O11211   6.378   1.607   2.830
 2623WAT     H111212   6.457   1.571   2.814
 2623WAT     H211213   6.323   1.542   2.813
 2623WAT    EPW11214   6.382   1.592   2.825
 2624WAT      O11215   5.863   1.707   2.468
 2624WAT     H111216   5.898   1.668   2.537
 2624WAT     H211217   5.876   1.650   2.403
 2624WAT    EPW11218   5.870   1.693   2.469
 2625WAT      O11219   7.320   2.038   3.143
 2625WAT     H111220   7.331   1.986   3.212
 2625WAT     H211221   7.256   2.091   3.168
 2625WAT    EPW11222   7.312   2.038   3.157
 2626WAT      O11223   6.382   1.897   2.010
 2626WAT     H111224   6.371   1.841   2.076
 2626WAT     H211225   6.325   1.870   1.950
 2626WAT    EPW11226   6.372   1.885   2.011
 2627WAT      O11227   5.987   2.202   3.536
 2627WAT     H111228   5.973   2.158   3.462
 2627WAT     H211229   5.993   2.285   3.509
 2627WAT    EPW11230   5.986   2.208   3.521
 2628WAT      O11231   6.461   1.724   2.230
 2628WAT     H111232   6.486   1.796   2.273
 2628WAT     H211233   6.378   1.714   2.253
 2628WAT    EPW11234   6.452   1.733   2.240
 2629WAT      O11235   7.324   1.443   3.797
 2629WAT     H111236   7.242   1.459   3.822
 2629WAT     H211237   7.329   1.356   3.796
 2629WAT    EPW11238   7.312   1.433   3.801
 2630WAT      O11239   5.830   1.376   2.951
 2630WAT     H111240   5.812   1.385   2.866
 2630WAT     H211241   5.910   1.340   2.951
 2630WAT    EPW11242   5.839   1.372   2.939
 2631WAT      O11243   7.095   1.786   3.833
 2631WAT     H111244   7.141   1.796   3.907
 2631WAT     H211245   7.024   1.834   3.847
 2631WAT    EPW11246   7.092   1.795   3.846
 2632WAT      O11247   7.272   1.839   3.626
 2632WAT     H111248   7.343   1.869   3.668
 2632WAT     H211249   7.220   1.813   3.691
 2632WAT    EPW11250   7.275   1.840   3.642
 2633WAT      O11251   7.408   2.441   2.191
 2633WAT     H111252   7.432   2.359   2.204
 2633WAT     H211253   7.324   2.442   2.217
 2633WAT    EPW11254   7.399   2.429   2.197
 2634WAT      O11255   7.338   1.653   2.732
 2634WAT     H111256   7.276   1.600   2.763
 2634WAT     H211257   7.340   1.719   2.789
 2634WAT    EPW11258   7.329   1.655   2.745
 2635WAT      O11259   7.016   2.256   2.120
 2635WAT     H111260   7.090   2.209   2.116
 2635WAT     H211261   6.989   2.258   2.037
 2635WAT    EPW11262   7.023   2.250   2.107
 2636WAT      O11263   6.513   2.366   3.235
 2636WAT     H111264   6.504   2.414   3.307
 2636WAT     H211265   6.514   2.425   3.171
 2636WAT    EPW11266   6.512   2.382   3.236
 2637WAT      O11267   6.281   2.230   3.562
 2637WAT     H111268   6.198   2.205   3.569
 2637WAT     H211269   6.276   2.317   3.568
 2637WAT    EPW11270   6.268   2.239   3.564
 2638WAT      O11271   7.238   1.266   3.397
 2638WAT     H111272   7.296   1.318   3.434
 2638WAT     H211273   7.167   1.317   3.388
 2638WAT    EPW11274   7.236   1.281   3.401
 2639WAT      O11275   6.780   2.015   3.134
 2639WAT     H111276   6.834   2.048   3.194
 2639WAT     H211277   6.701   2.025   3.169
 2639WAT    EPW11278   6.776   2.021   3.148
 2640WAT      O11279   6.428   1.578   3.521
 2640WAT     H111280   6.446   1.497   3.549
 2640WAT     H211281   6.454   1.577   3.438
 2640WAT    EPW11282   6.435   1.566   3.513
 2641WAT      O11283   6.685   2.790   2.730
 2641WAT     H111284   6.686   2.877   2.737
 2641WAT     H211285   6.705   2.776   2.646
 2641WAT    EPW11286   6.688   2.801   2.719
 2642WAT      O11287   7.293   1.125   3.164
 2642WAT     H111288   7.287   1.164   3.241
 2642WAT     H211289   7.347   1.058   3.179
 2642WAT    EPW11290   7.300   1.121   3.177
 2643WAT      O11291   6.572   1.197   3.412
 2643WAT     H111292   6.658   1.211   3.408
 2643WAT     H211293   6.565   1.112   3.393
 2643WAT    EPW11294   6.584   1.186   3.409
 2644WAT      O11295   6.521   2.559   3.040
 2644WAT     H111296   6.471   2.613   2.993
 2644WAT     H211297   6.561   2.511   2.980
 2644WAT    EPW11298   6.519   2.560   3.024
 2645WAT      O11299   6.961   2.190   3.748
 2645WAT     H111300   7.041   2.192   3.714
 2645WAT     H211301   6.911   2.225   3.685
 2645WAT    EPW11302   6.965   2.195   3.733
 2646WAT      O11303   7.244   2.476   3.636
 2646WAT     H111304   7.292   2.512   3.699
 2646WAT     H211305   7.265   2.522   3.565
 2646WAT    EPW11306   7.254   2.488   3.635
 2647WAT      O11307   7.507   1.792   2.083
 2647WAT     H111308   7.519   1.840   2.012
 2647WAT     H211309   7.425   1.811   2.107
 2647WAT    EPW11310   7.497   1.802   2.076
 2648WAT      O11311   6.616   2.034   2.074
 2648WAT     H111312   6.544   1.998   2.039
 2648WAT     H211313   6.597   2.119   2.076
 2648WAT    EPW11314   6.603   2.041   2.069
 2649WAT      O11315   6.292   1.707   3.078
 2649WAT     H111316   6.317   1.677   3.000
 2649WAT     H211317   6.352   1.674   3.133
 2649WAT    EPW11318   6.304   1.698   3.075
 2650WAT      O11319   6.986   1.578   3.619
 2650WAT     H111320   6.931   1.646   3.628
 2650WAT     H211321   7.027   1.574   3.696
 2650WAT    EPW11322   6.984   1.588   3.631
 2651WAT      O11323   7.051   1.689   3.253
 2651WAT     H111324   7.050   1.745   3.320
 2651WAT     H211325   7.036   1.612   3.290
 2651WAT    EPW11326   7.049   1.686   3.268
 2652WAT      O11327   6.781   2.774   3.645
 2652WAT     H111328   6.788   2.775   3.558
 2652WAT     H211329   6.737   2.701   3.661
 2652WAT    EPW11330   6.775   2.764   3.634
 2653WAT      O11331   7.237   1.658   2.472
 2653WAT     H111332   7.262   1.656   2.556
 2653WAT     H211333   7.312   1.668   2.429
 2653WAT    EPW11334   7.252   1.660   2.478
 2654WAT      O11335   6.563   1.146   3.028
 2654WAT     H111336   6.478   1.146   3.049
 2654WAT     H211337   6.564   1.153   2.941
 2654WAT    EPW11338   6.551   1.147   3.018
 2655WAT      O11339   7.414   1.250   2.585
 2655WAT     H111340   7.332   1.226   2.604
 2655WAT     H211341   7.417   1.250   2.498
 2655WAT    EPW11342   7.403   1.246   2.575
 2656WAT      O11343   7.416   2.010   2.418
 2656WAT     H111344   7.454   1.932   2.416
 2656WAT     H211345   7.331   1.991   2.422
 2656WAT    EPW11346   7.409   1.996   2.418
 2657WAT      O11347   6.776   2.251   3.536
 2657WAT     H111348   6.702   2.250   3.582
 2657WAT     H211349   6.780   2.332   3.505
 2657WAT    EPW11350   6.766   2.263   3.539
 2658WAT      O11351   5.856   1.236   3.694
 2658WAT     H111352   5.836   1.290   3.629
 2658WAT     H211353   5.779   1.206   3.721
 2658WAT    EPW11354   5.842   1.240   3.688
 2659WAT      O11355   6.360   2.846   3.064
 2659WAT     H111356   6.363   2.824   3.149
 2659WAT     H211357   6.299   2.908   3.062
 2659WAT    EPW11358   6.352   2.852   3.077
 2660WAT      O11359   6.157   1.465   2.393
 2660WAT     H111360   6.170   1.429   2.314
 2660WAT     H211361   6.076   1.441   2.414
 2660WAT    EPW11362   6.147   1.456   2.384
 2661WAT      O11363   7.051   2.232   2.716
 2661WAT     H111364   7.031   2.253   2.798
 2661WAT     H211365   7.085   2.152   2.722
 2661WAT    EPW11366   7.053   2.223   2.729
 2662WAT      O11367   6.803   2.143   2.632
 2662WAT     H111368   6.764   2.136   2.710
 2662WAT     H211369   6.882   2.175   2.651
 2662WAT    EPW11370   6.809   2.147   2.646
 2663WAT      O11371   6.788   2.527   3.448
 2663WAT     H111372   6.844   2.524   3.515
 2663WAT     H211373   6.816   2.595   3.402
 2663WAT    EPW11374   6.800   2.537   3.451
 2664WAT      O11375   7.040   1.872   3.465
 2664WAT     H111376   6.974   1.850   3.518
 2664WAT     H211377   7.110   1.867   3.517
 2664WAT    EPW11378   7.040   1.868   3.481
 2665WAT      O11379   5.945   2.858   3.639
 2665WAT     H111380   5.900   2.784   3.632
 2665WAT     H211381   5.883   2.919   3.645
 2665WAT    EPW11382   5.929   2.856   3.639
 2666WAT      O11383   6.865   1.962   3.871
 2666WAT     H111384   6.895   2.035   3.834
 2666WAT     H211385   6.785   1.984   3.897
 2666WAT    EPW11386   6.858   1.976   3.869
 2667WAT      O11387   7.159   2.872   2.918
 2667WAT     H111388   7.094   2.925   2.941
 2667WAT     H211389   7.224   2.895   2.970
 2667WAT    EPW11390   7.159   2.883   2.929
 2668WAT      O11391   6.797   2.375   3.171
 2668WAT     H111392   6.716   2.369   3.202
 2668WAT     H211393   6.841   2.416   3.234
 2668WAT    EPW11394   6.792   2.380   3.185
 2669WAT      O11395   7.417   2.554   3.842
 2669WAT     H111396   7.499   2.537   3.817
 2669WAT     H211397   7.409   2.511   3.917
 2669WAT    EPW11398   7.428   2.545   3.850
 2670WAT      O11399   6.171   1.685   3.519
 2670WAT     H111400   6.182   1.745   3.457
 2670WAT     H211401   6.250   1.646   3.525
 2670WAT    EPW11402   6.185   1.688   3.511
 2671WAT      O11403   5.981   1.523   3.393
 2671WAT     H111404   5.985   1.560   3.314
 2671WAT     H211405   6.031   1.574   3.443
 2671WAT    EPW11406   5.989   1.536   3.388
 2672WAT      O11407   7.492   1.737   2.381
 2672WAT     H111408   7.524   1.724   2.301
 2672WAT     H211409   7.524   1.670   2.427
 2672WAT    EPW11410   7.501   1.725   2.376
 2673WAT      O11411   6.211   1.224   3.632
 2673WAT     H111412   6.181   1.142   3.637
 2673WAT     H211413   6.190   1.249   3.551
 2673WAT    EPW11414   6.204   1.216   3.621
 2674WAT      O11415   6.889   2.510   2.576
 2674WAT     H111416   6.877   2.587   2.536
 2674WAT     H211417   6.828   2.459   2.541
 2674WAT    EPW11418   6.878   2.514   2.565
 2675WAT      O11419   7.380   1.884   3.371
 2675WAT     H111420   7.425   1.814   3.346
 2675WAT     H211421   7.336   1.856   3.441
 2675WAT    EPW11422   7.380   1.869   3.377
 2676WAT      O11423   5.917   2.061   3.303
 2676WAT     H111424   5.849   2.107   3.274
 2676WAT     H211425   5.882   1.983   3.320
 2676WAT    EPW11426   5.902   2.056   3.301
 2677WAT      O11427   6.059   1.626   2.036
 2677WAT     H111428   5.986   1.623   2.084
 2677WAT     H211429   6.062   1.548   1.997
 2677WAT    EPW11430   6.049   1.614   2.037
 2678WAT      O11431   6.930   1.267   3.710
 2678WAT     H111432   6.960   1.339   3.749
 2678WAT     H211433   6.850   1.257   3.744
 2678WAT    EPW11434   6.923   1.276   3.720
 2679WAT      O11435   6.893   1.349   2.774
 2679WAT     H111436   6.814   1.387   2.774
 2679WAT     H211437   6.887   1.290   2.711
 2679WAT    EPW11438   6.880   1.346   2.765
 2680WAT      O11439   6.381   2.506   2.169
 2680WAT     H111440   6.420   2.503   2.247
 2680WAT     H211441   6.298   2.486   2.187
 2680WAT    EPW11442   6.374   2.503   2.183
 2681WAT      O11443   7.212   1.375   3.043
 2681WAT     H111444   7.261   1.313   3.078
 2681WAT     H211445   7.243   1.449   3.078
 2681WAT    EPW11446   7.224   1.377   3.053
 2682WAT      O11447   6.401   1.990   3.473
 2682WAT     H111448   6.367   2.063   3.505
 2682WAT     H211449   6.335   1.955   3.427
 2682WAT    EPW11450   6.386   1.996   3.471
 2683WAT      O11451   7.291   1.860   2.922
 2683WAT     H111452   7.305   1.921   2.983
 2683WAT     H211453   7.244   1.903   2.862
 2683WAT    EPW11454   7.286   1.876   2.922
 2684WAT      O11455   7.262   2.695   2.531
 2684WAT     H111456   7.239   2.611   2.544
 2684WAT     H211457   7.308   2.692   2.457
 2684WAT    EPW11458   7.265   2.682   2.522
 2685WAT      O11459   6.127   2.420   2.243
 2685WAT     H111460   6.122   2.399   2.328
 2685WAT     H211461   6.138   2.343   2.204
 2685WAT    EPW11462   6.128   2.405   2.250
 2686WAT      O11463   6.441   2.263   2.045
 2686WAT     H111464   6.363   2.226   2.060
 2686WAT     H211465   6.434   2.342   2.081
 2686WAT    EPW11466   6.428   2.269   2.052
 2687WAT      O11467   6.388   1.344   3.264
 2687WAT     H111468   6.311   1.320   3.296
 2687WAT     H211469   6.444   1.291   3.306
 2687WAT    EPW11470   6.385   1.333   3.275
 2688WAT      O11471   6.755   1.324   3.129
 2688WAT     H111472   6.692   1.269   3.104
 2688WAT     H211473   6.828   1.284   3.103
 2688WAT    EPW11474   6.757   1.310   3.121
 2689WAT      O11475   7.063   2.500   3.271
 2689WAT     H111476   7.115   2.552   3.318
 2689WAT     H211477   7.061   2.538   3.192
 2689WAT    EPW11478   7.070   2.513   3.266
 2690WAT      O11479   7.043   2.838   3.712
 2690WAT     H111480   6.966   2.810   3.681
 2690WAT     H211481   7.027   2.922   3.730
 2690WAT    EPW11482   7.029   2.847   3.710
 2691WAT      O11483   6.552   1.800   3.630
 2691WAT     H111484   6.514   1.729   3.596
 2691WAT     H211485   6.509   1.866   3.593
 2691WAT    EPW11486   6.540   1.799   3.619
 2692WAT      O11487   6.639   1.149   2.136
 2692WAT     H111488   6.649   1.160   2.050
 2692WAT     H211489   6.553   1.151   2.147
 2692WAT    EPW11490   6.628   1.151   2.125
 2693WAT      O11491   7.479   2.249   3.243
 2693WAT     H111492   7.444   2.182   3.200
 2693WAT     H211493   7.461   2.318   3.193
 2693WAT    EPW11494   7.471   2.249   3.230
 2694WAT      O11495   6.425   2.760   3.658
 2694WAT     H111496   6.403   2.781   3.739
 2694WAT     H211497   6.486   2.698   3.668
 2694WAT    EPW11498   6.431   2.754   3.671
 2695WAT      O11499   7.408   2.685   3.162
 2695WAT     H111500   7.490   2.681   3.132
 2695WAT     H211501   7.371   2.612   3.130
 2695WAT    EPW11502   7.414   2.674   3.153
 2696WAT      O11503   6.137   1.295   3.377
 2696WAT     H111504   6.081   1.231   3.358
 2696WAT     H211505   6.087   1.366   3.377
 2696WAT    EPW11506   6.121   1.296   3.374
 2697WAT      O11507   6.983   1.221   3.003
 2697WAT     H111508   7.048   1.275   3.028
 2697WAT     H211509   6.952   1.259   2.931
 2697WAT    EPW11510   6.988   1.235   2.996
 2698WAT      O11511   6.126   2.675   3.781
 2698WAT     H111512   6.192   2.711   3.825
 2698WAT     H211513   6.087   2.744   3.743
 2698WAT    EPW11514   6.130   2.691   3.782
 2699WAT      O11515   6.976   1.742   2.788
 2699WAT     H111516   7.026   1.671   2.799
 2699WAT     H211517   6.944   1.757   2.867
 2699WAT    EPW11518   6.978   1.734   2.801
 2700WAT      O11519   5.986   1.621   2.707
 2700WAT     H111520   5.940   1.639   2.779
 2700WAT     H211521   6.029   1.549   2.729
 2700WAT    EPW11522   5.985   1.613   2.721
 2701WAT      O11523   6.013   2.479   3.463
 2701WAT     H111524   5.954   2.524   3.509
 2701WAT     H211525   6.087   2.491   3.507
 2701WAT    EPW11526   6.015   2.487   3.476
 2702WAT      O11527   7.152   1.912   2.420
 2702WAT     H111528   7.167   1.827   2.438
 2702WAT     H211529   7.077   1.910   2.376
 2702WAT    EPW11530   7.143   1.899   2.416
 2703WAT      O11531   6.132   2.770   2.356
 2703WAT     H111532   6.111   2.747   2.274
 2703WAT     H211533   6.217   2.753   2.360
 2703WAT    EPW11534   6.141   2.764   2.344
 2704WAT      O11535   6.539   1.969   2.333
 2704WAT     H111536   6.570   1.998   2.256
 2704WAT     H211537   6.612   1.956   2.380
 2704WAT    EPW11538   6.554   1.971   2.328
 2705WAT      O11539   7.412   2.800   2.071
 2705WAT     H111540   7.438   2.771   2.149
 2705WAT     H211541   7.409   2.728   2.022
 2705WAT    EPW11542   7.415   2.785   2.075
 2706WAT      O11543   7.514   1.957   3.725
 2706WAT     H111544   7.588   1.927   3.690
 2706WAT     H211545   7.496   2.027   3.675
 2706WAT    EPW11546   7.522   1.963   3.712
 2707WAT      O11547   7.145   2.459   2.278
 2707WAT     H111548   7.147   2.435   2.361
 2707WAT     H211549   7.094   2.400   2.240
 2707WAT    EPW11550   7.138   2.447   2.284
 2708WAT      O11551   7.510   1.512   3.996
 2708WAT     H111552   7.520   1.598   3.983
 2708WAT     H211553   7.457   1.487   3.932
 2708WAT    EPW11554   7.504   1.521   3.985
 2709WAT      O11555   7.493   1.645   3.288
 2709WAT     H111556   7.431   1.636   3.228
 2709WAT     H211557   7.565   1.616   3.248
 2709WAT    EPW11558   7.495   1.640   3.273
 2710WAT      O11559   6.471   1.318   3.636
 2710WAT     H111560   6.504   1.282   3.564
 2710WAT     H211561   6.391   1.284   3.641
 2710WAT    EPW11562   6.464   1.308   3.626
 2711WAT      O11563   7.253   2.121   3.949
 2711WAT     H111564   7.331   2.146   3.981
 2711WAT     H211565   7.257   2.144   3.865
 2711WAT    EPW11566   7.265   2.128   3.941
 2712WAT      O11567   6.064   2.650   3.038
 2712WAT     H111568   6.105   2.589   2.990
 2712WAT     H211569   6.060   2.719   2.984
 2712WAT    EPW11570   6.070   2.651   3.023
 2713WAT      O11571   6.751   2.290   2.204
 2713WAT     H111572   6.834   2.272   2.186
 2713WAT     H211573   6.736   2.364   2.161
 2713WAT    EPW11574   6.761   2.298   2.195
 2714WAT      O11575   5.917   2.849   3.356
 2714WAT     H111576   5.938   2.862   3.440
 2714WAT     H211577   5.988   2.813   3.322
 2714WAT    EPW11578   5.931   2.846   3.364
 2715WAT      O11579   6.935   1.146   0.659
 2715WAT     H111580   6.954   1.181   0.581
 2715WAT     H211581   7.013   1.131   0.694
 2715WAT    EPW11582   6.949   1.149   0.652
 2716WAT      O11583   6.873   1.776   1.151
 2716WAT     H111584   6.841   1.853   1.177
 2716WAT     H211585   6.928   1.755   1.214
 2716WAT    EPW11586   6.876   1.785   1.164
 2717WAT      O11587   5.835   2.237   0.655
 2717WAT     H111588   5.768   2.234   0.711
 2717WAT     H211589   5.839   2.155   0.624
 2717WAT    EPW11590   5.826   2.224   0.659
 2718WAT      O11591   7.491   2.609   0.451
 2718WAT     H111592   7.560   2.565   0.483
 2718WAT     H211593   7.446   2.548   0.409
 2718WAT    EPW11594   7.495   2.593   0.450
 2719WAT      O11595   5.864   1.610   0.308
 2719WAT     H111596   5.809   1.669   0.275
 2719WAT     H211597   5.822   1.534   0.300
 2719WAT    EPW11598   5.850   1.607   0.302
 2720WAT      O11599   6.118   2.148   0.249
 2720WAT     H111600   6.103   2.109   0.172
 2720WAT     H211601   6.125   2.082   0.305
 2720WAT    EPW11602   6.117   2.133   0.246
 2721WAT      O11603   7.134   1.970   0.820
 2721WAT     H111604   7.150   1.958   0.736
 2721WAT     H211605   7.074   1.909   0.839
 2721WAT    EPW11606   7.128   1.960   0.811
 2722WAT      O11607   6.090   2.350   0.627
 2722WAT     H111608   6.144   2.318   0.688
 2722WAT     H211609   6.014   2.310   0.644
 2722WAT    EPW11610   6.087   2.339   0.639
 2723WAT      O11611   6.586   1.261   0.607
 2723WAT     H111612   6.584   1.342   0.575
 2723WAT     H211613   6.629   1.216   0.547
 2723WAT    EPW11614   6.592   1.267   0.594
 2724WAT      O11615   6.022   2.653   0.268
 2724WAT     H111616   6.054   2.657   0.187
 2724WAT     H211617   6.044   2.573   0.295
 2724WAT    EPW11618   6.030   2.642   0.260
 2725WAT      O11619   5.848   2.489   1.344
 2725WAT     H111620   5.886   2.459   1.417
 2725WAT     H211621   5.782   2.433   1.331
 2725WAT    EPW11622   5.844   2.476   1.353
 2726WAT      O11623   6.534   2.294   1.782
 2726WAT     H111624   6.512   2.279   1.865
 2726WAT     H211625   6.462   2.273   1.738
 2726WAT    EPW11626   6.520   2.289   1.788
 2727WAT      O11627   6.051   2.003   0.805
 2727WAT     H111628   6.002   2.002   0.733
 2727WAT     H211629   6.106   1.936   0.792
 2727WAT    EPW11630   6.052   1.993   0.792
 2728WAT      O11631   6.486   1.581   1.348
 2728WAT     H111632   6.553   1.583   1.293
 2728WAT     H211633   6.461   1.497   1.347
 2728WAT    EPW11634   6.492   1.569   1.340
 2729WAT      O11635   6.515   2.579   1.525
 2729WAT     H111636   6.527   2.643   1.466
 2729WAT     H211637   6.595   2.559   1.550
 2729WAT    EPW11638   6.528   2.586   1.520
 2730WAT      O11639   6.221   1.784   0.786
 2730WAT     H111640   6.288   1.733   0.807
 2730WAT     H211641   6.152   1.730   0.790
 2730WAT    EPW11642   6.221   1.769   0.790
 2731WAT      O11643   6.629   2.418   0.942
 2731WAT     H111644   6.650   2.336   0.962
 2731WAT     H211645   6.705   2.460   0.941
 2731WAT    EPW11646   6.643   2.412   0.945
 2732WAT      O11647   6.655   2.332   0.590
 2732WAT     H111648   6.697   2.275   0.640
 2732WAT     H211649   6.693   2.324   0.512
 2732WAT    EPW11650   6.667   2.323   0.586
 2733WAT      O11651   6.827   1.812   1.736
 2733WAT     H111652   6.741   1.807   1.721
 2733WAT     H211653   6.833   1.857   1.810
 2733WAT    EPW11654   6.815   1.818   1.744
 2734WAT      O11655   6.309   1.276   0.678
 2734WAT     H111656   6.267   1.322   0.617
 2734WAT     H211657   6.391   1.271   0.648
 2734WAT    EPW11658   6.315   1.282   0.665
 2735WAT      O11659   7.255   1.034   1.650
 2735WAT     H111660   7.242   1.107   1.605
 2735WAT     H211661   7.180   1.022   1.692
 2735WAT    EPW11662   7.242   1.043   1.650
 2736WAT      O11663   6.617   1.209   0.877
 2736WAT     H111664   6.623   1.292   0.904
 2736WAT     H211665   6.602   1.216   0.792
 2736WAT    EPW11666   6.616   1.222   0.868
 2737WAT      O11667   5.874   1.739   1.052
 2737WAT     H111668   5.872   1.825   1.060
 2737WAT     H211669   5.806   1.712   1.100
 2737WAT    EPW11670   5.863   1.747   1.061
 2738WAT      O11671   5.851   2.702   0.866
 2738WAT     H111672   5.787   2.747   0.827
 2738WAT     H211673   5.893   2.663   0.799
 2738WAT    EPW11674   5.848   2.703   0.850
 2739WAT      O11675   6.480   2.553   0.581
 2739WAT     H111676   6.434   2.538   0.653
 2739WAT     H211677   6.543   2.492   0.584
 2739WAT    EPW11678   6.483   2.542   0.592
 2740WAT      O11679   7.001   2.660   0.367
 2740WAT     H111680   7.068   2.717   0.368
 2740WAT     H211681   7.039   2.585   0.389
 2740WAT    EPW11682   7.017   2.657   0.370
 2741WAT      O11683   6.824   2.756   0.556
 2741WAT     H111684   6.858   2.831   0.586
 2741WAT     H211685   6.882   2.731   0.496
 2741WAT    EPW11686   6.838   2.763   0.551
 2742WAT      O11687   6.151   1.250   1.097
 2742WAT     H111688   6.106   1.183   1.061
 2742WAT     H211689   6.210   1.210   1.147
 2742WAT    EPW11690   6.153   1.234   1.099
 2743WAT      O11691   6.476   1.444   2.004
 2743WAT     H111692   6.477   1.407   1.925
 2743WAT     H211693   6.520   1.518   1.992
 2743WAT    EPW11694   6.483   1.449   1.991
 2744WAT      O11695   5.989   2.606   0.645
 2744WAT     H111696   6.037   2.534   0.654
 2744WAT     H211697   6.042   2.660   0.601
 2744WAT    EPW11698   6.004   2.604   0.639
 2745WAT      O11699   7.529   1.516   0.683
 2745WAT     H111700   7.484   1.555   0.746
 2745WAT     H211701   7.506   1.432   0.690
 2745WAT    EPW11702   7.519   1.510   0.693
 2746WAT      O11703   7.062   2.808   1.308
 2746WAT     H111704   7.126   2.865   1.292
 2746WAT     H211705   7.063   2.757   1.238
 2746WAT    EPW11706   7.072   2.809   1.295
 2747WAT      O11707   6.054   1.362   1.936
 2747WAT     H111708   5.973   1.336   1.918
 2747WAT     H211709   6.102   1.330   1.870
 2747WAT    EPW11710   6.049   1.354   1.924
 2748WAT      O11711   6.129   2.427   1.014
 2748WAT     H111712   6.174   2.400   0.944
 2748WAT     H211713   6.160   2.377   1.079
 2748WAT    EPW11714   6.141   2.416   1.013
 2749WAT      O11715   6.430   2.747   0.920
 2749WAT     H111716   6.510   2.761   0.888
 2749WAT     H211717   6.378   2.792   0.867
 2749WAT    EPW11718   6.434   2.755   0.908
 2750WAT      O11719   6.671   1.176   1.865
 2750WAT     H111720   6.686   1.104   1.819
 2750WAT     H211721   6.604   1.213   1.824
 2750WAT    EPW11722   6.663   1.171   1.852
 2751WAT      O11723   6.757   1.703   0.717
 2751WAT     H111724   6.789   1.657   0.650
 2751WAT     H211725   6.827   1.720   0.765
 2751WAT    EPW11726   6.772   1.699   0.714
 2752WAT      O11727   6.879   1.710   0.262
 2752WAT     H111728   6.900   1.788   0.295
 2752WAT     H211729   6.813   1.727   0.209
 2752WAT    EPW11730   6.873   1.724   0.259
 2753WAT      O11731   7.204   2.839   0.414
 2753WAT     H111732   7.276   2.842   0.364
 2753WAT     H211733   7.233   2.805   0.489
 2753WAT    EPW11734   7.219   2.834   0.418
 2754WAT      O11735   6.286   2.825   1.500
 2754WAT     H111736   6.323   2.807   1.576
 2754WAT     H211737   6.225   2.764   1.490
 2754WAT    EPW11738   6.282   2.814   1.510
 2755WAT      O11739   5.779   1.470   1.655
 2755WAT     H111740   5.774   1.544   1.701
 2755WAT     H211741   5.836   1.489   1.592
 2755WAT    EPW11742   5.787   1.484   1.653
 2756WAT      O11743   6.968   2.508   1.770
 2756WAT     H111744   6.965   2.545   1.849
 2756WAT     H211745   7.054   2.499   1.755
 2756WAT    EPW11746   6.980   2.512   1.779
 2757WAT      O11747   6.789   2.572   0.207
 2757WAT     H111748   6.730   2.634   0.222
 2757WAT     H211749   6.863   2.605   0.237
 2757WAT    EPW11750   6.791   2.586   0.213
 2758WAT      O11751   7.016   1.211   0.402
 2758WAT     H111752   7.082   1.155   0.398
 2758WAT     H211753   7.054   1.286   0.427
 2758WAT    EPW11754   7.031   1.214   0.405
 2759WAT      O11755   5.882   1.391   0.575
 2759WAT     H111756   5.856   1.311   0.553
 2759WAT     H211757   5.837   1.408   0.647
 2759WAT    EPW11758   5.872   1.381   0.582
 2760WAT      O11759   6.054   2.688   1.370
 2760WAT     H111760   5.992   2.628   1.363
 2760WAT     H211761   6.095   2.684   1.293
 2760WAT    EPW11762   6.051   2.679   1.357
 2761WAT      O11763   6.830   1.561   0.488
 2761WAT     H111764   6.753   1.524   0.469
 2761WAT     H211765   6.850   1.605   0.416
 2761WAT    EPW11766   6.821   1.562   0.475
 2762WAT      O11767   6.843   2.783   1.466
 2762WAT     H111768   6.915   2.788   1.417
 2762WAT     H211769   6.778   2.780   1.407
 2762WAT    EPW11770   6.844   2.783   1.450
 2763WAT      O11771   6.740   1.204   0.368
 2763WAT     H111772   6.714   1.276   0.327
 2763WAT     H211773   6.827   1.210   0.367
 2763WAT    EPW11774   6.749   1.215   0.362
 2764WAT      O11775   7.459   2.833   0.858
 2764WAT     H111776   7.467   2.910   0.818
 2764WAT     H211777   7.424   2.782   0.796
 2764WAT    EPW11778   7.455   2.837   0.843
 2765WAT      O11779   6.654   1.499   0.885
 2765WAT     H111780   6.678   1.566   0.834
 2765WAT     H211781   6.666   1.529   0.966
 2765WAT    EPW11782   6.659   1.513   0.889
 2766WAT      O11783   7.209   2.432   0.682
 2766WAT     H111784   7.282   2.385   0.682
 2766WAT     H211785   7.155   2.385   0.732
 2766WAT    EPW11786   7.211   2.418   0.689
 2767WAT      O11787   6.252   2.524   1.640
 2767WAT     H111788   6.329   2.556   1.614
 2767WAT     H211789   6.237   2.565   1.716
 2767WAT    EPW11790   6.261   2.535   1.647
 2768WAT      O11791   6.237   1.018   0.746
 2768WAT     H111792   6.261   1.099   0.726
 2768WAT     H211793   6.203   0.988   0.671
 2768WAT    EPW11794   6.236   1.026   0.732
 2769WAT      O11795   6.434   2.105   1.085
 2769WAT     H111796   6.458   2.085   1.167
 2769WAT     H211797   6.378   2.041   1.064
 2769WAT    EPW11798   6.429   2.093   1.094
 2770WAT      O11799   7.015   1.444   1.477
 2770WAT     H111800   7.007   1.481   1.556
 2770WAT     H211801   6.948   1.388   1.474
 2770WAT    EPW11802   7.004   1.441   1.488
 2771WAT      O11803   6.534   2.101   1.343
 2771WAT     H111804   6.519   2.186   1.352
 2771WAT     H211805   6.503   2.067   1.417
 2771WAT    EPW11806   6.527   2.108   1.356
 2772WAT      O11807   7.130   2.236   1.318
 2772WAT     H111808   7.072   2.188   1.363
 2772WAT     H211809   7.116   2.317   1.346
 2772WAT    EPW11810   7.120   2.241   1.329
 2773WAT      O11811   7.187   1.099   0.757
 2773WAT     H111812   7.185   1.077   0.841
 2773WAT     H211813   7.233   1.035   0.720
 2773WAT    EPW11814   7.194   1.086   0.764
 2774WAT      O11815   5.792   2.512   1.978
 2774WAT     H111816   5.852   2.555   2.025
 2774WAT     H211817   5.798   2.430   2.007
 2774WAT    EPW11818   5.802   2.507   1.989
 2775WAT      O11819   7.403   1.443   1.619
 2775WAT     H111820   7.430   1.519   1.586
 2775WAT     H211821   7.384   1.462   1.702
 2775WAT    EPW11822   7.404   1.457   1.626
 2776WAT      O11823   6.180   1.419   0.884
 2776WAT     H111824   6.213   1.366   0.823
 2776WAT     H211825   6.172   1.367   0.954
 2776WAT    EPW11826   6.184   1.404   0.885
 2777WAT      O11827   7.391   2.156   0.310
 2777WAT     H111828   7.422   2.126   0.386
 2777WAT     H211829   7.358   2.084   0.272
 2777WAT    EPW11830   7.390   2.141   0.316
 2778WAT      O11831   6.222   2.221   0.831
 2778WAT     H111832   6.294   2.199   0.787
 2778WAT     H211833   6.173   2.149   0.829
 2778WAT    EPW11834   6.226   2.207   0.824
 2779WAT      O11835   6.063   2.854   0.950
 2779WAT     H111836   5.991   2.814   0.922
 2779WAT     H211837   6.114   2.857   0.880
 2779WAT    EPW11838   6.060   2.849   0.936
 2780WAT      O11839   6.035   1.564   1.195
 2780WAT     H111840   6.118   1.586   1.182
 2780WAT     H211841   5.990   1.624   1.151
 2780WAT    EPW11842   6.041   1.576   1.187
 2781WAT      O11843   7.272   1.899   0.268
 2781WAT     H111844   7.200   1.876   0.223
 2781WAT     H211845   7.243   1.907   0.350
 2781WAT    EPW11846   7.257   1.897   0.273
 2782WAT      O11847   6.431   2.162   0.657
 2782WAT     H111848   6.489   2.221   0.628
 2782WAT     H211849   6.439   2.096   0.600
 2782WAT    EPW11850   6.441   2.161   0.644
 2783WAT      O11851   5.871   2.317   1.009
 2783WAT     H111852   5.817   2.383   1.025
 2783WAT     H211853   5.949   2.355   1.003
 2783WAT    EPW11854   5.874   2.332   1.011
 2784WAT      O11855   6.616   1.686   1.988
 2784WAT     H111856   6.567   1.721   2.051
 2784WAT     H211857   6.593   1.730   1.916
 2784WAT    EPW11858   6.606   1.698   1.987
 2785WAT      O11859   5.913   1.979   0.568
 2785WAT     H111860   5.890   1.895   0.574
 2785WAT     H211861   5.987   1.977   0.521
 2785WAT    EPW11862   5.921   1.966   0.562
 2786WAT      O11863   7.436   1.230   0.421
 2786WAT     H111864   7.445   1.168   0.361
 2786WAT     H211865   7.420   1.302   0.374
 2786WAT    EPW11866   7.435   1.231   0.405
 2787WAT      O11867   6.859   2.575   0.925
 2787WAT     H111868   6.813   2.647   0.909
 2787WAT     H211869   6.879   2.545   0.845
 2787WAT    EPW11870   6.855   2.581   0.911
 2788WAT      O11871   5.820   2.451   0.485
 2788WAT     H111872   5.871   2.507   0.528
 2788WAT     H211873   5.813   2.384   0.540
 2788WAT    EPW11874   5.827   2.450   0.499
 2789WAT      O11875   6.245   2.267   1.207
 2789WAT     H111876   6.299   2.306   1.262
 2789WAT     H211877   6.298   2.222   1.154
 2789WAT    EPW11878   6.260   2.266   1.207
 2790WAT      O11879   7.112   1.518   0.918
 2790WAT     H111880   7.142   1.473   0.986
 2790WAT     H211881   7.053   1.464   0.882
 2790WAT    EPW11882   7.108   1.503   0.923
 2791WAT      O11883   5.841   2.245   0.292
 2791WAT     H111884   5.923   2.217   0.282
 2791WAT     H211885   5.849   2.317   0.340
 2791WAT    EPW11886   5.854   2.251   0.297
 2792WAT      O11887   5.899   2.043   1.034
 2792WAT     H111888   5.949   2.025   0.965
 2792WAT     H211889   5.889   2.129   1.031
 2792WAT    EPW11890   5.905   2.053   1.023
 2793WAT      O11891   6.572   1.468   0.417
 2793WAT     H111892   6.519   1.405   0.388
 2793WAT     H211893   6.527   1.542   0.402
 2793WAT    EPW11894   6.558   1.470   0.410
 2794WAT      O11895   7.273   2.636   1.504
 2794WAT     H111896   7.264   2.713   1.544
 2794WAT     H211897   7.322   2.655   1.434
 2794WAT    EPW11898   7.279   2.650   1.499
 2795WAT      O11899   6.373   2.495   0.826
 2795WAT     H111900   6.382   2.574   0.861
 2795WAT     H211901   6.441   2.450   0.858
 2795WAT    EPW11902   6.384   2.500   0.836
 2796WAT      O11903   6.165   1.809   1.851
 2796WAT     H111904   6.126   1.749   1.901
 2796WAT     H211905   6.161   1.774   1.771
 2796WAT    EPW11906   6.159   1.795   1.846
 2797WAT      O11907   6.134   1.670   0.374
 2797WAT     H111908   6.143   1.607   0.434
 2797WAT     H211909   6.053   1.659   0.344
 2797WAT    EPW11910   6.124   1.659   0.379
 2798WAT      O11911   6.251   1.906   1.038
 2798WAT     H111912   6.242   1.878   0.956
 2798WAT     H211913   6.265   1.833   1.083
 2798WAT    EPW11914   6.252   1.891   1.033
 2799WAT      O11915   6.227   1.873   1.384
 2799WAT     H111916   6.252   1.822   1.318
 2799WAT     H211917   6.174   1.931   1.346
 2799WAT    EPW11918   6.223   1.874   1.369
 2800WAT      O11919   7.278   1.641   1.211
 2800WAT     H111920   7.207   1.661   1.256
 2800WAT     H211921   7.283   1.704   1.151
 2800WAT    EPW11922   7.268   1.653   1.209
 2801WAT      O11923   6.613   2.753   1.317
 2801WAT     H111924   6.592   2.691   1.258
 2801WAT     H211925   6.599   2.827   1.273
 2801WAT    EPW11926   6.608   2.755   1.302
 2802WAT      O11927   6.846   1.227   1.547
 2802WAT     H111928   6.871   1.147   1.524
 2802WAT     H211929   6.880   1.237   1.627
 2802WAT    EPW11930   6.855   1.217   1.555
 2803WAT      O11931   7.088   1.449   0.516
 2803WAT     H111932   7.142   1.515   0.536
 2803WAT     H211933   7.009   1.488   0.514
 2803WAT    EPW11934   7.084   1.465   0.519
 2804WAT      O11935   6.040   2.047   1.913
 2804WAT     H111936   6.034   2.094   1.840
 2804WAT     H211937   6.085   1.976   1.889
 2804WAT    EPW11938   6.046   2.044   1.899
 2805WAT      O11939   7.235   2.208   1.782
 2805WAT     H111940   7.238   2.293   1.768
 2805WAT     H211941   7.288   2.175   1.722
 2805WAT    EPW11942   7.243   2.215   1.771
 2806WAT      O11943   6.610   2.564   1.822
 2806WAT     H111944   6.638   2.557   1.904
 2806WAT     H211945   6.587   2.483   1.801
 2806WAT    EPW11946   6.611   2.551   1.831
 2807WAT      O11947   6.681   1.575   1.149
 2807WAT     H111948   6.743   1.637   1.155
 2807WAT     H211949   6.720   1.504   1.180
 2807WAT    EPW11950   6.696   1.574   1.154
 2808WAT      O11951   6.946   1.945   0.391
 2808WAT     H111952   6.956   2.022   0.352
 2808WAT     H211953   6.875   1.956   0.441
 2808WAT    EPW11954   6.937   1.958   0.393
 2809WAT      O11955   7.442   2.281   0.683
 2809WAT     H111956   7.485   2.270   0.758
 2809WAT     H211957   7.447   2.203   0.644
 2809WAT    EPW11958   7.449   2.268   0.688
 2810WAT      O11959   7.080   2.609   1.100
 2810WAT     H111960   7.010   2.586   1.053
 2810WAT     H211961   7.110   2.679   1.058
 2810WAT    EPW11962   7.074   2.616   1.087
 2811WAT      O11963   6.984   2.286   1.084
 2811WAT     H111964   6.915   2.324   1.121
 2811WAT     H211965   7.030   2.255   1.151
 2811WAT    EPW11966   6.981   2.287   1.099
 2812WAT      O11967   6.422   2.799   0.450
 2812WAT     H111968   6.438   2.730   0.502
 2812WAT     H211969   6.491   2.800   0.396
 2812WAT    EPW11970   6.435   2.789   0.450
 2813WAT      O11971   6.407   1.254   0.346
 2813WAT     H111972   6.392   1.174   0.377
 2813WAT     H211973   6.334   1.275   0.304
 2813WAT    EPW11974   6.394   1.245   0.344
 2814WAT      O11975   6.666   2.798   0.326
 2814WAT     H111976   6.705   2.777   0.401
 2814WAT     H211977   6.685   2.883   0.316
 2814WAT    EPW11978   6.674   2.808   0.336
 2815WAT      O11979   7.437   2.122   1.605
 2815WAT     H111980   7.424   2.048   1.561
 2815WAT     H211981   7.458   2.180   1.543
 2815WAT    EPW11982   7.438   2.119   1.589
 2816WAT      O11983   6.965   2.659   2.007
 2816WAT     H111984   6.991   2.680   2.088
 2816WAT     H211985   6.990   2.727   1.959
 2816WAT    EPW11986   6.972   2.672   2.012
 2817WAT      O11987   7.343   1.167   1.887
 2817WAT     H111988   7.328   1.123   1.813
 2817WAT     H211989   7.380   1.107   1.939
 2817WAT    EPW11990   7.346   1.151   1.884
 2818WAT      O11991   6.158   1.944   0.433
 2818WAT     H111992   6.150   1.859   0.418
 2818WAT     H211993   6.236   1.951   0.472
 2818WAT    EPW11994   6.168   1.932   0.437
 2819WAT      O11995   6.933   2.101   1.454
 2819WAT     H111996   6.883   2.139   1.514
 2819WAT     H211997   6.965   2.031   1.495
 2819WAT    EPW11998   6.931   2.097   1.469
 2820WAT      O11999   5.788   1.132   0.504
 2820WAT     H112000   5.792   1.072   0.441
 2820WAT     H212001   5.764   1.086   0.574
 2820WAT    EPW12002   5.785   1.116   0.505
 2821WAT      O12003   6.727   1.943   0.566
 2821WAT     H112004   6.746   2.006   0.624
 2821WAT     H212005   6.728   1.870   0.614
 2821WAT    EPW12006   6.730   1.941   0.582
 2822WAT      O12007   7.298   2.431   1.166
 2822WAT     H112008   7.233   2.469   1.121
 2822WAT     H212009   7.260   2.361   1.200
 2822WAT    EPW12010   7.283   2.426   1.164
 2823WAT      O12011   6.174   1.371   0.235
 2823WAT     H112012   6.118   1.343   0.173
 2823WAT     H212013   6.191   1.453   0.211
 2823WAT    EPW12014   6.168   1.379   0.222
 2824WAT      O12015   6.689   2.150   0.991
 2824WAT     H112016   6.606   2.129   1.010
 2824WAT     H212017   6.733   2.120   1.060
 2824WAT    EPW12018   6.683   2.142   1.004
 2825WAT      O12019   6.060   2.066   1.268
 2825WAT     H112020   6.113   2.133   1.251
 2825WAT     H212021   6.020   2.052   1.192
 2825WAT    EPW12022   6.062   2.074   1.254
 2826WAT      O12023   6.387   1.597   0.917
 2826WAT     H112024   6.464   1.560   0.902
 2826WAT     H212025   6.330   1.532   0.904
 2826WAT    EPW12026   6.390   1.582   0.913
 2827WAT      O12027   5.864   1.704   0.589
 2827WAT     H112028   5.899   1.670   0.661
 2827WAT     H212029   5.873   1.640   0.530
 2827WAT    EPW12030   5.870   1.690   0.591
 2828WAT      O12031   7.325   2.040   1.248
 2828WAT     H112032   7.336   1.987   1.317
 2828WAT     H212033   7.258   2.091   1.272
 2828WAT    EPW12034   7.317   2.039   1.262
 2829WAT      O12035   6.024   2.187   1.676
 2829WAT     H112036   5.982   2.139   1.616
 2829WAT     H212037   6.001   2.269   1.657
 2829WAT    EPW12038   6.014   2.192   1.664
 2830WAT      O12039   6.421   1.696   0.364
 2830WAT     H112040   6.436   1.776   0.395
 2830WAT     H212041   6.334   1.692   0.359
 2830WAT    EPW12042   6.410   1.708   0.368
 2831WAT      O12043   7.323   1.443   1.896
 2831WAT     H112044   7.241   1.458   1.920
 2831WAT     H212045   7.328   1.356   1.893
 2831WAT    EPW12046   7.312   1.433   1.899
 2832WAT      O12047   5.843   1.345   1.048
 2832WAT     H112048   5.824   1.379   0.970
 2832WAT     H212049   5.921   1.379   1.067
 2832WAT    EPW12050   5.852   1.355   1.039
 2833WAT      O12051   7.094   1.784   1.933
 2833WAT     H112052   7.140   1.794   2.006
 2833WAT     H212053   7.022   1.832   1.947
 2833WAT    EPW12054   7.090   1.793   1.946
 2834WAT      O12055   7.272   1.838   1.728
 2834WAT     H112056   7.343   1.867   1.770
 2834WAT     H212057   7.220   1.812   1.792
 2834WAT    EPW12058   7.275   1.839   1.744
 2835WAT      O12059   7.334   2.429   0.317
 2835WAT     H112060   7.360   2.346   0.307
 2835WAT     H212061   7.253   2.421   0.349
 2835WAT    EPW12062   7.326   2.415   0.320
 2836WAT      O12063   7.342   1.650   0.847
 2836WAT     H112064   7.275   1.602   0.875
 2836WAT     H212065   7.344   1.718   0.902
 2836WAT    EPW12066   7.332   1.653   0.859
 2837WAT      O12067   7.018   2.183   0.262
 2837WAT     H112068   7.061   2.239   0.314
 2837WAT     H212069   7.059   2.192   0.185
 2837WAT    EPW12070   7.031   2.193   0.258
 2838WAT      O12071   6.477   2.378   1.337
 2838WAT     H112072   6.478   2.432   1.405
 2838WAT     H212073   6.482   2.431   1.268
 2838WAT    EPW12074   6.478   2.394   1.337
 2839WAT      O12075   6.294   2.245   1.641
 2839WAT     H112076   6.213   2.217   1.656
 2839WAT     H212077   6.285   2.331   1.633
 2839WAT    EPW12078   6.281   2.254   1.642
 2840WAT      O12079   7.233   1.267   1.495
 2840WAT     H112080   7.292   1.320   1.532
 2840WAT     H212081   7.163   1.318   1.486
 2840WAT    EPW12082   7.231   1.283   1.499
 2841WAT      O12083   6.778   2.026   1.235
 2841WAT     H112084   6.833   2.054   1.297
 2841WAT     H212085   6.699   2.040   1.269
 2841WAT    EPW12086   6.775   2.032   1.249
 2842WAT      O12087   6.417   1.583   1.620
 2842WAT     H112088   6.432   1.503   1.651
 2842WAT     H212089   6.448   1.579   1.538
 2842WAT    EPW12090   6.424   1.571   1.612
 2843WAT      O12091   6.695   2.787   0.830
 2843WAT     H112092   6.694   2.872   0.850
 2843WAT     H212093   6.713   2.786   0.745
 2843WAT    EPW12094   6.698   2.800   0.821
 2844WAT      O12095   7.296   1.130   1.263
 2844WAT     H112096   7.285   1.171   1.339
 2844WAT     H212097   7.357   1.070   1.281
 2844WAT    EPW12098   7.304   1.127   1.277
 2845WAT      O12099   6.572   1.188   1.536
 2845WAT     H112100   6.658   1.204   1.530
 2845WAT     H212101   6.568   1.101   1.536
 2845WAT    EPW12102   6.584   1.177   1.536
 2846WAT      O12103   6.506   2.569   1.137
 2846WAT     H112104   6.458   2.624   1.089
 2846WAT     H212105   6.549   2.522   1.078
 2846WAT    EPW12106   6.505   2.570   1.121
 2847WAT      O12107   6.961   2.187   1.851
 2847WAT     H112108   7.041   2.190   1.817
 2847WAT     H212109   6.910   2.219   1.788
 2847WAT    EPW12110   6.965   2.192   1.837
 2848WAT      O12111   7.243   2.479   1.734
 2848WAT     H112112   7.296   2.514   1.795
 2848WAT     H212113   7.263   2.524   1.662
 2848WAT    EPW12114   7.254   2.491   1.732
 2849WAT      O12115   7.497   1.731   0.246
 2849WAT     H112116   7.551   1.772   0.191
 2849WAT     H212117   7.425   1.781   0.245
 2849WAT    EPW12118   7.494   1.745   0.237
 2850WAT      O12119   6.298   1.669   1.171
 2850WAT     H112120   6.330   1.641   1.095
 2850WAT     H212121   6.356   1.640   1.230
 2850WAT    EPW12122   6.311   1.660   1.169
 2851WAT      O12123   6.984   1.578   1.717
 2851WAT     H112124   6.928   1.645   1.727
 2851WAT     H212125   7.025   1.575   1.794
 2851WAT    EPW12126   6.982   1.588   1.730
 2852WAT      O12127   7.046   1.692   1.352
 2852WAT     H112128   7.047   1.747   1.421
 2852WAT     H212129   7.030   1.614   1.388
 2852WAT    EPW12130   7.044   1.689   1.367
 2853WAT      O12131   6.756   2.789   1.730
 2853WAT     H112132   6.778   2.776   1.647
 2853WAT     H212133   6.721   2.713   1.754
 2853WAT    EPW12134   6.754   2.776   1.722
 2854WAT      O12135   7.250   1.668   0.585
 2854WAT     H112136   7.267   1.659   0.670
 2854WAT     H212137   7.329   1.681   0.550
 2854WAT    EPW12138   7.264   1.668   0.593
 2855WAT      O12139   6.583   1.140   1.153
 2855WAT     H112140   6.498   1.135   1.170
 2855WAT     H212141   6.586   1.146   1.066
 2855WAT    EPW12142   6.571   1.140   1.142
 2856WAT      O12143   7.427   1.247   0.700
 2856WAT     H112144   7.345   1.227   0.719
 2856WAT     H212145   7.432   1.236   0.614
 2856WAT    EPW12146   7.416   1.243   0.690
 2857WAT      O12147   7.438   2.028   0.558
 2857WAT     H112148   7.481   1.953   0.557
 2857WAT     H212149   7.354   2.004   0.562
 2857WAT    EPW12150   7.432   2.014   0.558
 2858WAT      O12151   6.778   2.247   1.642
 2858WAT     H112152   6.702   2.247   1.685
 2858WAT     H212153   6.784   2.329   1.611
 2858WAT    EPW12154   6.768   2.259   1.644
 2859WAT      O12155   5.813   1.250   1.823
 2859WAT     H112156   5.809   1.320   1.770
 2859WAT     H212157   5.729   1.228   1.834
 2859WAT    EPW12158   5.800   1.257   1.817
 2860WAT      O12159   6.301   2.910   1.230
 2860WAT     H112160   6.300   2.892   1.315
 2860WAT     H212161   6.279   2.834   1.193
 2860WAT    EPW12162   6.298   2.896   1.237
 2861WAT      O12163   6.148   1.427   0.510
 2861WAT     H112164   6.148   1.396   0.428
 2861WAT     H212165   6.066   1.415   0.537
 2861WAT    EPW12166   6.136   1.421   0.502
 2862WAT      O12167   7.051   2.239   0.820
 2862WAT     H112168   7.030   2.259   0.902
 2862WAT     H212169   7.085   2.159   0.826
 2862WAT    EPW12170   7.053   2.230   0.833
 2863WAT      O12171   6.800   2.151   0.738
 2863WAT     H112172   6.762   2.144   0.817
 2863WAT     H212173   6.879   2.181   0.756
 2863WAT    EPW12174   6.806   2.154   0.752
 2864WAT      O12175   6.793   2.519   1.559
 2864WAT     H112176   6.845   2.518   1.629
 2864WAT     H212177   6.825   2.583   1.510
 2864WAT    EPW12178   6.805   2.528   1.563
 2865WAT      O12179   7.040   1.873   1.567
 2865WAT     H112180   6.974   1.850   1.619
 2865WAT     H212181   7.110   1.866   1.618
 2865WAT    EPW12182   7.040   1.869   1.582
 2866WAT      O12183   5.985   2.861   1.744
 2866WAT     H112184   5.929   2.795   1.737
 2866WAT     H212185   5.935   2.928   1.770
 2866WAT    EPW12186   5.969   2.861   1.747
 2867WAT      O12187   6.864   1.959   1.973
 2867WAT     H112188   6.895   2.032   1.936
 2867WAT     H212189   6.783   1.981   1.998
 2867WAT    EPW12190   6.857   1.973   1.971
 2868WAT      O12191   7.154   2.865   1.018
 2868WAT     H112192   7.093   2.922   1.042
 2868WAT     H212193   7.225   2.892   1.062
 2868WAT    EPW12194   7.156   2.877   1.028
 2869WAT      O12195   6.800   2.402   1.262
 2869WAT     H112196   6.728   2.386   1.308
 2869WAT     H212197   6.857   2.429   1.323
 2869WAT    EPW12198   6.798   2.403   1.278
 2870WAT      O12199   7.422   2.555   1.938
 2870WAT     H112200   7.505   2.540   1.915
 2870WAT     H212201   7.414   2.512   2.014
 2870WAT    EPW12202   7.433   2.546   1.946
 2871WAT      O12203   6.164   1.697   1.591
 2871WAT     H112204   6.180   1.757   1.530
 2871WAT     H212205   6.241   1.656   1.599
 2871WAT    EPW12206   6.178   1.700   1.583
 2872WAT      O12207   5.971   1.541   1.462
 2872WAT     H112208   5.988   1.546   1.376
 2872WAT     H212209   6.031   1.593   1.498
 2872WAT    EPW12210   5.982   1.549   1.454
 2873WAT      O12211   7.509   1.750   0.522
 2873WAT     H112212   7.522   1.731   0.438
 2873WAT     H212213   7.539   1.679   0.564
 2873WAT    EPW12214   7.515   1.737   0.516
 2874WAT      O12215   6.195   1.235   1.735
 2874WAT     H112216   6.163   1.154   1.736
 2874WAT     H212217   6.177   1.263   1.655
 2874WAT    EPW12218   6.188   1.227   1.723
 2875WAT      O12219   6.871   2.500   0.658
 2875WAT     H112220   6.851   2.580   0.627
 2875WAT     H212221   6.799   2.454   0.642
 2875WAT    EPW12222   6.858   2.505   0.651
 2876WAT      O12223   7.382   1.883   1.474
 2876WAT     H112224   7.427   1.813   1.448
 2876WAT     H212225   7.338   1.855   1.544
 2876WAT    EPW12226   7.382   1.868   1.480
 2877WAT      O12227   5.884   2.051   1.481
 2877WAT     H112228   5.934   2.062   1.410
 2877WAT     H212229   5.862   1.966   1.477
 2877WAT    EPW12230   5.888   2.040   1.470
 2878WAT      O12231   6.931   1.267   1.812
 2878WAT     H112232   6.961   1.339   1.851
 2878WAT     H212233   6.850   1.259   1.844
 2878WAT    EPW12234   6.924   1.277   1.823
 2879WAT      O12235   6.902   1.351   0.848
 2879WAT     H112236   6.822   1.387   0.847
 2879WAT     H212237   6.899   1.293   0.783
 2879WAT    EPW12238   6.890   1.348   0.838
 2880WAT      O12239   6.403   2.431   0.340
 2880WAT     H112240   6.428   2.474   0.411
 2880WAT     H212241   6.316   2.435   0.342
 2880WAT    EPW12242   6.394   2.438   0.351
 2881WAT      O12243   7.210   1.378   1.138
 2881WAT     H112244   7.260   1.315   1.172
 2881WAT     H212245   7.240   1.451   1.174
 2881WAT    EPW12246   7.221   1.379   1.148
 2882WAT      O12247   6.408   1.994   1.567
 2882WAT     H112248   6.369   2.069   1.592
 2882WAT     H212249   6.348   1.958   1.514
 2882WAT    EPW12250   6.393   2.000   1.563
 2883WAT      O12251   7.293   1.862   1.030
 2883WAT     H112252   7.309   1.922   1.091
 2883WAT     H212253   7.247   1.905   0.970
 2883WAT    EPW12254   7.289   1.877   1.030
 2884WAT      O12255   7.307   2.697   0.641
 2884WAT     H112256   7.268   2.622   0.665
 2884WAT     H212257   7.372   2.671   0.589
 2884WAT    EPW12258   7.311   2.682   0.637
 2885WAT      O12259   6.126   2.409   0.357
 2885WAT     H112260   6.118   2.390   0.442
 2885WAT     H212261   6.125   2.330   0.319
 2885WAT    EPW12262   6.125   2.394   0.364
 2886WAT      O12263   6.412   2.159   0.279
 2886WAT     H112264   6.328   2.157   0.256
 2886WAT     H212265   6.428   2.243   0.296
 2886WAT    EPW12266   6.402   2.171   0.278
 2887WAT      O12267   6.391   1.329   1.376
 2887WAT     H112268   6.310   1.312   1.403
 2887WAT     H212269   6.440   1.273   1.420
 2887WAT    EPW12270   6.387   1.318   1.386
 2888WAT      O12271   6.772   1.330   1.231
 2888WAT     H112272   6.708   1.272   1.219
 2888WAT     H212273   6.842   1.291   1.195
 2888WAT    EPW12274   6.773   1.316   1.224
 2889WAT      O12275   7.059   2.499   1.368
 2889WAT     H112276   7.115   2.546   1.416
 2889WAT     H212277   7.065   2.536   1.289
 2889WAT    EPW12278   7.068   2.512   1.363
 2890WAT      O12279   7.016   2.851   1.811
 2890WAT     H112280   6.938   2.823   1.781
 2890WAT     H212281   7.003   2.936   1.826
 2890WAT    EPW12282   7.002   2.859   1.809
 2891WAT      O12283   6.548   1.802   1.730
 2891WAT     H112284   6.509   1.732   1.696
 2891WAT     H212285   6.509   1.869   1.691
 2891WAT    EPW12286   6.537   1.801   1.719
 2892WAT      O12287   7.481   2.250   1.352
 2892WAT     H112288   7.447   2.184   1.307
 2892WAT     H212289   7.467   2.320   1.301
 2892WAT    EPW12290   7.474   2.251   1.338
 2893WAT      O12291   6.422   2.773   1.745
 2893WAT     H112292   6.409   2.782   1.831
 2893WAT     H212293   6.481   2.709   1.741
 2893WAT    EPW12294   6.429   2.765   1.757
 2894WAT      O12295   7.396   2.687   1.245
 2894WAT     H112296   7.461   2.702   1.189
 2894WAT     H212297   7.366   2.608   1.221
 2894WAT    EPW12298   7.401   2.677   1.233
 2895WAT      O12299   6.129   1.309   1.480
 2895WAT     H112300   6.076   1.243   1.458
 2895WAT     H212301   6.079   1.380   1.469
 2895WAT    EPW12302   6.114   1.310   1.475
 2896WAT      O12303   6.983   1.225   1.084
 2896WAT     H112304   7.048   1.278   1.108
 2896WAT     H212305   6.955   1.261   1.009
 2896WAT    EPW12306   6.989   1.238   1.076
 2897WAT      O12307   6.140   2.661   1.878
 2897WAT     H112308   6.211   2.695   1.917
 2897WAT     H212309   6.103   2.730   1.839
 2897WAT    EPW12310   6.145   2.676   1.878
 2898WAT      O12311   6.969   1.756   0.890
 2898WAT     H112312   7.017   1.684   0.900
 2898WAT     H212313   6.936   1.770   0.969
 2898WAT    EPW12314   6.971   1.747   0.903
 2899WAT      O12315   5.998   1.626   0.821
 2899WAT     H112316   5.955   1.651   0.894
 2899WAT     H212317   6.039   1.553   0.846
 2899WAT    EPW12318   5.997   1.619   0.836
 2900WAT      O12319   5.981   2.449   1.588
 2900WAT     H112320   5.935   2.507   1.634
 2900WAT     H212321   6.062   2.481   1.590
 2900WAT    EPW12322   5.986   2.462   1.595
 2901WAT      O12323   7.176   1.925   0.541
 2901WAT     H112324   7.188   1.840   0.555
 2901WAT     H212325   7.097   1.929   0.504
 2901WAT    EPW12326   7.166   1.913   0.538
 2902WAT      O12327   6.151   2.771   0.488
 2902WAT     H112328   6.110   2.748   0.414
 2902WAT     H212329   6.234   2.778   0.464
 2902WAT    EPW12330   6.157   2.769   0.473
 2903WAT      O12331   6.463   1.958   0.464
 2903WAT     H112332   6.463   2.018   0.400
 2903WAT     H212333   6.547   1.955   0.487
 2903WAT    EPW12334   6.476   1.967   0.458
 2904WAT      O12335   7.445   2.824   0.275
 2904WAT     H112336   7.475   2.761   0.327
 2904WAT     H212337   7.441   2.786   0.197
 2904WAT    EPW12338   7.449   2.809   0.271
 2905WAT      O12339   7.516   1.955   1.827
 2905WAT     H112340   7.591   1.926   1.793
 2905WAT     H212341   7.496   2.024   1.778
 2905WAT    EPW12342   7.524   1.961   1.815
 2906WAT      O12343   7.078   2.401   0.440
 2906WAT     H112344   7.112   2.408   0.520
 2906WAT     H212345   6.993   2.394   0.455
 2906WAT    EPW12346   7.071   2.401   0.454
 2907WAT      O12347   7.491   1.508   2.111
 2907WAT     H112348   7.507   1.593   2.095
 2907WAT     H212349   7.444   1.483   2.042
 2907WAT    EPW12350   7.486   1.517   2.098
 2908WAT      O12351   7.492   1.644   1.389
 2908WAT     H112352   7.429   1.634   1.330
 2908WAT     H212353   7.564   1.617   1.347
 2908WAT    EPW12354   7.493   1.638   1.374
 2909WAT      O12355   6.458   1.325   1.743
 2909WAT     H112356   6.493   1.287   1.672
 2909WAT     H212357   6.377   1.292   1.745
 2909WAT    EPW12358   6.451   1.314   1.733
 2910WAT      O12359   7.251   2.123   2.052
 2910WAT     H112360   7.329   2.147   2.084
 2910WAT     H212361   7.255   2.146   1.968
 2910WAT    EPW12362   7.263   2.130   2.044
 2911WAT      O12363   6.180   2.677   1.123
 2911WAT     H112364   6.172   2.598   1.087
 2911WAT     H212365   6.142   2.730   1.066
 2911WAT    EPW12366   6.173   2.673   1.110
 2912WAT      O12367   6.804   2.341   0.359
 2912WAT     H112368   6.849   2.287   0.309
 2912WAT     H212369   6.787   2.409   0.307
 2912WAT    EPW12370   6.808   2.343   0.344
 2913WAT      O12371   5.949   2.925   1.472
 2913WAT     H112372   5.966   2.905   1.555
 2913WAT     H212373   5.980   2.856   1.428
 2913WAT    EPW12374   5.956   2.912   1.478
 2914WAT      O12375   5.841   0.397   6.403
 2914WAT     H112376   5.854   0.443   6.476
 2914WAT     H212377   5.796   0.328   6.430
 2914WAT    EPW12378   5.836   0.394   6.417
 2915WAT      O12379   7.493   0.845   6.118
 2915WAT     H112380   7.572   0.824   6.149
 2915WAT     H212381   7.462   0.769   6.088
 2915WAT    EPW12382   7.500   0.831   6.118
 2916WAT      O12383   6.130   0.343   5.867
 2916WAT     H112384   6.094   0.336   5.788
 2916WAT     H212385   6.138   0.261   5.894
 2916WAT    EPW12386   6.126   0.330   5.860
 2917WAT      O12387   6.098   0.472   6.297
 2917WAT     H112388   6.163   0.424   6.330
 2917WAT     H212389   6.026   0.431   6.325
 2917WAT    EPW12390   6.097   0.459   6.306
 2918WAT      O12391   5.965   0.757   5.900
 2918WAT     H112392   6.016   0.774   5.831
 2918WAT     H212393   6.013   0.701   5.947
 2918WAT    EPW12394   5.980   0.751   5.897
 2919WAT      O12395   5.877   0.680   7.057
 2919WAT     H112396   5.902   0.659   7.138
 2919WAT     H212397   5.815   0.621   7.039
 2919WAT    EPW12398   5.872   0.668   7.067
 2920WAT      O12399   6.521   0.453   7.458
 2920WAT     H112400   6.513   0.407   7.531
 2920WAT     H212401   6.450   0.430   7.412
 2920WAT    EPW12402   6.509   0.443   7.462
 2921WAT      O12403   6.489   0.713   7.228
 2921WAT     H112404   6.467   0.792   7.199
 2921WAT     H212405   6.575   0.719   7.242
 2921WAT    EPW12406   6.498   0.725   7.226
 2922WAT      O12407   6.636   0.559   6.649
 2922WAT     H112408   6.656   0.478   6.676
 2922WAT     H212409   6.714   0.598   6.643
 2922WAT    EPW12410   6.651   0.553   6.652
 2923WAT      O12411   6.731   0.518   6.281
 2923WAT     H112412   6.735   0.446   6.329
 2923WAT     H212413   6.748   0.490   6.200
 2923WAT    EPW12414   6.734   0.503   6.276
 2924WAT      O12415   5.864   0.856   6.562
 2924WAT     H112416   5.800   0.901   6.523
 2924WAT     H212417   5.904   0.815   6.497
 2924WAT    EPW12418   5.860   0.856   6.547
 2925WAT      O12419   6.478   0.627   6.249
 2925WAT     H112420   6.443   0.606   6.325
 2925WAT     H212421   6.559   0.594   6.254
 2925WAT    EPW12422   6.485   0.619   6.261
 2926WAT      O12423   7.039   0.879   6.054
 2926WAT     H112424   7.105   0.935   6.056
 2926WAT     H212425   7.076   0.801   6.067
 2926WAT    EPW12426   7.054   0.876   6.056
 2927WAT      O12427   6.852   0.912   6.250
 2927WAT     H112428   6.872   0.987   6.290
 2927WAT     H212429   6.912   0.905   6.187
 2927WAT    EPW12430   6.864   0.922   6.247
 2928WAT      O12431   6.006   0.737   6.345
 2928WAT     H112432   6.052   0.663   6.347
 2928WAT     H212433   6.055   0.790   6.295
 2928WAT    EPW12434   6.020   0.734   6.338
 2929WAT      O12435   7.083   0.956   7.018
 2929WAT     H112436   7.147   1.012   6.998
 2929WAT     H212437   7.076   0.907   6.946
 2929WAT    EPW12438   7.091   0.957   7.004
 2930WAT      O12439   6.166   0.595   6.671
 2930WAT     H112440   6.235   0.587   6.618
 2930WAT     H212441   6.185   0.541   6.737
 2930WAT    EPW12442   6.179   0.586   6.673
 2931WAT      O12443   6.422   0.860   6.563
 2931WAT     H112444   6.501   0.887   6.538
 2931WAT     H212445   6.368   0.919   6.526
 2931WAT    EPW12446   6.426   0.873   6.554
 2932WAT      O12447   7.236   1.077   6.033
 2932WAT     H112448   7.284   1.044   5.968
 2932WAT     H212449   7.291   1.131   6.074
 2932WAT    EPW12450   7.251   1.080   6.030
 2933WAT      O12451   6.346   0.943   7.163
 2933WAT     H112452   6.352   0.964   7.247
 2933WAT     H212453   6.264   0.914   7.155
 2933WAT    EPW12454   6.334   0.942   7.174
 2934WAT      O12455   6.952   0.722   7.469
 2934WAT     H112456   6.938   0.647   7.511
 2934WAT     H212457   7.038   0.721   7.452
 2934WAT    EPW12458   6.962   0.711   7.473
 2935WAT      O12459   6.734   0.691   5.864
 2935WAT     H112460   6.703   0.750   5.920
 2935WAT     H212461   6.810   0.723   5.838
 2935WAT    EPW12462   6.740   0.704   5.868
 2936WAT      O12463   6.092   0.858   7.062
 2936WAT     H112464   6.027   0.800   7.063
 2936WAT     H212465   6.125   0.850   6.981
 2936WAT    EPW12466   6.087   0.848   7.050
 2937WAT      O12467   6.849   0.950   7.157
 2937WAT     H112468   6.926   0.950   7.117
 2937WAT     H212469   6.792   0.952   7.092
 2937WAT    EPW12470   6.852   0.950   7.142
 2938WAT      O12471   7.451   1.006   6.570
 2938WAT     H112472   7.465   1.083   6.531
 2938WAT     H212473   7.418   0.957   6.506
 2938WAT    EPW12474   7.448   1.011   6.555
 2939WAT      O12475   7.217   0.626   6.368
 2939WAT     H112476   7.241   0.546   6.391
 2939WAT     H212477   7.133   0.630   6.391
 2939WAT    EPW12478   7.208   0.615   6.375
 2940WAT      O12479   6.242   0.654   7.355
 2940WAT     H112480   6.318   0.679   7.319
 2940WAT     H212481   6.230   0.710   7.420
 2940WAT    EPW12482   6.252   0.666   7.359
 2941WAT      O12483   6.403   0.222   6.825
 2941WAT     H112484   6.424   0.225   6.910
 2941WAT     H212485   6.365   0.145   6.816
 2941WAT    EPW12486   6.401   0.211   6.836
 2942WAT      O12487   6.470   0.304   7.088
 2942WAT     H112488   6.466   0.387   7.061
 2942WAT     H212489   6.417   0.303   7.158
 2942WAT    EPW12490   6.461   0.316   7.095
 2943WAT      O12491   7.123   0.381   7.062
 2943WAT     H112492   7.061   0.333   7.097
 2943WAT     H212493   7.096   0.463   7.075
 2943WAT    EPW12494   7.110   0.386   7.069
 2944WAT      O12495   7.488   0.369   6.008
 2944WAT     H112496   7.460   0.308   6.064
 2944WAT     H212497   7.485   0.329   5.931
 2944WAT    EPW12498   7.484   0.354   6.005
 2945WAT      O12499   6.099   0.146   6.526
 2945WAT     H112500   6.166   0.187   6.488
 2945WAT     H212501   6.091   0.072   6.480
 2945WAT    EPW12502   6.107   0.141   6.514
 2946WAT      O12503   6.063   1.022   6.653
 2946WAT     H112504   5.991   0.982   6.625
 2946WAT     H212505   6.112   1.028   6.581
 2946WAT    EPW12506   6.060   1.017   6.638
 2947WAT      O12507   6.302   0.328   6.418
 2947WAT     H112508   6.338   0.397   6.458
 2947WAT     H212509   6.368   0.292   6.375
 2947WAT    EPW12510   6.317   0.333   6.418
 2948WAT      O12511   5.900   0.521   6.642
 2948WAT     H112512   5.852   0.579   6.686
 2948WAT     H212513   5.981   0.555   6.646
 2948WAT    EPW12514   5.905   0.535   6.649
 2949WAT      O12515   6.853   0.732   6.618
 2949WAT     H112516   6.804   0.801   6.596
 2949WAT     H212517   6.889   0.708   6.542
 2949WAT    EPW12518   6.851   0.739   6.604
 2950WAT      O12519   5.811   0.594   6.208
 2950WAT     H112520   5.871   0.646   6.243
 2950WAT     H212521   5.804   0.529   6.266
 2950WAT    EPW12522   5.819   0.592   6.222
 2951WAT      O12523   6.227   0.433   6.881
 2951WAT     H112524   6.284   0.481   6.928
 2951WAT     H212525   6.276   0.366   6.854
 2951WAT    EPW12526   6.243   0.430   6.884
 2952WAT      O12527   5.835   0.444   5.973
 2952WAT     H112528   5.919   0.426   5.958
 2952WAT     H212529   5.837   0.497   6.042
 2952WAT    EPW12530   5.847   0.449   5.981
 2953WAT      O12531   5.918   0.253   6.710
 2953WAT     H112532   5.976   0.216   6.657
 2953WAT     H212533   5.922   0.338   6.690
 2953WAT    EPW12534   5.927   0.260   6.699
 2954WAT      O12535   7.303   0.807   7.197
 2954WAT     H112536   7.302   0.890   7.224
 2954WAT     H212537   7.338   0.812   7.117
 2954WAT    EPW12538   7.308   0.820   7.189
 2955WAT      O12539   6.398   0.590   6.514
 2955WAT     H112540   6.395   0.677   6.522
 2955WAT     H212541   6.473   0.568   6.552
 2955WAT    EPW12542   6.408   0.599   6.521
 2956WAT      O12543   6.643   0.949   6.978
 2956WAT     H112544   6.608   0.880   6.937
 2956WAT     H212545   6.638   1.013   6.918
 2956WAT    EPW12546   6.637   0.948   6.963
 2957WAT      O12547   7.187   0.419   7.453
 2957WAT     H112548   7.207   0.504   7.452
 2957WAT     H212549   7.236   0.385   7.389
 2957WAT    EPW12550   7.197   0.426   7.444
 2958WAT      O12551   6.587   0.736   7.521
 2958WAT     H112552   6.611   0.722   7.604
 2958WAT     H212553   6.564   0.657   7.492
 2958WAT    EPW12554   6.587   0.722   7.529
 2959WAT      O12555   7.302   0.362   6.420
 2959WAT     H112556   7.368   0.357   6.477
 2959WAT     H212557   7.330   0.315   6.352
 2959WAT    EPW12558   7.316   0.354   6.418
 2960WAT      O12559   7.063   0.773   6.802
 2960WAT     H112560   6.993   0.754   6.754
 2960WAT     H212561   7.101   0.838   6.757
 2960WAT    EPW12562   7.058   0.780   6.788
 2961WAT      O12563   7.060   0.424   6.779
 2961WAT     H112564   6.988   0.468   6.803
 2961WAT     H212565   7.082   0.381   6.851
 2961WAT    EPW12566   7.052   0.424   6.793
 2962WAT      O12567   6.446   0.897   6.204
 2962WAT     H112568   6.455   0.816   6.235
 2962WAT     H212569   6.509   0.904   6.145
 2962WAT    EPW12570   6.456   0.886   6.200
 2963WAT      O12571   6.666   0.893   6.040
 2963WAT     H112572   6.724   0.902   6.104
 2963WAT     H212573   6.668   0.970   5.999
 2963WAT    EPW12574   6.675   0.906   6.043
 2964WAT      O12575   7.337   0.316   7.235
 2964WAT     H112576   7.269   0.323   7.180
 2964WAT     H212577   7.404   0.347   7.188
 2964WAT    EPW12578   7.337   0.322   7.220
 2965WAT      O12579   6.919   0.239   7.188
 2965WAT     H112580   6.872   0.294   7.235
 2965WAT     H212581   6.938   0.174   7.244
 2965WAT    EPW12582   6.915   0.237   7.203
 2966WAT      O12583   7.308   0.545   6.887
 2966WAT     H112584   7.252   0.539   6.821
 2966WAT     H212585   7.265   0.509   6.954
 2966WAT    EPW12586   7.294   0.539   6.888
 2967WAT      O12587   6.656   0.286   6.709
 2967WAT     H112588   6.574   0.263   6.728
 2967WAT     H212589   6.698   0.276   6.785
 2967WAT    EPW12590   6.650   0.281   6.723
 2968WAT      O12591   6.344   0.908   5.833
 2968WAT     H112592   6.369   0.838   5.878
 2968WAT     H212593   6.353   0.974   5.890
 2968WAT    EPW12594   6.349   0.907   5.848
 2969WAT      O12595   5.977   0.343   6.969
 2969WAT     H112596   6.053   0.380   6.949
 2969WAT     H212597   5.960   0.292   6.900
 2969WAT    EPW12598   5.986   0.341   6.956
 2970WAT      O12599   5.995   0.344   7.252
 2970WAT     H112600   5.992   0.341   7.165
 2970WAT     H212601   5.981   0.428   7.270
 2970WAT    EPW12602   5.992   0.356   7.241
 2971WAT      O12603   7.386   0.622   6.000
 2971WAT     H112604   7.417   0.541   6.008
 2971WAT     H212605   7.303   0.615   6.027
 2971WAT    EPW12606   7.378   0.609   6.005
 2972WAT      O12607   7.033   0.407   5.923
 2972WAT     H112608   7.087   0.339   5.925
 2972WAT     H212609   7.012   0.414   5.838
 2972WAT    EPW12610   7.038   0.398   5.911
 2973WAT      O12611   6.439   0.565   7.003
 2973WAT     H112612   6.451   0.609   7.077
 2973WAT     H212613   6.465   0.621   6.941
 2973WAT    EPW12614   6.444   0.580   7.005
 2974WAT      O12615   6.285   0.382   7.305
 2974WAT     H112616   6.207   0.344   7.297
 2974WAT     H212617   6.265   0.466   7.317
 2974WAT    EPW12618   6.271   0.389   7.306
 2975WAT      O12619   6.732   0.282   6.984
 2975WAT     H112620   6.790   0.252   7.041
 2975WAT     H212621   6.657   0.281   7.028
 2975WAT    EPW12622   6.729   0.277   6.999
 2976WAT      O12623   6.686   0.932   6.500
 2976WAT     H112624   6.688   1.018   6.513
 2976WAT     H212625   6.715   0.923   6.418
 2976WAT    EPW12626   6.690   0.943   6.490
 2977WAT      O12627   6.522   0.750   6.815
 2977WAT     H112628   6.476   0.794   6.755
 2977WAT     H212629   6.569   0.694   6.768
 2977WAT    EPW12630   6.522   0.748   6.800
 2978WAT      O12631   6.922   0.458   7.544
 2978WAT     H112632   7.002   0.432   7.522
 2978WAT     H212633   6.873   0.438   7.475
 2978WAT    EPW12634   6.927   0.451   7.531
 2979WAT      O12635   7.230   0.694   7.438
 2979WAT     H112636   7.268   0.749   7.494
 2979WAT     H212637   7.258   0.721   7.360
 2979WAT    EPW12638   7.240   0.706   7.435
 2980WAT      O12639   6.566   0.279   6.014
 2980WAT     H112640   6.513   0.314   5.953
 2980WAT     H212641   6.637   0.329   6.009
 2980WAT    EPW12642   6.568   0.292   6.004
 2981WAT      O12643   6.730   0.970   7.421
 2981WAT     H112644   6.768   0.961   7.343
 2981WAT     H212645   6.712   0.888   7.445
 2981WAT    EPW12646   6.733   0.957   7.413
 2982WAT      O12647   7.393   0.190   6.210
 2982WAT     H112648   7.455   0.132   6.232
 2982WAT     H212649   7.326   0.140   6.184
 2982WAT    EPW12650   7.392   0.174   6.210
 2983WAT      O12651   6.762   0.427   7.316
 2983WAT     H112652   6.684   0.425   7.354
 2983WAT     H212653   6.767   0.507   7.283
 2983WAT    EPW12654   6.751   0.438   7.317
 2984WAT      O12655   6.344   1.047   6.899
 2984WAT     H112656   6.353   1.024   6.983
 2984WAT     H212657   6.307   0.977   6.863
 2984WAT    EPW12658   6.339   1.033   6.906
 2985WAT      O12659   7.030   0.353   6.507
 2985WAT     H112660   7.038   0.374   6.592
 2985WAT     H212661   7.112   0.345   6.479
 2985WAT    EPW12662   7.043   0.355   6.516
 2986WAT      O12663   6.763   0.292   6.442
 2986WAT     H112664   6.729   0.283   6.522
 2986WAT     H212665   6.848   0.301   6.456
 2986WAT    EPW12666   6.770   0.292   6.456
 2987WAT      O12667   6.777   0.699   7.255
 2987WAT     H112668   6.829   0.705   7.325
 2987WAT     H212669   6.805   0.764   7.204
 2987WAT    EPW12670   6.789   0.709   7.258
 2988WAT      O12671   5.994   1.026   7.409
 2988WAT     H112672   5.934   0.964   7.401
 2988WAT     H212673   5.949   1.094   7.439
 2988WAT    EPW12674   5.978   1.027   7.413
 2989WAT      O12675   7.155   1.020   6.704
 2989WAT     H112676   7.101   1.077   6.742
 2989WAT     H212677   7.234   1.042   6.736
 2989WAT    EPW12678   7.159   1.031   6.714
 2990WAT      O12679   6.836   0.532   6.907
 2990WAT     H112680   6.796   0.461   6.940
 2990WAT     H212681   6.867   0.573   6.977
 2990WAT    EPW12682   6.835   0.527   6.922
 2991WAT      O12683   6.942   0.673   6.364
 2991WAT     H112684   6.919   0.749   6.328
 2991WAT     H212685   6.879   0.618   6.339
 2991WAT    EPW12686   6.929   0.676   6.355
 2992WAT      O12687   6.379   0.665   5.981
 2992WAT     H112688   6.422   0.656   6.057
 2992WAT     H212689   6.296   0.646   6.003
 2992WAT    EPW12690   6.373   0.661   5.996
 2993WAT      O12691   7.325   0.884   6.344
 2993WAT     H112692   7.294   0.802   6.353
 2993WAT     H212693   7.373   0.879   6.271
 2993WAT    EPW12694   7.327   0.871   6.334
 2994WAT      O12695   6.124   0.567   6.035
 2994WAT     H112696   6.118   0.539   6.117
 2994WAT     H212697   6.133   0.494   5.988
 2994WAT    EPW12698   6.125   0.552   6.040
 2995WAT      O12699   6.407   0.429   5.831
 2995WAT     H112700   6.323   0.404   5.835
 2995WAT     H212701   6.408   0.505   5.872
 2995WAT    EPW12702   6.395   0.436   5.837
 2996WAT      O12703   7.063   0.652   7.059
 2996WAT     H112704   7.105   0.711   7.106
 2996WAT     H212705   7.067   0.683   6.977
 2996WAT    EPW12706   7.070   0.665   7.054
 2997WAT      O12707   7.053   1.001   7.448
 2997WAT     H112708   6.993   0.940   7.465
 2997WAT     H212709   7.013   1.075   7.472
 2997WAT    EPW12710   7.038   1.003   7.454
 2998WAT      O12711   7.516   0.421   7.045
 2998WAT     H112712   7.599   0.424   7.017
 2998WAT     H212713   7.472   0.463   6.983
 2998WAT    EPW12714   7.522   0.428   7.032
 2999WAT      O12715   6.422   0.957   7.439
 2999WAT     H112716   6.473   1.027   7.452
 2999WAT     H212717   6.473   0.890   7.459
 2999WAT    EPW12718   6.437   0.958   7.444
 3000WAT      O12719   7.389   0.816   6.924
 3000WAT     H112720   7.435   0.836   6.853
 3000WAT     H212721   7.360   0.735   6.909
 3000WAT    EPW12722   7.391   0.807   6.912
 3001WAT      O12723   6.182   0.856   7.534
 3001WAT     H112724   6.257   0.899   7.521
 3001WAT     H212725   6.121   0.910   7.505
 3001WAT    EPW12726   6.184   0.870   7.528
 3002WAT      O12727   5.965   0.620   7.310
 3002WAT     H112728   5.918   0.676   7.358
 3002WAT     H212729   6.047   0.642   7.326
 3002WAT    EPW12730   5.970   0.631   7.320
 3003WAT      O12731   6.170   0.905   6.190
 3003WAT     H112732   6.144   0.944   6.117
 3003WAT     H212733   6.256   0.900   6.182
 3003WAT    EPW12734   6.179   0.910   6.178
 3004WAT      O12735   6.525   0.229   6.288
 3004WAT     H112736   6.538   0.238   6.202
 3004WAT     H212737   6.605   0.235   6.322
 3004WAT    EPW12738   6.538   0.231   6.280
 3005WAT      O12739   7.430   0.964   5.869
 3005WAT     H112740   7.463   0.936   5.945
 3005WAT     H212741   7.425   0.891   5.820
 3005WAT    EPW12742   7.434   0.949   5.873
 3006WAT      O12743   7.451   0.158   7.445
 3006WAT     H112744   7.536   0.175   7.434
 3006WAT     H212745   7.413   0.197   7.376
 3006WAT    EPW12746   7.458   0.166   7.433
 3007WAT      O12747   7.124   0.619   6.085
 3007WAT     H112748   7.120   0.595   6.169
 3007WAT     H212749   7.087   0.552   6.043
 3007WAT    EPW12750   7.118   0.605   6.091
 3008WAT      O12751   7.300   0.261   7.663
 3008WAT     H112752   7.352   0.218   7.607
 3008WAT     H212753   7.257   0.317   7.611
 3008WAT    EPW12754   7.302   0.263   7.647
 3009WAT      O12755   6.188   0.836   6.805
 3009WAT     H112756   6.184   0.761   6.761
 3009WAT     H212757   6.145   0.892   6.754
 3009WAT    EPW12758   6.181   0.833   6.791
 3010WAT      O12759   6.777   0.459   6.014
 3010WAT     H112760   6.856   0.433   5.988
 3010WAT     H212761   6.760   0.529   5.965
 3010WAT    EPW12762   6.786   0.466   6.003
 3011WAT      O12763   5.953   1.086   7.140
 3011WAT     H112764   5.965   1.068   7.225
 3011WAT     H212765   5.991   1.018   7.100
 3011WAT    EPW12766   5.960   1.073   7.147
 3012WAT      O12767   5.841   0.397   4.506
 3012WAT     H112768   5.856   0.444   4.578
 3012WAT     H212769   5.793   0.330   4.535
 3012WAT    EPW12770   5.836   0.394   4.521
 3013WAT      O12771   7.492   0.843   4.217
 3013WAT     H112772   7.569   0.821   4.251
 3013WAT     H212773   7.460   0.768   4.188
 3013WAT    EPW12774   7.499   0.829   4.218
 3014WAT      O12775   6.129   0.340   3.970
 3014WAT     H112776   6.092   0.332   3.892
 3014WAT     H212777   6.137   0.257   3.998
 3014WAT    EPW12778   6.125   0.326   3.963
 3015WAT      O12779   6.098   0.469   4.399
 3015WAT     H112780   6.162   0.421   4.433
 3015WAT     H212781   6.025   0.429   4.427
 3015WAT    EPW12782   6.097   0.456   4.408
 3016WAT      O12783   5.968   0.749   3.998
 3016WAT     H112784   6.020   0.766   3.930
 3016WAT     H212785   6.015   0.694   4.046
 3016WAT    EPW12786   5.983   0.744   3.995
 3017WAT      O12787   5.885   0.679   5.147
 3017WAT     H112788   5.920   0.653   5.222
 3017WAT     H212789   5.816   0.626   5.137
 3017WAT    EPW12790   5.880   0.667   5.157
 3018WAT      O12791   6.517   0.457   5.572
 3018WAT     H112792   6.490   0.442   5.653
 3018WAT     H212793   6.450   0.432   5.522
 3018WAT    EPW12794   6.503   0.451   5.576
 3019WAT      O12795   6.505   0.738   5.319
 3019WAT     H112796   6.506   0.813   5.274
 3019WAT     H212797   6.589   0.722   5.334
 3019WAT    EPW12798   6.517   0.747   5.314
 3020WAT      O12799   6.639   0.553   4.740
 3020WAT     H112800   6.659   0.474   4.771
 3020WAT     H212801   6.716   0.594   4.735
 3020WAT    EPW12802   6.653   0.548   4.744
 3021WAT      O12803   6.731   0.518   4.381
 3021WAT     H112804   6.734   0.445   4.430
 3021WAT     H212805   6.747   0.489   4.300
 3021WAT    EPW12806   6.734   0.503   4.376
 3022WAT      O12807   5.863   0.856   4.662
 3022WAT     H112808   5.801   0.902   4.621
 3022WAT     H212809   5.903   0.815   4.596
 3022WAT    EPW12810   5.860   0.857   4.646
 3023WAT      O12811   6.479   0.628   4.349
 3023WAT     H112812   6.442   0.605   4.425
 3023WAT     H212813   6.560   0.596   4.355
 3023WAT    EPW12814   6.486   0.620   4.361
 3024WAT      O12815   7.040   0.878   4.153
 3024WAT     H112816   7.107   0.934   4.156
 3024WAT     H212817   7.078   0.801   4.168
 3024WAT    EPW12818   7.056   0.875   4.156
 3025WAT      O12819   6.855   0.912   4.351
 3025WAT     H112820   6.875   0.987   4.392
 3025WAT     H212821   6.914   0.907   4.287
 3025WAT    EPW12822   6.867   0.922   4.348
 3026WAT      O12823   6.005   0.734   4.445
 3026WAT     H112824   6.051   0.661   4.448
 3026WAT     H212825   6.053   0.788   4.397
 3026WAT    EPW12826   6.019   0.731   4.439
 3027WAT      O12827   7.075   0.957   5.115
 3027WAT     H112828   7.138   1.015   5.096
 3027WAT     H212829   7.069   0.910   5.042
 3027WAT    EPW12830   7.084   0.959   5.101
 3028WAT      O12831   6.169   0.602   4.779
 3028WAT     H112832   6.237   0.590   4.726
 3028WAT     H212833   6.185   0.547   4.845
 3028WAT    EPW12834   6.181   0.592   4.781
 3029WAT      O12835   6.423   0.855   4.662
 3029WAT     H112836   6.502   0.883   4.639
 3029WAT     H212837   6.369   0.914   4.629
 3029WAT    EPW12838   6.426   0.868   4.654
 3030WAT      O12839   7.236   1.077   4.132
 3030WAT     H112840   7.285   1.045   4.067
 3030WAT     H212841   7.290   1.132   4.173
 3030WAT    EPW12842   7.251   1.080   4.129
 3031WAT      O12843   6.330   0.982   5.289
 3031WAT     H112844   6.345   0.971   5.374
 3031WAT     H212845   6.256   0.938   5.276
 3031WAT    EPW12846   6.321   0.974   5.300
 3032WAT      O12847   6.978   0.678   5.544
 3032WAT     H112848   6.972   0.709   5.625
 3032WAT     H212849   7.064   0.667   5.533
 3032WAT    EPW12850   6.990   0.681   5.554
 3033WAT      O12851   6.732   0.693   3.963
 3033WAT     H112852   6.703   0.752   4.019
 3033WAT     H212853   6.809   0.725   3.937
 3033WAT    EPW12854   6.739   0.706   3.967
 3034WAT      O12855   6.089   0.869   5.171
 3034WAT     H112856   6.023   0.813   5.169
 3034WAT     H212857   6.125   0.863   5.092
 3034WAT    EPW12858   6.085   0.860   5.159
 3035WAT      O12859   6.845   0.955   5.258
 3035WAT     H112860   6.919   0.956   5.213
 3035WAT     H212861   6.783   0.951   5.197
 3035WAT    EPW12862   6.847   0.955   5.242
 3036WAT      O12863   7.461   1.008   4.658
 3036WAT     H112864   7.472   1.086   4.620
 3036WAT     H212865   7.424   0.960   4.595
 3036WAT    EPW12866   7.457   1.013   4.643
 3037WAT      O12867   7.226   0.635   4.494
 3037WAT     H112868   7.248   0.551   4.501
 3037WAT     H212869   7.139   0.635   4.500
 3037WAT    EPW12870   7.216   0.623   4.496
 3038WAT      O12871   6.256   0.677   5.455
 3038WAT     H112872   6.330   0.709   5.422
 3038WAT     H212873   6.242   0.725   5.526
 3038WAT    EPW12874   6.265   0.689   5.460
 3039WAT      O12875   6.402   0.232   4.924
 3039WAT     H112876   6.422   0.231   5.009
 3039WAT     H212877   6.361   0.156   4.912
 3039WAT    EPW12878   6.399   0.221   4.935
 3040WAT      O12879   6.467   0.308   5.190
 3040WAT     H112880   6.463   0.392   5.166
 3040WAT     H212881   6.418   0.304   5.262
 3040WAT    EPW12882   6.460   0.320   5.197
 3041WAT      O12883   7.107   0.388   5.152
 3041WAT     H112884   7.048   0.340   5.194
 3041WAT     H212885   7.081   0.470   5.167
 3041WAT    EPW12886   7.095   0.393   5.161
 3042WAT      O12887   5.763   0.660   5.720
 3042WAT     H112888   5.819   0.665   5.786
 3042WAT     H212889   5.754   0.574   5.706
 3042WAT    EPW12890   5.770   0.648   5.727
 3043WAT      O12891   7.488   0.370   4.107
 3043WAT     H112892   7.461   0.310   4.163
 3043WAT     H212893   7.485   0.330   4.030
 3043WAT    EPW12894   7.484   0.355   4.104
 3044WAT      O12895   6.109   0.143   4.640
 3044WAT     H112896   6.173   0.187   4.599
 3044WAT     H212897   6.099   0.071   4.591
 3044WAT    EPW12898   6.117   0.139   4.626
 3045WAT      O12899   6.062   1.021   4.756
 3045WAT     H112900   5.991   0.980   4.728
 3045WAT     H212901   6.113   1.027   4.685
 3045WAT    EPW12902   6.059   1.016   4.741
 3046WAT      O12903   6.301   0.326   4.521
 3046WAT     H112904   6.337   0.396   4.559
 3046WAT     H212905   6.367   0.291   4.476
 3046WAT    EPW12906   6.316   0.331   4.520
 3047WAT      O12907   5.905   0.523   4.743
 3047WAT     H112908   5.855   0.579   4.787
 3047WAT     H212909   5.985   0.558   4.750
 3047WAT    EPW12910   5.910   0.536   4.751
 3048WAT      O12911   6.857   0.726   4.709
 3048WAT     H112912   6.807   0.794   4.687
 3048WAT     H212913   6.894   0.703   4.633
 3048WAT    EPW12914   6.855   0.733   4.694
 3049WAT      O12915   5.813   0.588   4.308
 3049WAT     H112916   5.872   0.642   4.343
 3049WAT     H212917   5.806   0.524   4.367
 3049WAT    EPW12918   5.821   0.587   4.322
 3050WAT      O12919   6.221   0.436   4.989
 3050WAT     H112920   6.276   0.483   5.039
 3050WAT     H212921   6.272   0.371   4.960
 3050WAT    EPW12922   6.237   0.433   4.992
 3051WAT      O12923   5.837   0.437   4.074
 3051WAT     H112924   5.921   0.419   4.059
 3051WAT     H212925   5.838   0.491   4.142
 3051WAT    EPW12926   5.849   0.442   4.082
 3052WAT      O12927   5.918   0.253   4.812
 3052WAT     H112928   5.979   0.216   4.762
 3052WAT     H212929   5.924   0.338   4.792
 3052WAT    EPW12930   5.928   0.260   4.801
 3053WAT      O12931   7.296   0.796   5.308
 3053WAT     H112932   7.288   0.875   5.345
 3053WAT     H212933   7.335   0.813   5.232
 3053WAT    EPW12934   7.300   0.810   5.302
 3054WAT      O12935   6.396   0.586   4.614
 3054WAT     H112936   6.394   0.672   4.621
 3054WAT     H212937   6.472   0.563   4.650
 3054WAT    EPW12938   6.407   0.595   4.620
 3055WAT      O12939   6.625   0.922   5.096
 3055WAT     H112940   6.601   0.857   5.043
 3055WAT     H212941   6.617   0.993   5.046
 3055WAT    EPW12942   6.620   0.923   5.081
 3056WAT      O12943   7.268   0.368   5.567
 3056WAT     H112944   7.270   0.455   5.558
 3056WAT     H212945   7.286   0.339   5.487
 3056WAT    EPW12946   7.271   0.377   5.554
 3057WAT      O12947   6.607   0.724   5.618
 3057WAT     H112948   6.640   0.711   5.697
 3057WAT     H212949   6.579   0.645   5.594
 3057WAT    EPW12950   6.608   0.711   5.626
 3058WAT      O12951   7.301   0.364   4.517
 3058WAT     H112952   7.365   0.357   4.576
 3058WAT     H212953   7.331   0.317   4.450
 3058WAT    EPW12954   7.315   0.356   4.516
 3059WAT      O12955   7.061   0.777   4.897
 3059WAT     H112956   6.994   0.755   4.846
 3059WAT     H212957   7.100   0.841   4.853
 3059WAT    EPW12958   7.057   0.783   4.883
 3060WAT      O12959   7.049   0.432   4.872
 3060WAT     H112960   6.976   0.474   4.896
 3060WAT     H212961   7.073   0.390   4.945
 3060WAT    EPW12962   7.041   0.432   4.887
 3061WAT      O12963   6.443   0.898   4.302
 3061WAT     H112964   6.453   0.818   4.334
 3061WAT     H212965   6.508   0.905   4.244
 3061WAT    EPW12966   6.454   0.888   4.298
 3062WAT      O12967   6.666   0.893   4.142
 3062WAT     H112968   6.725   0.902   4.206
 3062WAT     H212969   6.667   0.971   4.102
 3062WAT    EPW12970   6.675   0.906   4.145
 3063WAT      O12971   7.324   0.300   5.307
 3063WAT     H112972   7.256   0.322   5.256
 3063WAT     H212973   7.393   0.325   5.259
 3063WAT    EPW12974   7.324   0.307   5.292
 3064WAT      O12975   6.972   0.814   5.792
 3064WAT     H112976   6.997   0.837   5.873
 3064WAT     H212977   6.996   0.881   5.743
 3064WAT    EPW12978   6.979   0.827   5.797
 3065WAT      O12979   6.915   0.246   5.299
 3065WAT     H112980   6.871   0.299   5.353
 3065WAT     H212981   6.942   0.181   5.350
 3065WAT    EPW12982   6.913   0.245   5.314
 3066WAT      O12983   7.300   0.562   4.987
 3066WAT     H112984   7.244   0.561   4.920
 3066WAT     H212985   7.255   0.523   5.051
 3066WAT    EPW12986   7.285   0.556   4.987
 3067WAT      O12987   6.659   0.284   4.812
 3067WAT     H112988   6.576   0.264   4.831
 3067WAT     H212989   6.701   0.274   4.888
 3067WAT    EPW12990   6.653   0.279   4.826
 3068WAT      O12991   6.350   0.905   3.928
 3068WAT     H112992   6.375   0.836   3.975
 3068WAT     H212993   6.355   0.971   3.985
 3068WAT    EPW12994   6.354   0.905   3.943
 3069WAT      O12995   5.972   0.338   5.073
 3069WAT     H112996   6.047   0.378   5.053
 3069WAT     H212997   5.956   0.289   5.003
 3069WAT    EPW12998   5.981   0.337   5.060
 3070WAT      O12999   6.005   0.343   5.355
 3070WAT     H113000   5.997   0.334   5.269
 3070WAT     H213001   5.993   0.429   5.368
 3070WAT    EPW13002   6.002   0.354   5.344
 3071WAT      O13003   7.379   0.621   4.102
 3071WAT     H113004   7.413   0.541   4.110
 3071WAT     H213005   7.298   0.612   4.134
 3071WAT    EPW13006   7.372   0.608   4.108
 3072WAT      O13007   7.031   0.409   4.020
 3072WAT     H113008   7.086   0.341   4.025
 3072WAT     H213009   7.011   0.413   3.935
 3072WAT    EPW13010   7.036   0.400   4.008
 3073WAT      O13011   6.430   0.571   5.114
 3073WAT     H113012   6.447   0.619   5.184
 3073WAT     H213013   6.458   0.620   5.047
 3073WAT    EPW13014   6.437   0.585   5.114
 3074WAT      O13015   6.287   0.399   5.408
 3074WAT     H113016   6.207   0.365   5.397
 3074WAT     H213017   6.272   0.484   5.417
 3074WAT    EPW13018   6.273   0.406   5.408
 3075WAT      O13019   6.730   0.284   5.090
 3075WAT     H113020   6.787   0.257   5.151
 3075WAT     H213021   6.654   0.283   5.132
 3075WAT    EPW13022   6.728   0.280   5.105
 3076WAT      O13023   6.687   0.929   4.601
 3076WAT     H113024   6.688   1.014   4.620
 3076WAT     H213025   6.715   0.925   4.519
 3076WAT    EPW13026   6.691   0.941   4.592
 3077WAT      O13027   6.519   0.737   4.912
 3077WAT     H113028   6.475   0.783   4.852
 3077WAT     H213029   6.567   0.682   4.864
 3077WAT    EPW13030   6.520   0.736   4.896
 3078WAT      O13031   6.992   0.371   5.649
 3078WAT     H113032   7.067   0.383   5.606
 3078WAT     H213033   6.932   0.406   5.596
 3078WAT    EPW13034   6.994   0.378   5.635
 3079WAT      O13035   7.254   0.640   5.532
 3079WAT     H113036   7.301   0.677   5.596
 3079WAT     H213037   7.278   0.684   5.461
 3079WAT    EPW13038   7.265   0.652   5.531
 3080WAT      O13039   6.566   0.280   4.113
 3080WAT     H113040   6.513   0.314   4.052
 3080WAT     H213041   6.637   0.330   4.108
 3080WAT    EPW13042   6.569   0.292   4.103
 3081WAT      O13043   6.759   0.946   5.525
 3081WAT     H113044   6.778   0.936   5.440
 3081WAT     H213045   6.721   0.870   5.546
 3081WAT    EPW13046   6.756   0.933   5.515
 3082WAT      O13047   7.394   0.191   4.309
 3082WAT     H113048   7.455   0.133   4.332
 3082WAT     H213049   7.327   0.141   4.284
 3082WAT    EPW13050   7.393   0.175   4.309
 3083WAT      O13051   6.774   0.425   5.456
 3083WAT     H113052   6.697   0.422   5.496
 3083WAT     H213053   6.775   0.502   5.416
 3083WAT    EPW13054   6.763   0.436   5.456
 3084WAT      O13055   6.334   1.061   5.014
 3084WAT     H113056   6.337   1.047   5.100
 3084WAT     H213057   6.303   0.986   4.982
 3084WAT    EPW13058   6.330   1.048   5.022
 3085WAT      O13059   7.028   0.356   4.602
 3085WAT     H113060   7.035   0.378   4.686
 3085WAT     H213061   7.111   0.348   4.575
 3085WAT    EPW13062   7.041   0.358   4.610
 3086WAT      O13063   6.762   0.290   4.541
 3086WAT     H113064   6.729   0.280   4.621
 3086WAT     H213065   6.847   0.300   4.554
 3086WAT    EPW13066   6.769   0.290   4.555
 3087WAT      O13067   6.786   0.686   5.346
 3087WAT     H113068   6.844   0.687   5.412
 3087WAT     H213069   6.817   0.745   5.290
 3087WAT    EPW13070   6.799   0.695   5.348
 3088WAT      O13071   5.976   1.029   5.546
 3088WAT     H113072   5.920   0.963   5.532
 3088WAT     H213073   5.924   1.094   5.576
 3088WAT    EPW13074   5.960   1.029   5.549
 3089WAT      O13075   7.157   1.024   4.805
 3089WAT     H113076   7.101   1.080   4.841
 3089WAT     H213077   7.233   1.045   4.842
 3089WAT    EPW13078   7.160   1.035   4.816
 3090WAT      O13079   6.824   0.535   5.005
 3090WAT     H113080   6.789   0.462   5.039
 3090WAT     H213081   6.860   0.574   5.074
 3090WAT    EPW13082   6.824   0.530   5.020
 3091WAT      O13083   7.422   0.715   5.743
 3091WAT     H113084   7.501   0.683   5.724
 3091WAT     H213085   7.403   0.678   5.820
 3091WAT    EPW13086   7.431   0.705   5.751
 3092WAT      O13087   6.950   0.668   4.450
 3092WAT     H113088   6.923   0.746   4.420
 3092WAT     H213089   6.883   0.615   4.432
 3092WAT    EPW13090   6.936   0.672   4.443
 3093WAT      O13091   6.380   0.664   4.081
 3093WAT     H113092   6.424   0.655   4.156
 3093WAT     H213093   6.298   0.644   4.103
 3093WAT    EPW13094   6.375   0.660   4.096
 3094WAT      O13095   7.322   0.889   4.439
 3094WAT     H113096   7.295   0.808   4.456
 3094WAT     H213097   7.370   0.880   4.366
 3094WAT    EPW13098   7.325   0.876   4.430
 3095WAT      O13099   6.127   0.564   4.137
 3095WAT     H113100   6.120   0.536   4.220
 3095WAT     H213101   6.135   0.491   4.091
 3095WAT    EPW13102   6.127   0.549   4.143
 3096WAT      O13103   6.406   0.428   3.930
 3096WAT     H113104   6.322   0.403   3.936
 3096WAT     H213105   6.407   0.504   3.972
 3096WAT    EPW13106   6.393   0.435   3.937
 3097WAT      O13107   7.048   0.658   5.155
 3097WAT     H113108   7.094   0.713   5.204
 3097WAT     H213109   7.057   0.690   5.074
 3097WAT    EPW13110   7.056   0.671   5.150
 3098WAT      O13111   7.022   1.008   5.600
 3098WAT     H113112   6.945   0.980   5.569
 3098WAT     H213113   7.008   1.092   5.617
 3098WAT    EPW13114   7.009   1.016   5.598
 3099WAT      O13115   7.506   0.410   5.122
 3099WAT     H113116   7.589   0.420   5.097
 3099WAT     H213117   7.462   0.461   5.066
 3099WAT    EPW13118   7.512   0.419   5.110
 3100WAT      O13119   6.415   0.928   5.557
 3100WAT     H113120   6.398   0.939   5.642
 3100WAT     H213121   6.477   0.866   5.557
 3100WAT    EPW13122   6.422   0.920   5.570
 3101WAT      O13123   7.388   0.831   5.037
 3101WAT     H113124   7.445   0.845   4.972
 3101WAT     H213125   7.355   0.752   5.019
 3101WAT    EPW13126   7.392   0.821   5.024
 3102WAT      O13127   6.128   0.822   5.680
 3102WAT     H113128   6.195   0.856   5.725
 3102WAT     H213129   6.091   0.892   5.643
 3102WAT    EPW13130   6.132   0.837   5.682
 3103WAT      O13131   5.990   0.618   5.391
 3103WAT     H113132   5.938   0.676   5.431
 3103WAT     H213133   6.070   0.647   5.408
 3103WAT    EPW13134   5.994   0.631   5.400
 3104WAT      O13135   6.167   0.905   4.293
 3104WAT     H113136   6.139   0.943   4.220
 3104WAT     H213137   6.253   0.899   4.282
 3104WAT    EPW13138   6.175   0.910   4.281
 3105WAT      O13139   6.524   0.230   4.387
 3105WAT     H113140   6.537   0.239   4.301
 3105WAT     H213141   6.604   0.235   4.421
 3105WAT    EPW13142   6.537   0.232   4.379
 3106WAT      O13143   7.430   0.963   3.968
 3106WAT     H113144   7.462   0.936   4.044
 3106WAT     H213145   7.424   0.890   3.920
 3106WAT    EPW13146   7.434   0.948   3.972
 3107WAT      O13147   7.454   0.261   5.747
 3107WAT     H113148   7.502   0.205   5.701
 3107WAT     H213149   7.407   0.302   5.686
 3107WAT    EPW13150   7.454   0.259   5.731
 3108WAT      O13151   7.117   0.614   4.191
 3108WAT     H113152   7.086   0.598   4.271
 3108WAT     H213153   7.081   0.552   4.142
 3108WAT    EPW13154   7.107   0.603   4.196
 3109WAT      O13155   7.199   0.195   5.845
 3109WAT     H113156   7.282   0.210   5.822
 3109WAT     H213157   7.155   0.207   5.771
 3109WAT    EPW13158   7.205   0.199   5.831
 3110WAT      O13159   6.191   0.843   4.916
 3110WAT     H113160   6.189   0.767   4.873
 3110WAT     H213161   6.148   0.898   4.864
 3110WAT    EPW13162   6.185   0.840   4.902
 3111WAT      O13163   6.776   0.461   4.114
 3111WAT     H113164   6.854   0.434   4.085
 3111WAT     H213165   6.759   0.530   4.064
 3111WAT    EPW13166   6.785   0.467   4.102
 3112WAT      O13167   5.954   1.090   5.271
 3112WAT     H113168   5.961   1.068   5.355
 3112WAT     H213169   5.993   1.024   5.229
 3112WAT    EPW13170   5.960   1.077   5.277
 3113WAT      O13171   5.841   0.394   2.600
 3113WAT     H113172   5.859   0.440   2.673
 3113WAT     H213173   5.794   0.327   2.629
 3113WAT    EPW13174   5.837   0.391   2.615
 3114WAT      O13175   7.492   0.845   2.316
 3114WAT     H113176   7.570   0.823   2.350
 3114WAT     H213177   7.461   0.769   2.286
 3114WAT    EPW13178   7.499   0.830   2.317
 3115WAT      O13179   6.129   0.338   2.067
 3115WAT     H113180   6.094   0.330   1.987
 3115WAT     H213181   6.139   0.256   2.094
 3115WAT    EPW13182   6.125   0.325   2.059
 3116WAT      O13183   6.098   0.466   2.493
 3116WAT     H113184   6.163   0.419   2.527
 3116WAT     H213185   6.026   0.426   2.521
 3116WAT    EPW13186   6.097   0.454   2.502
 3117WAT      O13187   5.981   0.771   2.110
 3117WAT     H113188   6.024   0.781   2.035
 3117WAT     H213189   6.023   0.706   2.149
 3117WAT    EPW13190   5.993   0.763   2.104
 3118WAT      O13191   5.876   0.681   3.233
 3118WAT     H113192   5.912   0.658   3.309
 3118WAT     H213193   5.811   0.624   3.223
 3118WAT    EPW13194   5.872   0.669   3.243
 3119WAT      O13195   6.515   0.457   3.671
 3119WAT     H113196   6.488   0.441   3.752
 3119WAT     H213197   6.448   0.432   3.621
 3119WAT    EPW13198   6.501   0.451   3.675
 3120WAT      O13199   6.506   0.745   3.416
 3120WAT     H113200   6.512   0.817   3.367
 3120WAT     H213201   6.589   0.725   3.434
 3120WAT    EPW13202   6.519   0.753   3.411
 3121WAT      O13203   6.637   0.555   2.842
 3121WAT     H113204   6.657   0.476   2.873
 3121WAT     H213205   6.714   0.596   2.839
 3121WAT    EPW13206   6.651   0.549   2.846
 3122WAT      O13207   6.730   0.519   2.480
 3122WAT     H113208   6.733   0.447   2.529
 3122WAT     H213209   6.747   0.490   2.400
 3122WAT    EPW13210   6.733   0.504   2.475
 3123WAT      O13211   5.866   0.851   2.752
 3123WAT     H113212   5.801   0.896   2.713
 3123WAT     H213213   5.905   0.809   2.687
 3123WAT    EPW13214   5.862   0.852   2.737
 3124WAT      O13215   6.477   0.628   2.447
 3124WAT     H113216   6.441   0.605   2.522
 3124WAT     H213217   6.558   0.597   2.452
 3124WAT    EPW13218   6.484   0.620   2.459
 3125WAT      O13219   7.040   0.880   2.254
 3125WAT     H113220   7.107   0.936   2.257
 3125WAT     H213221   7.078   0.802   2.268
 3125WAT    EPW13222   7.056   0.877   2.257
 3126WAT      O13223   6.855   0.915   2.451
 3126WAT     H113224   6.875   0.990   2.490
 3126WAT     H213225   6.914   0.908   2.388
 3126WAT    EPW13226   6.866   0.925   2.448
 3127WAT      O13227   6.007   0.732   2.538
 3127WAT     H113228   6.053   0.658   2.541
 3127WAT     H213229   6.055   0.784   2.487
 3127WAT    EPW13230   6.021   0.729   2.531
 3128WAT      O13231   7.070   0.960   3.213
 3128WAT     H113232   7.134   1.017   3.195
 3128WAT     H213233   7.066   0.911   3.141
 3128WAT    EPW13234   7.079   0.961   3.200
 3129WAT      O13235   6.171   0.602   2.879
 3129WAT     H113236   6.238   0.589   2.825
 3129WAT     H213237   6.187   0.548   2.945
 3129WAT    EPW13238   6.184   0.592   2.881
 3130WAT      O13239   6.422   0.855   2.751
 3130WAT     H113240   6.502   0.883   2.731
 3130WAT     H213241   6.370   0.913   2.712
 3130WAT    EPW13242   6.426   0.867   2.742
 3131WAT      O13243   7.237   1.079   2.232
 3131WAT     H113244   7.285   1.046   2.166
 3131WAT     H213245   7.291   1.135   2.270
 3131WAT    EPW13246   7.252   1.082   2.228
 3132WAT      O13247   6.321   0.990   3.382
 3132WAT     H113248   6.341   0.976   3.466
 3132WAT     H213249   6.252   0.939   3.368
 3132WAT    EPW13250   6.314   0.981   3.393
 3133WAT      O13251   6.978   0.676   3.645
 3133WAT     H113252   6.971   0.708   3.726
 3133WAT     H213253   7.064   0.665   3.634
 3133WAT    EPW13254   6.990   0.679   3.655
 3134WAT      O13255   6.735   0.692   2.064
 3134WAT     H113256   6.705   0.752   2.120
 3134WAT     H213257   6.812   0.724   2.039
 3134WAT    EPW13258   6.742   0.706   2.069
 3135WAT      O13259   6.090   0.864   3.256
 3135WAT     H113260   6.023   0.809   3.250
 3135WAT     H213261   6.127   0.859   3.177
 3135WAT    EPW13262   6.085   0.855   3.243
 3136WAT      O13263   6.839   0.953   3.356
 3136WAT     H113264   6.913   0.955   3.310
 3136WAT     H213265   6.777   0.951   3.294
 3136WAT    EPW13266   6.841   0.953   3.340
 3137WAT      O13267   7.456   1.012   2.757
 3137WAT     H113268   7.468   1.089   2.718
 3137WAT     H213269   7.421   0.962   2.695
 3137WAT    EPW13270   7.453   1.016   2.742
 3138WAT      O13271   7.219   0.629   2.572
 3138WAT     H113272   7.243   0.547   2.593
 3138WAT     H213273   7.134   0.631   2.592
 3138WAT    EPW13274   7.210   0.617   2.578
 3139WAT      O13275   6.254   0.676   3.548
 3139WAT     H113276   6.327   0.712   3.519
 3139WAT     H213277   6.238   0.718   3.623
 3139WAT    EPW13278   6.262   0.687   3.555
 3140WAT      O13279   6.403   0.231   3.029
 3140WAT     H113280   6.424   0.234   3.114
 3140WAT     H213281   6.365   0.153   3.021
 3140WAT    EPW13282   6.401   0.220   3.040
 3141WAT      O13283   6.469   0.313   3.291
 3141WAT     H113284   6.464   0.397   3.267
 3141WAT     H213285   6.419   0.310   3.363
 3141WAT    EPW13286   6.461   0.325   3.298
 3142WAT      O13287   7.107   0.387   3.253
 3142WAT     H113288   7.048   0.339   3.295
 3142WAT     H213289   7.082   0.469   3.268
 3142WAT    EPW13290   7.095   0.392   3.261
 3143WAT      O13291   5.765   0.656   3.819
 3143WAT     H113292   5.822   0.662   3.884
 3143WAT     H213293   5.758   0.570   3.805
 3143WAT    EPW13294   5.772   0.644   3.826
 3144WAT      O13295   7.489   0.369   2.207
 3144WAT     H113296   7.461   0.309   2.263
 3144WAT     H213297   7.487   0.328   2.130
 3144WAT    EPW13298   7.485   0.354   2.204
 3145WAT      O13299   6.101   0.142   2.727
 3145WAT     H113300   6.168   0.183   2.689
 3145WAT     H213301   6.093   0.069   2.681
 3145WAT    EPW13302   6.110   0.138   2.715
 3146WAT      O13303   6.066   1.018   2.834
 3146WAT     H113304   5.996   0.971   2.809
 3146WAT     H213305   6.116   1.020   2.763
 3146WAT    EPW13306   6.063   1.011   2.820
 3147WAT      O13307   6.301   0.325   2.616
 3147WAT     H113308   6.336   0.394   2.655
 3147WAT     H213309   6.368   0.289   2.573
 3147WAT    EPW13310   6.316   0.330   2.615
 3148WAT      O13311   5.910   0.520   2.836
 3148WAT     H113312   5.858   0.575   2.878
 3148WAT     H213313   5.989   0.555   2.845
 3148WAT    EPW13314   5.914   0.533   2.844
 3149WAT      O13315   6.853   0.729   2.815
 3149WAT     H113316   6.804   0.798   2.793
 3149WAT     H213317   6.889   0.706   2.739
 3149WAT    EPW13318   6.851   0.736   2.800
 3150WAT      O13319   5.812   0.587   2.404
 3150WAT     H113320   5.873   0.640   2.439
 3150WAT     H213321   5.804   0.524   2.463
 3150WAT    EPW13322   5.820   0.586   2.418
 3151WAT      O13323   6.222   0.436   3.089
 3151WAT     H113324   6.275   0.483   3.139
 3151WAT     H213325   6.272   0.370   3.061
 3151WAT    EPW13326   6.237   0.433   3.092
 3152WAT      O13327   5.835   0.448   2.164
 3152WAT     H113328   5.917   0.419   2.154
 3152WAT     H213329   5.838   0.496   2.236
 3152WAT    EPW13330   5.848   0.451   2.173
 3153WAT      O13331   5.918   0.252   2.908
 3153WAT     H113332   5.978   0.213   2.857
 3153WAT     H213333   5.926   0.336   2.888
 3153WAT    EPW13334   5.928   0.258   2.897
 3154WAT      O13335   7.289   0.796   3.405
 3154WAT     H113336   7.283   0.874   3.443
 3154WAT     H213337   7.332   0.813   3.330
 3154WAT    EPW13338   7.295   0.810   3.399
 3155WAT      O13339   6.396   0.584   2.711
 3155WAT     H113340   6.395   0.671   2.717
 3155WAT     H213341   6.472   0.562   2.748
 3155WAT    EPW13342   6.407   0.594   2.718
 3156WAT      O13343   6.613   0.928   3.197
 3156WAT     H113344   6.593   0.863   3.143
 3156WAT     H213345   6.602   1.000   3.148
 3156WAT    EPW13346   6.609   0.929   3.182
 3157WAT      O13347   7.268   0.368   3.665
 3157WAT     H113348   7.270   0.455   3.656
 3157WAT     H213349   7.287   0.339   3.585
 3157WAT    EPW13350   7.271   0.377   3.652
 3158WAT      O13351   6.606   0.724   3.716
 3158WAT     H113352   6.638   0.713   3.796
 3158WAT     H213353   6.577   0.645   3.693
 3158WAT    EPW13354   6.606   0.711   3.724
 3159WAT      O13355   7.301   0.362   2.619
 3159WAT     H113356   7.366   0.356   2.677
 3159WAT     H213357   7.331   0.315   2.551
 3159WAT    EPW13358   7.315   0.355   2.617
 3160WAT      O13359   7.062   0.778   2.998
 3160WAT     H113360   6.993   0.756   2.948
 3160WAT     H213361   7.100   0.843   2.953
 3160WAT    EPW13362   7.057   0.784   2.984
 3161WAT      O13363   7.051   0.434   2.973
 3161WAT     H113364   6.978   0.476   2.997
 3161WAT     H213365   7.074   0.391   3.045
 3161WAT    EPW13366   7.043   0.434   2.987
 3162WAT      O13367   6.438   0.898   2.391
 3162WAT     H113368   6.449   0.819   2.427
 3162WAT     H213369   6.507   0.905   2.337
 3162WAT    EPW13370   6.450   0.887   2.388
 3163WAT      O13371   6.668   0.895   2.241
 3163WAT     H113372   6.726   0.904   2.306
 3163WAT     H213373   6.670   0.973   2.201
 3163WAT    EPW13374   6.677   0.908   2.244
 3164WAT      O13375   7.325   0.300   3.405
 3164WAT     H113376   7.257   0.321   3.355
 3164WAT     H213377   7.394   0.324   3.358
 3164WAT    EPW13378   7.325   0.307   3.391
 3165WAT      O13379   6.973   0.814   3.892
 3165WAT     H113380   6.997   0.837   3.972
 3165WAT     H213381   6.996   0.882   3.843
 3165WAT    EPW13382   6.980   0.827   3.896
 3166WAT      O13383   6.915   0.246   3.400
 3166WAT     H113384   6.871   0.298   3.454
 3166WAT     H213385   6.943   0.181   3.451
 3166WAT    EPW13386   6.913   0.244   3.415
 3167WAT      O13387   7.301   0.564   3.087
 3167WAT     H113388   7.244   0.560   3.021
 3167WAT     H213389   7.257   0.527   3.154
 3167WAT    EPW13390   7.286   0.558   3.087
 3168WAT      O13391   6.658   0.285   2.913
 3168WAT     H113392   6.576   0.265   2.933
 3168WAT     H213393   6.701   0.276   2.989
 3168WAT    EPW13394   6.652   0.281   2.927
 3169WAT      O13395   6.346   0.904   2.027
 3169WAT     H113396   6.372   0.835   2.073
 3169WAT     H213397   6.356   0.971   2.083
 3169WAT    EPW13398   6.351   0.904   2.042
 3170WAT      O13399   5.970   0.341   3.169
 3170WAT     H113400   6.046   0.379   3.150
 3170WAT     H213401   5.954   0.290   3.100
 3170WAT    EPW13402   5.979   0.339   3.156
 3171WAT      O13403   6.003   0.347   3.450
 3171WAT     H113404   5.996   0.336   3.363
 3171WAT     H213405   5.992   0.433   3.460
 3171WAT    EPW13406   6.000   0.358   3.438
 3172WAT      O13407   7.384   0.622   2.198
 3172WAT     H113408   7.416   0.541   2.207
 3172WAT     H213409   7.302   0.614   2.227
 3172WAT    EPW13410   7.377   0.609   2.204
 3173WAT      O13411   7.032   0.407   2.124
 3173WAT     H113412   7.088   0.340   2.126
 3173WAT     H213413   7.011   0.413   2.039
 3173WAT    EPW13414   7.037   0.398   2.111
 3174WAT      O13415   6.429   0.575   3.213
 3174WAT     H113416   6.445   0.624   3.283
 3174WAT     H213417   6.456   0.624   3.146
 3174WAT    EPW13418   6.435   0.589   3.213
 3175WAT      O13419   6.286   0.398   3.506
 3175WAT     H113420   6.206   0.365   3.495
 3175WAT     H213421   6.271   0.484   3.514
 3175WAT    EPW13422   6.272   0.406   3.506
 3176WAT      O13423   6.731   0.286   3.191
 3176WAT     H113424   6.788   0.259   3.252
 3176WAT     H213425   6.655   0.287   3.233
 3176WAT    EPW13426   6.729   0.282   3.206
 3177WAT      O13427   6.687   0.933   2.702
 3177WAT     H113428   6.689   1.018   2.721
 3177WAT     H213429   6.720   0.930   2.621
 3177WAT    EPW13430   6.692   0.945   2.693
 3178WAT      O13431   6.516   0.742   3.009
 3178WAT     H113432   6.470   0.786   2.950
 3178WAT     H213433   6.563   0.686   2.962
 3178WAT    EPW13434   6.516   0.740   2.994
 3179WAT      O13435   6.993   0.367   3.747
 3179WAT     H113436   7.068   0.380   3.705
 3179WAT     H213437   6.934   0.404   3.694
 3179WAT    EPW13438   6.995   0.374   3.733
 3180WAT      O13439   7.254   0.640   3.632
 3180WAT     H113440   7.302   0.677   3.695
 3180WAT     H213441   7.277   0.685   3.560
 3180WAT    EPW13442   7.265   0.652   3.630
 3181WAT      O13443   6.567   0.277   2.212
 3181WAT     H113444   6.514   0.311   2.151
 3181WAT     H213445   6.638   0.327   2.208
 3181WAT    EPW13446   6.570   0.289   2.202
 3182WAT      O13447   6.760   0.944   3.625
 3182WAT     H113448   6.776   0.935   3.540
 3182WAT     H213449   6.721   0.869   3.646
 3182WAT    EPW13450   6.756   0.932   3.615
 3183WAT      O13451   7.394   0.190   2.410
 3183WAT     H113452   7.455   0.132   2.432
 3183WAT     H213453   7.327   0.140   2.384
 3183WAT    EPW13454   7.393   0.174   2.409
 3184WAT      O13455   6.773   0.424   3.556
 3184WAT     H113456   6.696   0.422   3.596
 3184WAT     H213457   6.774   0.502   3.516
 3184WAT    EPW13458   6.762   0.435   3.556
 3185WAT      O13459   6.302   1.088   3.111
 3185WAT     H113460   6.312   1.073   3.196
 3185WAT     H213461   6.285   1.009   3.077
 3185WAT    EPW13462   6.301   1.074   3.118
 3186WAT      O13463   7.028   0.357   2.703
 3186WAT     H113464   7.035   0.379   2.787
 3186WAT     H213465   7.111   0.348   2.677
 3186WAT    EPW13466   7.041   0.359   2.712
 3187WAT      O13467   6.761   0.292   2.642
 3187WAT     H113468   6.729   0.282   2.722
 3187WAT     H213469   6.847   0.302   2.655
 3187WAT    EPW13470   6.769   0.292   2.656
 3188WAT      O13471   6.787   0.686   3.446
 3188WAT     H113472   6.845   0.686   3.512
 3188WAT     H213473   6.817   0.747   3.392
 3188WAT    EPW13474   6.800   0.695   3.448
 3189WAT      O13475   5.997   1.007   3.632
 3189WAT     H113476   5.935   0.947   3.621
 3189WAT     H213477   5.954   1.077   3.660
 3189WAT    EPW13478   5.982   1.008   3.634
 3190WAT      O13479   7.154   1.025   2.904
 3190WAT     H113480   7.098   1.081   2.940
 3190WAT     H213481   7.231   1.047   2.940
 3190WAT    EPW13482   7.157   1.037   2.914
 3191WAT      O13483   6.826   0.536   3.107
 3191WAT     H113484   6.791   0.464   3.141
 3191WAT     H213485   6.862   0.576   3.176
 3191WAT    EPW13486   6.826   0.531   3.122
 3192WAT      O13487   7.421   0.713   3.845
 3192WAT     H113488   7.500   0.681   3.828
 3192WAT     H213489   7.399   0.676   3.921
 3192WAT    EPW13490   7.429   0.703   3.854
 3193WAT      O13491   6.943   0.672   2.560
 3193WAT     H113492   6.919   0.749   2.525
 3193WAT     H213493   6.879   0.618   2.536
 3193WAT    EPW13494   6.930   0.676   2.551
 3194WAT      O13495   6.379   0.663   2.179
 3194WAT     H113496   6.423   0.654   2.254
 3194WAT     H213497   6.298   0.641   2.200
 3194WAT    EPW13498   6.374   0.658   2.193
 3195WAT      O13499   7.321   0.886   2.538
 3195WAT     H113500   7.293   0.805   2.551
 3195WAT     H213501   7.370   0.880   2.466
 3195WAT    EPW13502   7.324   0.874   2.529
 3196WAT      O13503   6.126   0.564   2.232
 3196WAT     H113504   6.119   0.535   2.314
 3196WAT     H213505   6.132   0.491   2.185
 3196WAT    EPW13506   6.126   0.549   2.237
 3197WAT      O13507   6.406   0.425   2.030
 3197WAT     H113508   6.322   0.401   2.035
 3197WAT     H213509   6.408   0.502   2.071
 3197WAT    EPW13510   6.394   0.433   2.037
 3198WAT      O13511   7.053   0.658   3.256
 3198WAT     H113512   7.099   0.712   3.306
 3198WAT     H213513   7.060   0.692   3.176
 3198WAT    EPW13514   7.061   0.671   3.251
 3199WAT      O13515   7.022   1.008   3.699
 3199WAT     H113516   6.945   0.980   3.668
 3199WAT     H213517   7.008   1.092   3.716
 3199WAT    EPW13518   7.009   1.016   3.697
 3200WAT      O13519   7.506   0.410   3.220
 3200WAT     H113520   7.589   0.420   3.195
 3200WAT     H213521   7.462   0.461   3.164
 3200WAT    EPW13522   7.512   0.419   3.208
 3201WAT      O13523   6.412   0.930   3.651
 3201WAT     H113524   6.398   0.939   3.736
 3201WAT     H213525   6.475   0.869   3.647
 3201WAT    EPW13526   6.419   0.923   3.663
 3202WAT      O13527   7.387   0.833   3.136
 3202WAT     H113528   7.445   0.847   3.072
 3202WAT     H213529   7.355   0.754   3.117
 3202WAT    EPW13530   7.391   0.823   3.124
 3203WAT      O13531   6.136   0.808   3.780
 3203WAT     H113532   6.202   0.843   3.824
 3203WAT     H213533   6.100   0.876   3.739
 3203WAT    EPW13534   6.141   0.823   3.781
 3204WAT      O13535   5.988   0.623   3.476
 3204WAT     H113536   5.935   0.677   3.519
 3204WAT     H213537   6.068   0.651   3.495
 3204WAT    EPW13538   5.992   0.635   3.485
 3205WAT      O13539   6.162   0.895   2.373
 3205WAT     H113540   6.132   0.905   2.291
 3205WAT     H213541   6.248   0.890   2.362
 3205WAT    EPW13542   6.170   0.896   2.359
 3206WAT      O13543   6.525   0.228   2.486
 3206WAT     H113544   6.539   0.237   2.400
 3206WAT     H213545   6.605   0.234   2.521
 3206WAT    EPW13546   6.539   0.230   2.478
 3207WAT      O13547   7.430   0.964   2.067
 3207WAT     H113548   7.462   0.935   2.143
 3207WAT     H213549   7.425   0.892   2.018
 3207WAT    EPW13550   7.434   0.949   2.071
 3208WAT      O13551   7.452   0.262   3.846
 3208WAT     H113552   7.501   0.206   3.800
 3208WAT     H213553   7.405   0.302   3.785
 3208WAT    EPW13554   7.453   0.259   3.830
 3209WAT      O13555   7.123   0.618   2.286
 3209WAT     H113556   7.115   0.596   2.369
 3209WAT     H213557   7.086   0.552   2.243
 3209WAT    EPW13558   7.117   0.605   2.292
 3210WAT      O13559   7.198   0.195   3.946
 3210WAT     H113560   7.281   0.210   3.922
 3210WAT     H213561   7.153   0.206   3.872
 3210WAT    EPW13562   7.204   0.199   3.931
 3211WAT      O13563   6.199   0.850   3.003
 3211WAT     H113564   6.196   0.771   2.966
 3211WAT     H213565   6.156   0.901   2.948
 3211WAT    EPW13566   6.193   0.846   2.990
 3212WAT      O13567   6.776   0.459   2.214
 3212WAT     H113568   6.855   0.433   2.188
 3212WAT     H213569   6.760   0.529   2.164
 3212WAT    EPW13570   6.785   0.466   2.203
 3213WAT      O13571   5.958   1.084   3.363
 3213WAT     H113572   5.968   1.059   3.446
 3213WAT     H213573   5.995   1.019   3.318
 3213WAT    EPW13574   5.965   1.071   3.369
 3214WAT      O13575   5.845   0.395   0.715
 3214WAT     H113576   5.857   0.443   0.786
 3214WAT     H213577   5.798   0.327   0.743
 3214WAT    EPW13578   5.840   0.392   0.729
 3215WAT      O13579   7.524   0.801   0.455
 3215WAT     H113580   7.602   0.767   0.474
 3215WAT     H213581   7.480   0.735   0.420
 3215WAT    EPW13582   7.529   0.786   0.453
 3216WAT      O13583   6.088   0.319   0.225
 3216WAT     H113584   6.069   0.291   0.145
 3216WAT     H213585   6.096   0.245   0.271
 3216WAT    EPW13586   6.087   0.304   0.220
 3217WAT      O13587   6.101   0.476   0.614
 3217WAT     H113588   6.170   0.428   0.636
 3217WAT     H213589   6.033   0.430   0.643
 3217WAT    EPW13590   6.101   0.462   0.622
 3218WAT      O13591   6.017   0.818   0.268
 3218WAT     H113592   6.052   0.826   0.189
 3218WAT     H213593   6.039   0.737   0.292
 3218WAT    EPW13594   6.025   0.807   0.260
 3219WAT      O13595   5.880   0.678   1.349
 3219WAT     H113596   5.916   0.652   1.424
 3219WAT     H213597   5.813   0.623   1.338
 3219WAT    EPW13598   5.876   0.666   1.358
 3220WAT      O13599   6.515   0.457   1.772
 3220WAT     H113600   6.488   0.440   1.853
 3220WAT     H213601   6.448   0.433   1.723
 3220WAT    EPW13602   6.501   0.451   1.777
 3221WAT      O13603   6.511   0.749   1.520
 3221WAT     H113604   6.525   0.814   1.463
 3221WAT     H213605   6.591   0.723   1.541
 3221WAT    EPW13606   6.525   0.755   1.515
 3222WAT      O13607   6.639   0.551   0.950
 3222WAT     H113608   6.660   0.472   0.981
 3222WAT     H213609   6.716   0.591   0.944
 3222WAT    EPW13610   6.654   0.545   0.954
 3223WAT      O13611   6.722   0.522   0.611
 3223WAT     H113612   6.729   0.453   0.665
 3223WAT     H213613   6.731   0.487   0.532
 3223WAT    EPW13614   6.724   0.506   0.607
 3224WAT      O13615   5.859   0.863   0.870
 3224WAT     H113616   5.799   0.910   0.828
 3224WAT     H213617   5.899   0.818   0.806
 3224WAT    EPW13618   5.856   0.863   0.854
 3225WAT      O13619   6.491   0.675   0.567
 3225WAT     H113620   6.449   0.648   0.638
 3225WAT     H213621   6.569   0.637   0.573
 3225WAT    EPW13622   6.497   0.665   0.578
 3226WAT      O13623   6.994   0.825   0.345
 3226WAT     H113624   7.057   0.884   0.348
 3226WAT     H213625   7.034   0.750   0.366
 3226WAT    EPW13626   7.009   0.823   0.349
 3227WAT      O13627   6.841   0.907   0.559
 3227WAT     H113628   6.873   0.983   0.587
 3227WAT     H213629   6.889   0.889   0.489
 3227WAT    EPW13630   6.853   0.916   0.553
 3228WAT      O13631   5.999   0.736   0.659
 3228WAT     H113632   6.048   0.664   0.663
 3228WAT     H213633   6.048   0.792   0.612
 3228WAT    EPW13634   6.013   0.734   0.653
 3229WAT      O13635   7.076   0.961   1.318
 3229WAT     H113636   7.141   1.016   1.300
 3229WAT     H213637   7.071   0.910   1.247
 3229WAT    EPW13638   7.085   0.961   1.305
 3230WAT      O13639   6.171   0.603   0.981
 3230WAT     H113640   6.237   0.590   0.926
 3230WAT     H213641   6.188   0.548   1.047
 3230WAT    EPW13642   6.183   0.593   0.983
 3231WAT      O13643   6.429   0.858   0.877
 3231WAT     H113644   6.507   0.886   0.852
 3231WAT     H213645   6.373   0.914   0.840
 3231WAT    EPW13646   6.432   0.870   0.868
 3232WAT      O13647   7.199   0.999   0.406
 3232WAT     H113648   7.268   1.001   0.353
 3232WAT     H213649   7.232   0.971   0.481
 3232WAT    EPW13650   7.214   0.995   0.409
 3233WAT      O13651   6.308   0.997   1.498
 3233WAT     H113652   6.335   0.975   1.578
 3233WAT     H213653   6.240   0.944   1.484
 3233WAT    EPW13654   6.302   0.986   1.508
 3234WAT      O13655   6.980   0.676   1.746
 3234WAT     H113656   6.975   0.708   1.827
 3234WAT     H213657   7.066   0.666   1.734
 3234WAT    EPW13658   6.992   0.679   1.756
 3235WAT      O13659   6.769   0.687   0.241
 3235WAT     H113660   6.707   0.747   0.244
 3235WAT     H213661   6.842   0.732   0.259
 3235WAT    EPW13662   6.771   0.702   0.244
 3236WAT      O13663   6.082   0.868   1.373
 3236WAT     H113664   6.015   0.813   1.368
 3236WAT     H213665   6.120   0.861   1.295
 3236WAT    EPW13666   6.078   0.859   1.360
 3237WAT      O13667   6.847   0.952   1.463
 3237WAT     H113668   6.922   0.954   1.417
 3237WAT     H213669   6.785   0.948   1.402
 3237WAT    EPW13670   6.849   0.952   1.447
 3238WAT      O13671   7.474   1.006   0.860
 3238WAT     H113672   7.482   1.085   0.824
 3238WAT     H213673   7.439   0.958   0.796
 3238WAT    EPW13674   7.470   1.011   0.845
 3239WAT      O13675   7.225   0.655   0.725
 3239WAT     H113676   7.254   0.573   0.723
 3239WAT     H213677   7.138   0.646   0.721
 3239WAT    EPW13678   7.216   0.641   0.724
 3240WAT      O13679   6.257   0.680   1.650
 3240WAT     H113680   6.330   0.716   1.620
 3240WAT     H213681   6.240   0.726   1.723
 3240WAT    EPW13682   6.265   0.692   1.656
 3241WAT      O13683   6.405   0.232   1.137
 3241WAT     H113684   6.424   0.235   1.222
 3241WAT     H213685   6.366   0.154   1.127
 3241WAT    EPW13686   6.402   0.221   1.148
 3242WAT      O13687   6.468   0.312   1.400
 3242WAT     H113688   6.463   0.395   1.375
 3242WAT     H213689   6.416   0.308   1.471
 3242WAT    EPW13690   6.459   0.323   1.407
 3243WAT      O13691   7.110   0.387   1.364
 3243WAT     H113692   7.051   0.339   1.406
 3243WAT     H213693   7.085   0.469   1.380
 3243WAT    EPW13694   7.098   0.392   1.373
 3244WAT      O13695   5.768   0.661   1.924
 3244WAT     H113696   5.820   0.659   1.994
 3244WAT     H213697   5.755   0.576   1.907
 3244WAT    EPW13698   5.774   0.648   1.932
 3245WAT      O13699   7.412   0.339   0.313
 3245WAT     H113700   7.408   0.289   0.385
 3245WAT     H213701   7.439   0.284   0.251
 3245WAT    EPW13702   7.415   0.324   0.315
 3246WAT      O13703   6.124   0.158   0.812
 3246WAT     H113704   6.193   0.193   0.772
 3246WAT     H213705   6.113   0.081   0.772
 3246WAT    EPW13706   6.133   0.152   0.800
 3247WAT      O13707   6.064   1.022   0.960
 3247WAT     H113708   5.991   0.982   0.933
 3247WAT     H213709   6.114   1.024   0.889
 3247WAT    EPW13710   6.061   1.017   0.946
 3248WAT      O13711   6.328   0.333   0.682
 3248WAT     H113712   6.366   0.398   0.726
 3248WAT     H213713   6.383   0.318   0.616
 3248WAT    EPW13714   6.342   0.340   0.679
 3249WAT      O13715   5.906   0.523   0.951
 3249WAT     H113716   5.855   0.579   0.993
 3249WAT     H213717   5.985   0.559   0.956
 3249WAT    EPW13718   5.910   0.537   0.958
 3250WAT      O13719   6.858   0.724   0.919
 3250WAT     H113720   6.809   0.793   0.898
 3250WAT     H213721   6.895   0.702   0.843
 3250WAT    EPW13722   6.856   0.731   0.905
 3251WAT      O13723   5.813   0.584   0.516
 3251WAT     H113724   5.871   0.640   0.552
 3251WAT     H213725   5.806   0.521   0.576
 3251WAT    EPW13726   5.821   0.583   0.530
 3252WAT      O13727   6.223   0.438   1.193
 3252WAT     H113728   6.276   0.486   1.243
 3252WAT     H213729   6.274   0.373   1.165
 3252WAT    EPW13730   6.239   0.436   1.196
 3253WAT      O13731   5.821   0.395   0.308
 3253WAT     H113732   5.903   0.380   0.283
 3253WAT     H213733   5.828   0.460   0.366
 3253WAT    EPW13734   5.834   0.403   0.313
 3254WAT      O13735   5.938   0.250   1.005
 3254WAT     H113736   5.999   0.220   0.949
 3254WAT     H213737   5.938   0.336   0.989
 3254WAT    EPW13738   5.947   0.259   0.994
 3255WAT      O13739   7.290   0.796   1.503
 3255WAT     H113740   7.283   0.874   1.542
 3255WAT     H213741   7.332   0.814   1.428
 3255WAT    EPW13742   7.295   0.810   1.498
 3256WAT      O13743   6.400   0.592   0.817
 3256WAT     H113744   6.399   0.678   0.833
 3256WAT     H213745   6.475   0.566   0.853
 3256WAT    EPW13746   6.411   0.601   0.825
 3257WAT      O13747   6.622   0.914   1.309
 3257WAT     H113748   6.602   0.852   1.250
 3257WAT     H213749   6.611   0.988   1.265
 3257WAT    EPW13750   6.618   0.915   1.293
 3258WAT      O13751   7.269   0.368   1.769
 3258WAT     H113752   7.271   0.454   1.759
 3258WAT     H213753   7.289   0.337   1.689
 3258WAT    EPW13754   7.272   0.376   1.756
 3259WAT      O13755   6.608   0.723   1.818
 3259WAT     H113756   6.641   0.711   1.898
 3259WAT     H213757   6.578   0.644   1.796
 3259WAT    EPW13758   6.608   0.709   1.827
 3260WAT      O13759   7.321   0.387   0.735
 3260WAT     H113760   7.386   0.381   0.792
 3260WAT     H213761   7.344   0.331   0.672
 3260WAT    EPW13762   7.334   0.377   0.734
 3261WAT      O13763   7.063   0.772   1.107
 3261WAT     H113764   6.996   0.751   1.056
 3261WAT     H213765   7.103   0.836   1.062
 3261WAT    EPW13766   7.059   0.778   1.093
 3262WAT      O13767   7.050   0.437   1.089
 3262WAT     H113768   6.976   0.478   1.112
 3262WAT     H213769   7.074   0.395   1.162
 3262WAT    EPW13770   7.043   0.437   1.103
 3263WAT      O13771   6.419   0.929   0.462
 3263WAT     H113772   6.438   0.857   0.507
 3263WAT     H213773   6.486   0.938   0.407
 3263WAT    EPW13774   6.432   0.920   0.461
 3264WAT      O13775   6.662   0.939   0.337
 3264WAT     H113776   6.705   0.919   0.411
 3264WAT     H213777   6.682   1.022   0.323
 3264WAT    EPW13778   6.671   0.948   0.346
 3265WAT      O13779   7.331   0.298   1.511
 3265WAT     H113780   7.262   0.319   1.461
 3265WAT     H213781   7.399   0.323   1.462
 3265WAT    EPW13782   7.331   0.305   1.496
 3266WAT      O13783   6.974   0.814   1.993
 3266WAT     H113784   6.998   0.838   2.073
 3266WAT     H213785   6.997   0.882   1.943
 3266WAT    EPW13786   6.981   0.827   1.998
 3267WAT      O13787   6.920   0.244   1.511
 3267WAT     H113788   6.875   0.296   1.564
 3267WAT     H213789   6.948   0.179   1.563
 3267WAT    EPW13790   6.917   0.242   1.526
 3268WAT      O13791   7.302   0.564   1.193
 3268WAT     H113792   7.244   0.561   1.128
 3268WAT     H213793   7.260   0.529   1.261
 3268WAT    EPW13794   7.287   0.558   1.193
 3269WAT      O13795   6.665   0.284   1.031
 3269WAT     H113796   6.582   0.264   1.047
 3269WAT     H213797   6.703   0.277   1.110
 3269WAT    EPW13798   6.659   0.280   1.045
 3270WAT      O13799   5.974   0.338   1.270
 3270WAT     H113800   6.048   0.380   1.252
 3270WAT     H213801   5.961   0.287   1.201
 3270WAT    EPW13802   5.983   0.336   1.257
 3271WAT      O13803   6.006   0.343   1.553
 3271WAT     H113804   5.998   0.333   1.466
 3271WAT     H213805   5.993   0.428   1.565
 3271WAT    EPW13806   6.003   0.354   1.542
 3272WAT      O13807   7.367   0.613   0.337
 3272WAT     H113808   7.387   0.529   0.323
 3272WAT     H213809   7.284   0.609   0.367
 3272WAT    EPW13810   7.357   0.600   0.339
 3273WAT      O13811   6.995   0.411   0.226
 3273WAT     H113812   7.057   0.361   0.191
 3273WAT     H213813   6.968   0.461   0.160
 3273WAT    EPW13814   7.000   0.411   0.211
 3274WAT      O13815   6.429   0.574   1.323
 3274WAT     H113816   6.446   0.624   1.392
 3274WAT     H213817   6.457   0.621   1.255
 3274WAT    EPW13818   6.435   0.588   1.323
 3275WAT      O13819   6.284   0.400   1.612
 3275WAT     H113820   6.205   0.367   1.599
 3275WAT     H213821   6.270   0.486   1.618
 3275WAT    EPW13822   6.270   0.408   1.611
 3276WAT      O13823   6.733   0.288   1.307
 3276WAT     H113824   6.789   0.259   1.366
 3276WAT     H213825   6.656   0.286   1.349
 3276WAT    EPW13826   6.730   0.283   1.322
 3277WAT      O13827   6.693   0.933   0.816
 3277WAT     H113828   6.694   1.017   0.838
 3277WAT     H213829   6.721   0.933   0.733
 3277WAT    EPW13830   6.697   0.945   0.807
 3278WAT      O13831   6.521   0.735   1.120
 3278WAT     H113832   6.479   0.782   1.059
 3278WAT     H213833   6.568   0.678   1.073
 3278WAT    EPW13834   6.522   0.734   1.104
 3279WAT      O13835   6.991   0.370   1.850
 3279WAT     H113836   7.065   0.384   1.807
 3279WAT     H213837   6.930   0.406   1.798
 3279WAT    EPW13838   6.993   0.378   1.836
 3280WAT      O13839   7.256   0.639   1.730
 3280WAT     H113840   7.304   0.676   1.793
 3280WAT     H213841   7.279   0.683   1.659
 3280WAT    EPW13842   7.266   0.651   1.729
 3281WAT      O13843   6.757   0.946   1.726
 3281WAT     H113844   6.779   0.935   1.642
 3281WAT     H213845   6.720   0.870   1.748
 3281WAT    EPW13846   6.755   0.933   1.717
 3282WAT      O13847   7.394   0.179   0.549
 3282WAT     H113848   7.465   0.132   0.568
 3282WAT     H213849   7.330   0.121   0.551
 3282WAT    EPW13850   7.395   0.164   0.552
 3283WAT      O13851   6.773   0.423   1.660
 3283WAT     H113852   6.695   0.421   1.699
 3283WAT     H213853   6.774   0.500   1.619
 3283WAT    EPW13854   6.762   0.434   1.660
 3284WAT      O13855   6.327   1.065   1.224
 3284WAT     H113856   6.325   1.052   1.310
 3284WAT     H213857   6.299   0.989   1.191
 3284WAT    EPW13858   6.323   1.052   1.232
 3285WAT      O13859   7.050   0.377   0.818
 3285WAT     H113860   7.054   0.395   0.903
 3285WAT     H213861   7.134   0.371   0.794
 3285WAT    EPW13862   7.063   0.379   0.827
 3286WAT      O13863   6.784   0.305   0.771
 3286WAT     H113864   6.752   0.287   0.850
 3286WAT     H213865   6.869   0.318   0.785
 3286WAT    EPW13866   6.792   0.305   0.784
 3287WAT      O13867   6.789   0.682   1.549
 3287WAT     H113868   6.847   0.683   1.614
 3287WAT     H213869   6.819   0.742   1.493
 3287WAT    EPW13870   6.802   0.691   1.550
 3288WAT      O13871   5.976   1.028   1.746
 3288WAT     H113872   5.920   0.963   1.731
 3288WAT     H213873   5.926   1.093   1.776
 3288WAT    EPW13874   5.961   1.028   1.748
 3289WAT      O13875   7.160   1.021   1.021
 3289WAT     H113876   7.097   1.077   1.045
 3289WAT     H213877   7.228   1.046   1.069
 3289WAT    EPW13878   7.161   1.033   1.032
 3290WAT      O13879   6.824   0.539   1.221
 3290WAT     H113880   6.790   0.466   1.254
 3290WAT     H213881   6.861   0.577   1.291
 3290WAT    EPW13882   6.825   0.533   1.236
 3291WAT      O13883   7.423   0.714   1.942
 3291WAT     H113884   7.502   0.683   1.924
 3291WAT     H213885   7.403   0.677   2.018
 3291WAT    EPW13886   7.432   0.704   1.950
 3292WAT      O13887   6.947   0.667   0.659
 3292WAT     H113888   6.918   0.745   0.631
 3292WAT     H213889   6.879   0.615   0.648
 3292WAT    EPW13890   6.933   0.671   0.653
 3293WAT      O13891   6.388   0.614   0.310
 3293WAT     H113892   6.426   0.631   0.387
 3293WAT     H213893   6.303   0.616   0.328
 3293WAT    EPW13894   6.381   0.617   0.324
 3294WAT      O13895   7.331   0.891   0.635
 3294WAT     H113896   7.298   0.816   0.664
 3294WAT     H213897   7.398   0.866   0.585
 3294WAT    EPW13898   7.336   0.876   0.632
 3295WAT      O13899   6.114   0.571   0.353
 3295WAT     H113900   6.108   0.545   0.436
 3295WAT     H213901   6.107   0.497   0.307
 3295WAT    EPW13902   6.112   0.556   0.358
 3296WAT      O13903   6.373   0.355   0.211
 3296WAT     H113904   6.286   0.352   0.208
 3296WAT     H213905   6.391   0.439   0.229
 3296WAT    EPW13906   6.363   0.367   0.213
 3297WAT      O13907   7.055   0.658   1.366
 3297WAT     H113908   7.105   0.712   1.413
 3297WAT     H213909   7.061   0.689   1.285
 3297WAT    EPW13910   7.063   0.671   1.361
 3298WAT      O13911   7.021   1.008   1.800
 3298WAT     H113912   6.944   0.980   1.770
 3298WAT     H213913   7.007   1.092   1.817
 3298WAT    EPW13914   7.008   1.016   1.798
 3299WAT      O13915   7.509   0.412   1.324
 3299WAT     H113916   7.592   0.425   1.300
 3299WAT     H213917   7.464   0.462   1.269
 3299WAT    EPW13918   7.515   0.421   1.312
 3300WAT      O13919   6.417   0.931   1.754
 3300WAT     H113920   6.402   0.938   1.839
 3300WAT     H213921   6.479   0.870   1.749
 3300WAT    EPW13922   6.424   0.923   1.766
 3301WAT      O13923   7.388   0.833   1.233
 3301WAT     H113924   7.440   0.849   1.165
 3301WAT     H213925   7.357   0.753   1.216
 3301WAT    EPW13926   7.391   0.824   1.220
 3302WAT      O13927   6.130   0.821   1.876
 3302WAT     H113928   6.197   0.854   1.920
 3302WAT     H213929   6.092   0.890   1.840
 3302WAT    EPW13930   6.134   0.836   1.877
 3303WAT      O13931   5.990   0.618   1.591
 3303WAT     H113932   5.939   0.676   1.631
 3303WAT     H213933   6.071   0.648   1.605
 3303WAT    EPW13934   5.995   0.631   1.599
 3304WAT      O13935   6.148   0.910   0.499
 3304WAT     H113936   6.106   0.897   0.424
 3304WAT     H213937   6.232   0.915   0.476
 3304WAT    EPW13938   6.154   0.909   0.485
 3305WAT      O13939   6.496   0.302   0.455
 3305WAT     H113940   6.455   0.306   0.378
 3305WAT     H213941   6.576   0.330   0.437
 3305WAT    EPW13942   6.502   0.307   0.441
 3306WAT      O13943   7.437   0.984   0.263
 3306WAT     H113944   7.476   0.931   0.319
 3306WAT     H213945   7.430   0.936   0.190
 3306WAT    EPW13946   7.441   0.969   0.261
 3307WAT      O13947   7.458   0.260   1.946
 3307WAT     H113948   7.505   0.202   1.900
 3307WAT     H213949   7.410   0.301   1.885
 3307WAT    EPW13950   7.458   0.257   1.930
 3308WAT      O13951   7.101   0.585   0.421
 3308WAT     H113952   7.060   0.581   0.498
 3308WAT     H213953   7.062   0.523   0.374
 3308WAT    EPW13954   7.089   0.576   0.426
 3309WAT      O13955   7.202   0.198   2.044
 3309WAT     H113956   7.285   0.211   2.022
 3309WAT     H213957   7.159   0.212   1.969
 3309WAT    EPW13958   7.208   0.202   2.030
 3310WAT      O13959   6.192   0.843   1.121
 3310WAT     H113960   6.190   0.768   1.077
 3310WAT     H213961   6.149   0.898   1.068
 3310WAT    EPW13962   6.185   0.840   1.107
 3311WAT      O13963   6.740   0.431   0.354
 3311WAT     H113964   6.814   0.398   0.322
 3311WAT     H213965   6.732   0.508   0.313
 3311WAT    EPW13966   6.750   0.437   0.343
 3312WAT      O13967   5.953   1.093   1.472
 3312WAT     H113968   5.962   1.071   1.556
 3312WAT     H213969   5.990   1.027   1.429
 3312WAT    EPW13970   5.960   1.080   1.478
 3313WAT      O13971   5.035   6.667   6.387
 3313WAT     H113972   5.027   6.710   6.311
 3313WAT     H213973   5.121   6.655   6.394
 3313WAT    EPW13974   5.047   6.672   6.377
 3314WAT      O13975   4.993   7.312   6.810
 3314WAT     H113976   4.973   7.393   6.836
 3314WAT     H213977   5.046   7.283   6.873
 3314WAT    EPW13978   4.998   7.320   6.823
 3315WAT      O13979   3.972   7.166   6.056
 3315WAT     H113980   3.891   7.175   6.027
 3315WAT     H213981   3.969   7.095   6.107
 3315WAT    EPW13982   3.960   7.157   6.060
 3316WAT      O13983   5.270   7.475   6.476
 3316WAT     H113984   5.272   7.475   6.389
 3316WAT     H213985   5.210   7.415   6.495
 3316WAT    EPW13986   5.261   7.466   6.466
 3317WAT      O13987   4.633   6.761   6.295
 3317WAT     H113988   4.661   6.808   6.227
 3317WAT     H213989   4.635   6.679   6.264
 3317WAT    EPW13990   4.638   6.756   6.280
 3318WAT      O13991   4.167   7.586   6.401
 3318WAT     H113992   4.114   7.536   6.353
 3318WAT     H213993   4.221   7.529   6.438
 3318WAT    EPW13994   4.167   7.570   6.400
 3319WAT      O13995   4.586   7.120   7.023
 3319WAT     H113996   4.656   7.122   6.972
 3319WAT     H213997   4.563   7.035   7.023
 3319WAT    EPW13998   4.593   7.108   7.016
 3320WAT      O13999   4.299   7.370   6.531
 3320WAT     H114000   4.372   7.322   6.538
 3320WAT     H214001   4.237   7.312   6.512
 3320WAT    EPW14002   4.301   7.355   6.529
 3321WAT      O14003   4.989   7.326   7.487
 3321WAT     H114004   4.902   7.318   7.487
 3321WAT     H214005   5.005   7.367   7.411
 3321WAT    EPW14006   4.978   7.331   7.476
 3322WAT      O14007   4.381   6.843   6.370
 3322WAT     H114008   4.346   6.885   6.302
 3322WAT     H214009   4.463   6.826   6.344
 3322WAT    EPW14010   4.388   6.846   6.356
 3323WAT      O14011   5.419   6.578   7.343
 3323WAT     H114012   5.408   6.650   7.295
 3323WAT     H214013   5.340   6.563   7.376
 3323WAT    EPW14014   5.406   6.586   7.341
 3324WAT      O14015   4.727   6.764   6.555
 3324WAT     H114016   4.723   6.849   6.571
 3324WAT     H214017   4.698   6.757   6.473
 3324WAT    EPW14018   4.722   6.775   6.545
 3325WAT      O14019   5.157   6.988   5.800
 3325WAT     H114020   5.108   7.051   5.835
 3325WAT     H214021   5.173   6.935   5.868
 3325WAT    EPW14022   5.152   6.989   5.816
 3326WAT      O14023   3.967   7.236   6.743
 3326WAT     H114024   4.015   7.304   6.770
 3326WAT     H214025   3.905   7.229   6.804
 3326WAT    EPW14026   3.965   7.245   6.756
 3327WAT      O14027   4.271   6.778   6.778
 3327WAT     H114028   4.219   6.716   6.748
 3327WAT     H214029   4.334   6.734   6.820
 3327WAT    EPW14030   4.273   6.763   6.780
 3328WAT      O14031   5.722   6.965   6.487
 3328WAT     H114032   5.671   7.034   6.501
 3328WAT     H214033   5.665   6.900   6.476
 3328WAT    EPW14034   5.706   6.965   6.488
 3329WAT      O14035   4.177   6.942   7.570
 3329WAT     H114036   4.102   6.896   7.570
 3329WAT     H214037   4.233   6.890   7.527
 3329WAT    EPW14038   4.174   6.928   7.563
 3330WAT      O14039   4.818   6.751   7.541
 3330WAT     H114040   4.828   6.671   7.507
 3330WAT     H214041   4.748   6.782   7.499
 3330WAT    EPW14042   4.809   6.743   7.529
 3331WAT      O14043   4.884   7.196   6.410
 3331WAT     H114044   4.911   7.146   6.343
 3331WAT     H214045   4.958   7.218   6.450
 3331WAT    EPW14046   4.899   7.192   6.406
 3332WAT      O14047   4.985   7.173   5.937
 3332WAT     H114048   4.997   7.252   5.971
 3332WAT     H214049   4.907   7.179   5.898
 3332WAT    EPW14050   4.975   7.185   5.936
 3333WAT      O14051   5.632   6.896   6.918
 3333WAT     H114052   5.693   6.881   6.857
 3333WAT     H214053   5.654   6.842   6.982
 3333WAT    EPW14054   5.645   6.886   6.919
 3334WAT      O14055   3.884   6.955   7.307
 3334WAT     H114056   3.877   7.025   7.359
 3334WAT     H214057   3.949   6.977   7.253
 3334WAT    EPW14058   3.893   6.969   7.307
 3335WAT      O14059   5.207   6.812   6.006
 3335WAT     H114060   5.263   6.746   6.007
 3335WAT     H214061   5.230   6.859   6.076
 3335WAT    EPW14062   5.219   6.810   6.017
 3336WAT      O14063   3.983   6.951   6.238
 3336WAT     H114064   3.966   6.866   6.228
 3336WAT     H214065   3.951   6.969   6.317
 3336WAT    EPW14066   3.976   6.941   6.248
 3337WAT      O14067   4.972   7.050   6.189
 3337WAT     H114068   4.935   6.972   6.175
 3337WAT     H214069   4.970   7.088   6.111
 3337WAT    EPW14070   4.966   7.044   6.175
 3338WAT      O14071   4.963   6.762   6.131
 3338WAT     H114072   4.898   6.749   6.074
 3338WAT     H214073   5.033   6.772   6.080
 3338WAT    EPW14074   4.964   6.762   6.115
 3339WAT      O14075   4.742   7.037   6.588
 3339WAT     H114076   4.785   7.090   6.533
 3339WAT     H214077   4.762   7.069   6.667
 3339WAT    EPW14078   4.751   7.049   6.592
 3340WAT      O14079   4.346   6.581   6.460
 3340WAT     H114080   4.355   6.665   6.438
 3340WAT     H214081   4.330   6.541   6.384
 3340WAT    EPW14082   4.345   6.587   6.445
 3341WAT      O14083   5.123   6.970   7.154
 3341WAT     H114084   5.113   7.008   7.232
 3341WAT     H214085   5.059   6.911   7.151
 3341WAT    EPW14086   5.112   6.967   7.165
 3342WAT      O14087   5.301   6.599   6.467
 3342WAT     H114088   5.302   6.585   6.553
 3342WAT     H214089   5.336   6.527   6.433
 3342WAT    EPW14090   5.306   6.587   6.475
 3343WAT      O14091   5.516   7.056   7.236
 3343WAT     H114092   5.599   7.045   7.213
 3343WAT     H214093   5.521   7.076   7.321
 3343WAT    EPW14094   5.529   7.058   7.245
 3344WAT      O14095   4.276   6.979   6.584
 3344WAT     H114096   4.305   6.931   6.517
 3344WAT     H214097   4.273   6.922   6.650
 3344WAT    EPW14098   4.280   6.963   6.584
 3345WAT      O14099   4.133   7.059   6.876
 3345WAT     H114100   4.214   7.083   6.857
 3345WAT     H214101   4.083   7.116   6.832
 3345WAT    EPW14102   4.137   7.071   6.867
 3346WAT      O14103   5.398   7.455   5.945
 3346WAT     H114104   5.403   7.541   5.936
 3346WAT     H214105   5.364   7.444   6.025
 3346WAT    EPW14106   5.394   7.466   5.956
 3347WAT      O14107   5.697   6.865   5.916
 3347WAT     H114108   5.744   6.813   5.865
 3347WAT     H214109   5.677   6.932   5.865
 3347WAT    EPW14110   5.701   6.867   5.901
 3348WAT      O14111   5.788   7.240   7.181
 3348WAT     H114112   5.863   7.196   7.169
 3348WAT     H214113   5.748   7.234   7.104
 3348WAT    EPW14114   5.793   7.232   7.168
 3349WAT      O14115   5.573   6.775   6.150
 3349WAT     H114116   5.647   6.738   6.178
 3349WAT     H214117   5.598   6.818   6.078
 3349WAT    EPW14118   5.587   6.776   6.144
 3350WAT      O14119   5.254   7.033   6.612
 3350WAT     H114120   5.286   6.998   6.685
 3350WAT     H214121   5.193   6.976   6.587
 3350WAT    EPW14122   5.250   7.020   6.619
 3351WAT      O14123   4.700   6.934   6.087
 3351WAT     H114124   4.676   6.925   6.004
 3351WAT     H214125   4.680   7.017   6.106
 3351WAT    EPW14126   4.693   6.945   6.077
 3352WAT      O14127   4.264   7.212   7.538
 3352WAT     H114128   4.233   7.132   7.556
 3352WAT     H214129   4.269   7.212   7.451
 3352WAT    EPW14130   4.260   7.200   7.528
 3353WAT      O14131   4.347   7.221   6.038
 3353WAT     H114132   4.323   7.156   6.091
 3353WAT     H214133   4.286   7.220   5.975
 3353WAT    EPW14134   4.334   7.211   6.036
 3354WAT      O14135   4.194   7.394   6.795
 3354WAT     H114136   4.220   7.415   6.714
 3354WAT     H214137   4.250   7.331   6.818
 3354WAT    EPW14138   4.206   7.388   6.786
 3355WAT      O14139   4.329   7.389   7.065
 3355WAT     H114140   4.372   7.344   7.004
 3355WAT     H214141   4.268   7.432   7.019
 3355WAT    EPW14142   4.326   7.389   7.049
 3356WAT      O14143   5.400   7.213   6.885
 3356WAT     H114144   5.328   7.232   6.929
 3356WAT     H214145   5.401   7.271   6.820
 3356WAT    EPW14146   5.390   7.224   6.882
 3357WAT      O14147   4.963   6.751   7.228
 3357WAT     H114148   4.987   6.669   7.209
 3357WAT     H214149   4.995   6.762   7.309
 3357WAT    EPW14150   4.971   6.740   7.237
 3358WAT      O14151   5.238   6.968   6.230
 3358WAT     H114152   5.290   7.037   6.240
 3358WAT     H214153   5.158   7.003   6.227
 3358WAT    EPW14154   5.234   6.983   6.231
 3359WAT      O14155   4.798   7.115   6.845
 3359WAT     H114156   4.862   7.175   6.841
 3359WAT     H214157   4.839   7.044   6.875
 3359WAT    EPW14158   4.814   7.113   6.849
 3360WAT      O14159   5.006   7.416   6.079
 3360WAT     H114160   4.991   7.489   6.034
 3360WAT     H214161   4.936   7.410   6.132
 3360WAT    EPW14162   4.993   7.426   6.080
 3361WAT      O14163   4.481   6.656   5.964
 3361WAT     H114164   4.436   6.615   6.027
 3361WAT     H214165   4.433   6.727   5.948
 3361WAT    EPW14166   4.467   6.660   5.971
 3362WAT      O14167   5.606   6.631   7.546
 3362WAT     H114168   5.549   6.614   7.483
 3362WAT     H214169   5.558   6.625   7.619
 3362WAT    EPW14170   5.591   6.627   7.548
 3363WAT      O14171   3.898   6.685   6.211
 3363WAT     H114172   3.912   6.628   6.146
 3363WAT     H214173   3.879   6.633   6.279
 3363WAT    EPW14174   3.897   6.669   6.212
 3364WAT      O14175   4.783   7.396   6.247
 3364WAT     H114176   4.748   7.460   6.296
 3364WAT     H214177   4.808   7.337   6.306
 3364WAT    EPW14178   4.782   7.397   6.263
 3365WAT      O14179   4.333   6.890   5.909
 3365WAT     H114180   4.279   6.905   5.842
 3365WAT     H214181   4.406   6.931   5.886
 3365WAT    EPW14182   4.336   6.898   5.896
 3366WAT      O14183   4.485   7.160   6.595
 3366WAT     H114184   4.562   7.121   6.584
 3366WAT     H214185   4.428   7.096   6.584
 3366WAT    EPW14186   4.488   7.145   6.592
 3367WAT      O14187   4.005   7.344   6.282
 3367WAT     H114188   4.029   7.290   6.347
 3367WAT     H214189   4.019   7.297   6.210
 3367WAT    EPW14190   4.010   7.329   6.281
 3368WAT      O14191   4.512   7.357   5.848
 3368WAT     H114192   4.466   7.326   5.915
 3368WAT     H214193   4.453   7.367   5.784
 3368WAT    EPW14194   4.497   7.354   5.848
 3369WAT      O14195   4.622   7.197   6.123
 3369WAT     H114196   4.659   7.269   6.155
 3369WAT     H214197   4.539   7.220   6.109
 3369WAT    EPW14198   4.615   7.211   6.126
 3370WAT      O14199   5.372   6.950   7.492
 3370WAT     H114200   5.328   6.899   7.547
 3370WAT     H214201   5.368   6.906   7.417
 3370WAT    EPW14202   5.365   6.936   7.489
 3371WAT      O14203   3.953   6.869   6.733
 3371WAT     H114204   3.935   6.907   6.656
 3371WAT     H214205   4.025   6.910   6.760
 3371WAT    EPW14206   3.961   6.881   6.725
 3372WAT      O14207   5.251   7.315   7.593
 3372WAT     H114208   5.247   7.311   7.680
 3372WAT     H214209   5.170   7.336   7.570
 3372WAT    EPW14210   5.239   7.318   7.603
 3373WAT      O14211   5.491   7.399   7.474
 3373WAT     H114212   5.496   7.485   7.492
 3373WAT     H214213   5.417   7.375   7.513
 3373WAT    EPW14214   5.481   7.408   7.483
 3374WAT      O14215   5.498   7.141   6.527
 3374WAT     H114216   5.429   7.095   6.553
 3374WAT     H214217   5.492   7.215   6.572
 3374WAT    EPW14218   5.487   7.145   6.538
 3375WAT      O14219   5.357   6.831   7.218
 3375WAT     H114220   5.413   6.897   7.208
 3375WAT     H214221   5.281   6.866   7.192
 3375WAT    EPW14222   5.354   6.846   7.212
 3376WAT      O14223   4.575   7.107   7.304
 3376WAT     H114224   4.585   7.024   7.326
 3376WAT     H214225   4.593   7.108   7.219
 3376WAT    EPW14226   4.579   7.095   7.295
 3377WAT      O14227   5.431   6.634   7.020
 3377WAT     H114228   5.399   6.704   7.062
 3377WAT     H214229   5.516   6.636   7.039
 3377WAT    EPW14230   5.439   6.645   7.029
 3378WAT      O14231   4.694   6.695   7.166
 3378WAT     H114232   4.776   6.723   7.176
 3378WAT     H214233   4.703   6.619   7.125
 3378WAT    EPW14234   4.707   6.688   7.162
 3379WAT      O14235   5.641   7.302   5.916
 3379WAT     H114236   5.699   7.345   5.868
 3379WAT     H214237   5.569   7.352   5.911
 3379WAT    EPW14238   5.639   7.316   5.908
 3380WAT      O14239   4.386   7.197   6.851
 3380WAT     H114240   4.424   7.189   6.773
 3380WAT     H214241   4.447   7.168   6.906
 3380WAT    EPW14242   4.401   7.191   6.848
 3381WAT      O14243   5.125   7.093   7.411
 3381WAT     H114244   5.074   7.152   7.451
 3381WAT     H214245   5.200   7.097   7.455
 3381WAT    EPW14246   5.129   7.103   7.423
 3382WAT      O14247   5.148   7.209   7.008
 3382WAT     H114248   5.148   7.256   7.081
 3382WAT     H214249   5.139   7.127   7.037
 3382WAT    EPW14250   5.147   7.204   7.023
 3383WAT      O14251   5.399   7.198   6.274
 3383WAT     H114252   5.423   7.177   6.356
 3383WAT     H214253   5.471   7.235   6.241
 3383WAT    EPW14254   5.414   7.200   6.281
 3384WAT      O14255   4.707   6.682   6.824
 3384WAT     H114256   4.622   6.670   6.839
 3384WAT     H214257   4.711   6.696   6.738
 3384WAT    EPW14258   4.695   6.682   6.814
 3385WAT      O14259   5.518   6.777   6.427
 3385WAT     H114260   5.441   6.739   6.442
 3385WAT     H214261   5.516   6.794   6.341
 3385WAT    EPW14262   5.506   6.774   6.416
 3386WAT      O14263   3.963   6.762   7.489
 3386WAT     H114264   3.939   6.826   7.434
 3386WAT     H214265   3.887   6.732   7.520
 3386WAT    EPW14266   3.948   6.767   7.486
 3387WAT      O14267   4.258   6.984   6.165
 3387WAT     H114268   4.269   6.943   6.089
 3387WAT     H214269   4.173   6.972   6.183
 3387WAT    EPW14270   4.247   6.976   6.156
 3388WAT      O14271   5.683   7.198   7.434
 3388WAT     H114272   5.633   7.265   7.460
 3388WAT     H214273   5.723   7.227   7.363
 3388WAT    EPW14274   5.681   7.212   7.428
 3389WAT      O14275   5.160   7.329   7.253
 3389WAT     H114276   5.158   7.254   7.298
 3389WAT     H214277   5.245   7.344   7.240
 3389WAT    EPW14278   5.172   7.320   7.258
 3390WAT      O14279   4.309   7.186   7.257
 3390WAT     H114280   4.316   7.259   7.209
 3390WAT     H214281   4.391   7.165   7.275
 3390WAT    EPW14282   4.322   7.194   7.253
 3391WAT      O14283   4.111   7.028   7.148
 3391WAT     H114284   4.117   7.040   7.062
 3391WAT     H214285   4.175   7.076   7.181
 3391WAT    EPW14286   4.121   7.037   7.141
 3392WAT      O14287   5.625   7.338   6.194
 3392WAT     H114288   5.640   7.333   6.108
 3392WAT     H214289   5.705   7.341   6.229
 3392WAT    EPW14290   5.639   7.338   6.187
 3393WAT      O14291   4.318   6.752   7.411
 3393WAT     H114292   4.267   6.685   7.434
 3393WAT     H214293   4.288   6.774   7.332
 3393WAT    EPW14294   4.306   6.746   7.403
 3394WAT      O14295   5.430   7.326   7.209
 3394WAT     H114296   5.463   7.246   7.200
 3394WAT     H214297   5.465   7.355   7.283
 3394WAT    EPW14298   5.440   7.318   7.218
 3395WAT      O14299   4.140   7.199   5.839
 3395WAT     H114300   4.087   7.190   5.908
 3395WAT     H214301   4.139   7.120   5.802
 3395WAT    EPW14302   4.132   7.186   5.844
 3396WAT      O14303   5.076   6.824   7.480
 3396WAT     H114304   5.082   6.909   7.466
 3396WAT     H214305   4.997   6.814   7.517
 3396WAT    EPW14306   5.065   6.835   7.483
 3397WAT      O14307   5.030   6.864   6.583
 3397WAT     H114308   4.948   6.892   6.586
 3397WAT     H214309   5.028   6.802   6.522
 3397WAT    EPW14310   5.018   6.859   6.575
 3398WAT      O14311   5.359   6.940   6.854
 3398WAT     H114312   5.439   6.907   6.865
 3398WAT     H214313   5.368   7.024   6.874
 3398WAT    EPW14314   5.372   6.948   6.858
 3399WAT      O14315   5.448   7.381   6.664
 3399WAT     H114316   5.515   7.437   6.667
 3399WAT     H214317   5.394   7.417   6.606
 3399WAT    EPW14318   5.450   7.394   6.656
 3400WAT      O14319   4.504   6.863   7.046
 3400WAT     H114320   4.426   6.828   7.064
 3400WAT     H214321   4.561   6.803   7.074
 3400WAT    EPW14322   4.501   6.849   7.053
 3401WAT      O14323   5.693   6.730   7.133
 3401WAT     H114324   5.711   6.788   7.195
 3401WAT     H214325   5.767   6.685   7.124
 3401WAT    EPW14326   5.706   6.732   7.141
 3402WAT      O14327   4.893   6.869   6.925
 3402WAT     H114328   4.834   6.811   6.899
 3402WAT     H214329   4.969   6.832   6.904
 3402WAT    EPW14330   4.896   6.855   6.918
 3403WAT      O14331   4.712   7.291   7.466
 3403WAT     H114332   4.674   7.233   7.413
 3403WAT     H214333   4.647   7.321   7.516
 3403WAT    EPW14334   4.697   7.287   7.466
 3404WAT      O14335   4.763   6.672   5.929
 3404WAT     H114336   4.775   6.687   5.844
 3404WAT     H214337   4.677   6.679   5.940
 3404WAT    EPW14338   4.752   6.675   5.918
 3405WAT      O14339   4.247   6.782   7.146
 3405WAT     H114340   4.187   6.725   7.117
 3405WAT     H214341   4.208   6.859   7.140
 3405WAT    EPW14342   4.232   6.785   7.141
 3406WAT      O14343   5.135   6.770   6.825
 3406WAT     H114344   5.200   6.825   6.843
 3406WAT     H214345   5.105   6.798   6.747
 3406WAT    EPW14346   5.140   6.782   6.816
 3407WAT      O14347   5.106   7.264   6.560
 3407WAT     H114348   5.157   7.195   6.575
 3407WAT     H214349   5.072   7.282   6.638
 3407WAT    EPW14350   5.109   7.257   6.574
 3408WAT      O14351   4.097   7.183   6.498
 3408WAT     H114352   4.044   7.193   6.567
 3408WAT     H214353   4.142   7.111   6.517
 3408WAT    EPW14354   4.096   7.174   6.511
 3409WAT      O14355   5.266   7.429   6.193
 3409WAT     H114356   5.295   7.350   6.218
 3409WAT     H214357   5.185   7.413   6.167
 3409WAT    EPW14358   5.259   7.415   6.193
 3410WAT      O14359   5.598   7.035   7.654
 3410WAT     H114360   5.643   7.087   7.601
 3410WAT     H214361   5.531   7.008   7.605
 3410WAT    EPW14362   5.595   7.039   7.639
 3411WAT      O14363   5.671   7.173   6.936
 3411WAT     H114364   5.588   7.198   6.926
 3411WAT     H214365   5.667   7.086   6.931
 3411WAT    EPW14366   5.658   7.164   6.934
 3412WAT      O14367   4.592   6.827   7.389
 3412WAT     H114368   4.612   6.784   7.316
 3412WAT     H214369   4.508   6.808   7.401
 3412WAT    EPW14370   4.582   6.818   7.380
 3413WAT      O14371   5.049   6.680   4.494
 3413WAT     H114372   5.038   6.724   4.419
 3413WAT     H214373   5.135   6.672   4.501
 3413WAT    EPW14374   5.060   6.685   4.484
 3414WAT      O14375   4.997   7.314   4.918
 3414WAT     H114376   4.969   7.395   4.934
 3414WAT     H214377   5.053   7.297   4.982
 3414WAT    EPW14378   5.001   7.323   4.930
 3415WAT      O14379   3.976   7.143   4.143
 3415WAT     H114380   3.897   7.165   4.112
 3415WAT     H214381   3.959   7.074   4.194
 3415WAT    EPW14382   3.961   7.136   4.146
 3416WAT      O14383   5.282   7.483   4.569
 3416WAT     H114384   5.279   7.479   4.482
 3416WAT     H214385   5.223   7.424   4.595
 3416WAT    EPW14386   5.273   7.474   4.560
 3417WAT      O14387   4.609   6.761   4.332
 3417WAT     H114388   4.651   6.830   4.299
 3417WAT     H214389   4.647   6.750   4.410
 3417WAT    EPW14390   4.621   6.769   4.339
 3418WAT      O14391   4.167   7.575   4.497
 3418WAT     H114392   4.114   7.526   4.448
 3418WAT     H214393   4.223   7.518   4.532
 3418WAT    EPW14394   4.167   7.560   4.495
 3419WAT      O14395   4.585   7.085   5.138
 3419WAT     H114396   4.658   7.092   5.090
 3419WAT     H214397   4.571   6.998   5.141
 3419WAT    EPW14398   4.594   7.073   5.131
 3420WAT      O14399   4.305   7.355   4.618
 3420WAT     H114400   4.376   7.307   4.630
 3420WAT     H214401   4.243   7.296   4.600
 3420WAT    EPW14402   4.306   7.339   4.617
 3421WAT      O14403   5.028   7.316   5.604
 3421WAT     H114404   4.943   7.313   5.585
 3421WAT     H214405   5.063   7.353   5.533
 3421WAT    EPW14406   5.020   7.321   5.591
 3422WAT      O14407   4.364   6.817   4.455
 3422WAT     H114408   4.329   6.875   4.400
 3422WAT     H214409   4.447   6.811   4.428
 3422WAT    EPW14410   4.371   6.825   4.443
 3423WAT      O14411   5.411   6.581   5.431
 3423WAT     H114412   5.382   6.645   5.379
 3423WAT     H214413   5.338   6.553   5.471
 3423WAT    EPW14414   5.396   6.587   5.429
 3424WAT      O14415   5.146   6.993   3.901
 3424WAT     H114416   5.096   7.053   3.940
 3424WAT     H214417   5.163   6.935   3.963
 3424WAT    EPW14418   5.141   6.993   3.916
 3425WAT      O14419   3.986   7.218   4.843
 3425WAT     H114420   4.037   7.285   4.865
 3425WAT     H214421   3.918   7.225   4.898
 3425WAT    EPW14422   3.983   7.229   4.854
 3426WAT      O14423   4.226   6.773   4.871
 3426WAT     H114424   4.197   6.700   4.834
 3426WAT     H214425   4.289   6.745   4.925
 3426WAT    EPW14426   4.231   6.758   4.874
 3427WAT      O14427   4.588   6.965   5.820
 3427WAT     H114428   4.584   6.936   5.738
 3427WAT     H214429   4.633   7.039   5.815
 3427WAT    EPW14430   4.594   6.971   5.807
 3428WAT      O14431   5.725   6.967   4.587
 3428WAT     H114432   5.674   7.036   4.602
 3428WAT     H214433   5.669   6.902   4.577
 3428WAT    EPW14434   5.709   6.968   4.588
 3429WAT      O14435   4.126   6.949   5.715
 3429WAT     H114436   4.066   6.906   5.762
 3429WAT     H214437   4.083   6.974   5.644
 3429WAT    EPW14438   4.111   6.946   5.712
 3430WAT      O14439   4.808   6.699   5.644
 3430WAT     H114440   4.828   6.617   5.621
 3430WAT     H214441   4.796   6.739   5.568
 3430WAT    EPW14442   4.809   6.692   5.629
 3431WAT      O14443   4.906   7.235   4.506
 3431WAT     H114444   4.929   7.177   4.445
 3431WAT     H214445   4.980   7.249   4.550
 3431WAT    EPW14446   4.920   7.229   4.503
 3432WAT      O14447   4.959   7.190   4.024
 3432WAT     H114448   4.971   7.265   4.066
 3432WAT     H214449   4.873   7.191   4.006
 3432WAT    EPW14450   4.948   7.201   4.027
 3433WAT      O14451   5.622   6.882   5.012
 3433WAT     H114452   5.686   6.871   4.953
 3433WAT     H214453   5.642   6.823   5.074
 3433WAT    EPW14454   5.635   6.871   5.012
 3434WAT      O14455   3.945   7.027   5.503
 3434WAT     H114456   3.915   7.106   5.524
 3434WAT     H214457   3.993   7.042   5.432
 3434WAT    EPW14458   3.948   7.041   5.495
 3435WAT      O14459   5.204   6.807   4.095
 3435WAT     H114460   5.258   6.739   4.101
 3435WAT     H214461   5.229   6.859   4.160
 3435WAT    EPW14462   5.216   6.805   4.105
 3436WAT      O14463   3.983   6.932   4.337
 3436WAT     H114464   3.969   6.847   4.327
 3436WAT     H214465   3.946   6.949   4.415
 3436WAT    EPW14466   3.975   6.922   4.347
 3437WAT      O14467   4.979   7.071   4.287
 3437WAT     H114468   4.938   6.993   4.283
 3437WAT     H214469   4.966   7.105   4.208
 3437WAT    EPW14470   4.971   7.064   4.275
 3438WAT      O14471   4.967   6.775   4.240
 3438WAT     H114472   4.899   6.756   4.189
 3438WAT     H214473   5.035   6.778   4.184
 3438WAT    EPW14474   4.967   6.773   4.224
 3439WAT      O14475   4.760   7.084   4.694
 3439WAT     H114476   4.809   7.137   4.645
 3439WAT     H214477   4.784   7.103   4.776
 3439WAT    EPW14478   4.771   7.095   4.699
 3440WAT      O14479   4.352   6.548   4.556
 3440WAT     H114480   4.375   6.631   4.545
 3440WAT     H214481   4.333   6.521   4.475
 3440WAT    EPW14482   4.353   6.556   4.542
 3441WAT      O14483   5.144   6.993   5.234
 3441WAT     H114484   5.156   7.023   5.315
 3441WAT     H214485   5.081   6.933   5.244
 3441WAT    EPW14486   5.137   6.989   5.247
 3442WAT      O14487   5.310   6.603   4.572
 3442WAT     H114488   5.302   6.588   4.657
 3442WAT     H214489   5.343   6.529   4.541
 3442WAT    EPW14490   5.314   6.590   4.580
 3443WAT      O14491   5.526   6.998   5.389
 3443WAT     H114492   5.612   7.000   5.405
 3443WAT     H214493   5.490   7.001   5.469
 3443WAT    EPW14494   5.533   6.999   5.403
 3444WAT      O14495   4.286   6.963   4.675
 3444WAT     H114496   4.314   6.913   4.610
 3444WAT     H214497   4.273   6.907   4.740
 3444WAT    EPW14498   4.289   6.947   4.675
 3445WAT      O14499   4.156   7.076   5.020
 3445WAT     H114500   4.233   7.099   4.987
 3445WAT     H214501   4.099   7.099   4.958
 3445WAT    EPW14502   4.159   7.083   5.006
 3446WAT      O14503   5.396   7.450   4.039
 3446WAT     H114504   5.405   7.537   4.030
 3446WAT     H214505   5.360   7.441   4.118
 3446WAT    EPW14506   5.392   7.462   4.049
 3447WAT      O14507   5.691   6.867   4.022
 3447WAT     H114508   5.749   6.820   3.977
 3447WAT     H214509   5.671   6.932   3.968
 3447WAT    EPW14510   5.697   6.870   4.007
 3448WAT      O14511   4.737   7.199   5.805
 3448WAT     H114512   4.674   7.250   5.836
 3448WAT     H214513   4.748   7.227   5.723
 3448WAT    EPW14514   4.729   7.210   5.797
 3449WAT      O14515   5.798   7.276   5.245
 3449WAT     H114516   5.862   7.217   5.247
 3449WAT     H214517   5.746   7.248   5.181
 3449WAT    EPW14518   5.800   7.263   5.236
 3450WAT      O14519   5.566   6.766   4.251
 3450WAT     H114520   5.641   6.732   4.278
 3450WAT     H214521   5.589   6.812   4.181
 3450WAT    EPW14522   5.581   6.768   4.245
 3451WAT      O14523   5.243   7.026   4.698
 3451WAT     H114524   5.276   6.990   4.770
 3451WAT     H214525   5.172   6.979   4.681
 3451WAT    EPW14526   5.238   7.014   4.706
 3452WAT      O14527   4.712   6.968   4.177
 3452WAT     H114528   4.683   6.955   4.096
 3452WAT     H214529   4.687   7.050   4.195
 3452WAT    EPW14530   4.704   6.978   4.168
 3453WAT      O14531   4.304   7.352   5.663
 3453WAT     H114532   4.247   7.303   5.708
 3453WAT     H214533   4.297   7.322   5.581
 3453WAT    EPW14534   4.294   7.340   5.657
 3454WAT      O14535   4.344   7.226   4.138
 3454WAT     H114536   4.319   7.175   4.204
 3454WAT     H214537   4.293   7.201   4.072
 3454WAT    EPW14538   4.333   7.215   4.138
 3455WAT      O14539   4.210   7.385   4.882
 3455WAT     H114540   4.232   7.401   4.799
 3455WAT     H214541   4.268   7.325   4.907
 3455WAT    EPW14542   4.222   7.378   4.873
 3456WAT      O14543   4.322   7.379   5.163
 3456WAT     H114544   4.365   7.331   5.105
 3456WAT     H214545   4.263   7.422   5.115
 3456WAT    EPW14546   4.320   7.378   5.147
 3457WAT      O14547   5.394   7.204   4.968
 3457WAT     H114548   5.341   7.236   5.029
 3457WAT     H214549   5.399   7.268   4.909
 3457WAT    EPW14550   5.387   7.218   4.968
 3458WAT      O14551   5.006   6.778   5.357
 3458WAT     H114552   5.009   6.695   5.330
 3458WAT     H214553   5.044   6.776   5.435
 3458WAT    EPW14554   5.012   6.766   5.364
 3459WAT      O14555   5.244   6.980   4.302
 3459WAT     H114556   5.297   7.046   4.322
 3459WAT     H214557   5.164   7.015   4.310
 3459WAT    EPW14558   5.240   6.995   4.306
 3460WAT      O14559   4.807   7.114   4.972
 3460WAT     H114560   4.871   7.172   4.966
 3460WAT     H214561   4.847   7.041   4.997
 3460WAT    EPW14562   4.822   7.112   4.974
 3461WAT      O14563   4.998   7.423   4.173
 3461WAT     H114564   4.993   7.500   4.133
 3461WAT     H214565   4.930   7.423   4.227
 3461WAT    EPW14566   4.987   7.434   4.175
 3462WAT      O14567   4.473   6.651   4.118
 3462WAT     H114568   4.510   6.673   4.194
 3462WAT     H214569   4.428   6.723   4.095
 3462WAT    EPW14570   4.472   6.665   4.126
 3463WAT      O14571   5.524   6.731   5.636
 3463WAT     H114572   5.491   6.683   5.572
 3463WAT     H214573   5.531   6.675   5.703
 3463WAT    EPW14574   5.520   6.716   5.637
 3464WAT      O14575   3.921   6.652   4.312
 3464WAT     H114576   3.923   6.597   4.245
 3464WAT     H214577   3.896   6.602   4.379
 3464WAT    EPW14578   3.918   6.636   4.312
 3465WAT      O14579   4.779   7.422   4.346
 3465WAT     H114580   4.747   7.486   4.395
 3465WAT     H214581   4.811   7.366   4.404
 3465WAT    EPW14582   4.779   7.423   4.362
 3466WAT      O14583   4.340   6.881   4.043
 3466WAT     H114584   4.282   6.879   3.979
 3466WAT     H214585   4.408   6.924   4.008
 3466WAT    EPW14586   4.342   6.887   4.029
 3467WAT      O14587   4.491   7.154   4.700
 3467WAT     H114588   4.572   7.124   4.690
 3467WAT     H214589   4.441   7.083   4.685
 3467WAT    EPW14590   4.495   7.139   4.696
 3468WAT      O14591   4.010   7.321   4.372
 3468WAT     H114592   4.035   7.268   4.437
 3468WAT     H214593   4.025   7.273   4.300
 3468WAT    EPW14594   4.016   7.306   4.371
 3469WAT      O14595   4.469   7.369   3.923
 3469WAT     H114596   4.431   7.344   3.997
 3469WAT     H214597   4.402   7.374   3.867
 3469WAT    EPW14598   4.453   7.366   3.925
 3470WAT      O14599   4.625   7.228   4.203
 3470WAT     H114600   4.655   7.297   4.248
 3470WAT     H214601   4.539   7.243   4.196
 3470WAT    EPW14602   4.617   7.240   4.208
 3471WAT      O14603   5.391   6.981   5.643
 3471WAT     H114604   5.329   6.984   5.704
 3471WAT     H214605   5.421   6.899   5.650
 3471WAT    EPW14606   5.387   6.969   5.653
 3472WAT      O14607   3.950   6.871   4.845
 3472WAT     H114608   3.934   6.895   4.762
 3472WAT     H214609   4.036   6.857   4.846
 3472WAT    EPW14610   3.960   6.873   4.833
 3473WAT      O14611   5.298   7.330   5.711
 3473WAT     H114612   5.312   7.362   5.791
 3473WAT     H214613   5.210   7.329   5.705
 3473WAT    EPW14614   5.287   7.335   5.722
 3474WAT      O14615   5.477   7.400   5.513
 3474WAT     H114616   5.490   7.484   5.530
 3474WAT     H214617   5.421   7.374   5.575
 3474WAT    EPW14618   5.471   7.408   5.524
 3475WAT      O14619   5.493   7.137   4.624
 3475WAT     H114620   5.424   7.090   4.648
 3475WAT     H214621   5.487   7.210   4.671
 3475WAT    EPW14622   5.482   7.141   4.634
 3476WAT      O14623   5.832   7.404   5.739
 3476WAT     H114624   5.806   7.365   5.665
 3476WAT     H214625   5.918   7.411   5.730
 3476WAT    EPW14626   5.841   7.399   5.727
 3477WAT      O14627   5.355   6.811   5.272
 3477WAT     H114628   5.415   6.869   5.298
 3477WAT     H214629   5.287   6.860   5.249
 3477WAT    EPW14630   5.354   6.827   5.272
 3478WAT      O14631   4.567   7.131   5.411
 3478WAT     H114632   4.573   7.050   5.441
 3478WAT     H214633   4.581   7.123   5.326
 3478WAT    EPW14634   4.570   7.118   5.403
 3479WAT      O14635   5.422   6.610   5.090
 3479WAT     H114636   5.399   6.683   5.133
 3479WAT     H214637   5.508   6.603   5.105
 3479WAT    EPW14638   5.431   6.620   5.098
 3480WAT      O14639   4.733   6.816   5.379
 3480WAT     H114640   4.817   6.815   5.356
 3480WAT     H214641   4.690   6.810   5.303
 3480WAT    EPW14642   4.739   6.815   5.364
 3481WAT      O14643   5.640   7.299   4.018
 3481WAT     H114644   5.698   7.342   3.970
 3481WAT     H214645   5.567   7.347   4.011
 3481WAT    EPW14646   5.638   7.313   4.010
 3482WAT      O14647   4.406   7.194   4.959
 3482WAT     H114648   4.440   7.183   4.879
 3482WAT     H214649   4.465   7.158   5.012
 3482WAT    EPW14650   4.420   7.187   4.955
 3483WAT      O14651   5.185   7.101   5.486
 3483WAT     H114652   5.131   7.135   5.546
 3483WAT     H214653   5.250   7.068   5.533
 3483WAT    EPW14654   5.187   7.101   5.502
 3484WAT      O14655   5.161   7.250   5.125
 3484WAT     H114656   5.174   7.293   5.200
 3484WAT     H214657   5.155   7.167   5.150
 3484WAT    EPW14658   5.162   7.244   5.140
 3485WAT      O14659   5.403   7.204   4.371
 3485WAT     H114660   5.425   7.180   4.452
 3485WAT     H214661   5.475   7.243   4.342
 3485WAT    EPW14662   5.417   7.206   4.379
 3486WAT      O14663   4.687   6.681   4.985
 3486WAT     H114664   4.605   6.651   4.988
 3486WAT     H214665   4.700   6.696   4.900
 3486WAT    EPW14666   4.677   6.678   4.973
 3487WAT      O14667   5.526   6.778   4.529
 3487WAT     H114668   5.450   6.740   4.549
 3487WAT     H214669   5.520   6.793   4.443
 3487WAT    EPW14670   5.514   6.774   4.519
 3488WAT      O14671   3.893   6.748   5.509
 3488WAT     H114672   3.911   6.833   5.516
 3488WAT     H214673   3.818   6.740   5.552
 3488WAT    EPW14674   3.885   6.759   5.516
 3489WAT      O14675   4.252   7.001   4.283
 3489WAT     H114676   4.269   6.962   4.207
 3489WAT     H214677   4.168   6.984   4.297
 3489WAT    EPW14678   4.242   6.992   4.274
 3490WAT      O14679   5.731   7.280   5.512
 3490WAT     H114680   5.649   7.311   5.516
 3490WAT     H214681   5.753   7.291   5.428
 3490WAT    EPW14682   5.722   7.286   5.500
 3491WAT      O14683   5.194   7.359   5.380
 3491WAT     H114684   5.204   7.276   5.405
 3491WAT     H214685   5.276   7.389   5.373
 3491WAT    EPW14686   5.207   7.351   5.383
 3492WAT      O14687   4.309   7.240   5.402
 3492WAT     H114688   4.314   7.297   5.336
 3492WAT     H214689   4.390   7.208   5.408
 3492WAT    EPW14690   4.322   7.244   5.393
 3493WAT      O14691   4.117   7.077   5.288
 3493WAT     H114692   4.129   7.079   5.201
 3493WAT     H214693   4.182   7.127   5.318
 3493WAT    EPW14694   4.129   7.085   5.280
 3494WAT      O14695   5.627   7.348   4.295
 3494WAT     H114696   5.642   7.339   4.209
 3494WAT     H214697   5.707   7.347   4.330
 3494WAT    EPW14698   5.641   7.346   4.287
 3495WAT      O14699   5.451   7.248   5.276
 3495WAT     H114700   5.476   7.167   5.296
 3495WAT     H214701   5.480   7.295   5.344
 3495WAT    EPW14702   5.459   7.243   5.289
 3496WAT      O14703   4.165   7.139   3.936
 3496WAT     H114704   4.100   7.143   3.994
 3496WAT     H214705   4.156   7.061   3.899
 3496WAT    EPW14706   4.154   7.128   3.939
 3497WAT      O14707   5.076   6.778   5.631
 3497WAT     H114708   5.099   6.847   5.679
 3497WAT     H214709   4.994   6.762   5.655
 3497WAT    EPW14710   5.067   6.786   5.642
 3498WAT      O14711   5.001   6.880   4.684
 3498WAT     H114712   4.916   6.902   4.686
 3498WAT     H214713   5.003   6.814   4.628
 3498WAT    EPW14714   4.989   6.873   4.676
 3499WAT      O14715   5.350   6.932   4.938
 3499WAT     H114716   5.429   6.898   4.953
 3499WAT     H214717   5.359   7.016   4.958
 3499WAT    EPW14718   5.363   6.939   4.943
 3500WAT      O14719   5.457   7.381   4.758
 3500WAT     H114720   5.530   7.429   4.756
 3500WAT     H214721   5.405   7.421   4.700
 3500WAT    EPW14722   5.460   7.394   4.749
 3501WAT      O14723   4.499   6.823   5.201
 3501WAT     H114724   4.414   6.835   5.215
 3501WAT     H214725   4.501   6.770   5.132
 3501WAT    EPW14726   4.487   6.817   5.193
 3502WAT      O14727   5.679   6.687   5.208
 3502WAT     H114728   5.659   6.711   5.290
 3502WAT     H214729   5.763   6.662   5.214
 3502WAT    EPW14730   5.689   6.687   5.221
 3503WAT      O14731   4.888   6.864   5.063
 3503WAT     H114732   4.827   6.807   5.038
 3503WAT     H214733   4.961   6.833   5.029
 3503WAT    EPW14734   4.889   6.851   5.055
 3504WAT      O14735   4.747   7.302   5.547
 3504WAT     H114736   4.697   7.249   5.498
 3504WAT     H214737   4.698   7.374   5.555
 3504WAT    EPW14738   4.732   7.305   5.541
 3505WAT      O14739   4.761   6.674   4.056
 3505WAT     H114740   4.772   6.689   3.970
 3505WAT     H214741   4.676   6.688   4.069
 3505WAT    EPW14742   4.750   6.678   4.045
 3506WAT      O14743   4.232   6.823   5.282
 3506WAT     H114744   4.175   6.768   5.245
 3506WAT     H214745   4.191   6.900   5.281
 3506WAT    EPW14746   4.218   6.826   5.276
 3507WAT      O14747   5.112   6.778   4.921
 3507WAT     H114748   5.182   6.829   4.934
 3507WAT     H214749   5.078   6.809   4.847
 3507WAT    EPW14750   5.117   6.790   4.912
 3508WAT      O14751   5.124   7.276   4.671
 3508WAT     H114752   5.166   7.201   4.680
 3508WAT     H214753   5.087   7.289   4.749
 3508WAT    EPW14754   5.125   7.267   4.684
 3509WAT      O14755   4.103   7.165   4.592
 3509WAT     H114756   4.054   7.173   4.663
 3509WAT     H214757   4.152   7.094   4.608
 3509WAT    EPW14758   4.103   7.156   4.605
 3510WAT      O14759   5.262   7.428   4.286
 3510WAT     H114760   5.292   7.351   4.312
 3510WAT     H214761   5.180   7.411   4.263
 3510WAT    EPW14762   5.254   7.414   4.287
 3511WAT      O14763   5.632   7.074   5.754
 3511WAT     H114764   5.626   7.149   5.798
 3511WAT     H214765   5.551   7.062   5.723
 3511WAT    EPW14766   5.619   7.084   5.756
 3512WAT      O14767   5.664   7.160   5.026
 3512WAT     H114768   5.581   7.185   5.019
 3512WAT     H214769   5.660   7.073   5.027
 3512WAT    EPW14770   5.651   7.151   5.025
 3513WAT      O14771   4.546   6.816   5.577
 3513WAT     H114772   4.602   6.823   5.510
 3513WAT     H214773   4.579   6.751   5.625
 3513WAT    EPW14774   4.559   6.807   5.574
 3514WAT      O14775   5.042   6.671   2.594
 3514WAT     H114776   5.045   6.718   2.520
 3514WAT     H214777   5.126   6.653   2.610
 3514WAT    EPW14778   5.055   6.676   2.586
 3515WAT      O14779   4.997   7.301   3.023
 3515WAT     H114780   4.971   7.381   3.046
 3515WAT     H214781   5.054   7.279   3.085
 3515WAT    EPW14782   5.001   7.309   3.036
 3516WAT      O14783   3.978   7.145   2.253
 3516WAT     H114784   3.898   7.155   2.221
 3516WAT     H214785   3.971   7.075   2.304
 3516WAT    EPW14786   3.965   7.136   2.256
 3517WAT      O14787   5.264   7.473   2.677
 3517WAT     H114788   5.266   7.470   2.589
 3517WAT     H214789   5.207   7.411   2.698
 3517WAT    EPW14790   5.256   7.464   2.667
 3518WAT      O14791   4.698   6.785   2.479
 3518WAT     H114792   4.690   6.850   2.421
 3518WAT     H214793   4.776   6.751   2.460
 3518WAT    EPW14794   4.708   6.789   2.468
 3519WAT      O14795   4.169   7.573   2.598
 3519WAT     H114796   4.117   7.524   2.549
 3519WAT     H214797   4.224   7.516   2.633
 3519WAT    EPW14798   4.169   7.558   2.596
 3520WAT      O14799   4.587   7.110   3.235
 3520WAT     H114800   4.659   7.109   3.185
 3520WAT     H214801   4.569   7.025   3.246
 3520WAT    EPW14802   4.595   7.097   3.229
 3521WAT      O14803   4.309   7.359   2.723
 3521WAT     H114804   4.382   7.312   2.733
 3521WAT     H214805   4.249   7.299   2.703
 3521WAT    EPW14806   4.311   7.343   2.721
 3522WAT      O14807   5.018   7.278   3.762
 3522WAT     H114808   4.944   7.294   3.719
 3522WAT     H214809   4.990   7.251   3.840
 3522WAT    EPW14810   5.003   7.276   3.767
 3523WAT      O14811   4.422   6.818   2.558
 3523WAT     H114812   4.384   6.872   2.500
 3523WAT     H214813   4.505   6.815   2.531
 3523WAT    EPW14814   4.429   6.826   2.546
 3524WAT      O14815   5.388   6.587   3.557
 3524WAT     H114816   5.365   6.650   3.502
 3524WAT     H214817   5.314   6.567   3.598
 3524WAT    EPW14818   5.374   6.594   3.555
 3525WAT      O14819   4.721   6.741   2.759
 3525WAT     H114820   4.728   6.824   2.783
 3525WAT     H214821   4.701   6.745   2.675
 3525WAT    EPW14822   4.719   6.754   2.750
 3526WAT      O14823   5.148   6.988   2.001
 3526WAT     H114824   5.103   7.053   2.036
 3526WAT     H214825   5.162   6.934   2.068
 3526WAT    EPW14826   5.144   6.989   2.016
 3527WAT      O14827   3.984   7.210   2.933
 3527WAT     H114828   4.027   7.282   2.959
 3527WAT     H214829   3.916   7.207   2.987
 3527WAT    EPW14830   3.980   7.221   2.945
 3528WAT      O14831   4.260   6.776   2.963
 3528WAT     H114832   4.222   6.705   2.930
 3528WAT     H214833   4.317   6.744   3.022
 3528WAT    EPW14834   4.263   6.761   2.967
 3529WAT      O14835   4.580   6.970   3.919
 3529WAT     H114836   4.587   6.943   3.837
 3529WAT     H214837   4.613   7.051   3.917
 3529WAT    EPW14838   4.586   6.978   3.907
 3530WAT      O14839   5.723   6.966   2.687
 3530WAT     H114840   5.673   7.035   2.701
 3530WAT     H214841   5.667   6.900   2.680
 3530WAT    EPW14842   5.708   6.966   2.688
 3531WAT      O14843   4.158   6.876   3.828
 3531WAT     H114844   4.079   6.848   3.804
 3531WAT     H214845   4.211   6.847   3.765
 3531WAT    EPW14846   4.154   6.868   3.815
 3532WAT      O14847   4.786   6.716   3.781
 3532WAT     H114848   4.801   6.646   3.731
 3532WAT     H214849   4.722   6.758   3.739
 3532WAT    EPW14850   4.779   6.712   3.768
 3533WAT      O14851   4.884   7.194   2.619
 3533WAT     H114852   4.912   7.153   2.547
 3533WAT     H214853   4.958   7.215   2.660
 3533WAT    EPW14854   4.899   7.191   2.615
 3534WAT      O14855   4.985   7.188   2.127
 3534WAT     H114856   4.995   7.267   2.162
 3534WAT     H214857   4.905   7.191   2.091
 3534WAT    EPW14858   4.975   7.200   2.127
 3535WAT      O14859   5.637   6.883   3.112
 3535WAT     H114860   5.700   6.870   3.052
 3535WAT     H214861   5.656   6.825   3.174
 3535WAT    EPW14862   5.649   6.872   3.112
 3536WAT      O14863   3.897   7.000   3.552
 3536WAT     H114864   3.885   7.076   3.594
 3536WAT     H214865   3.959   7.018   3.495
 3536WAT    EPW14866   3.904   7.014   3.550
 3537WAT      O14867   5.197   6.814   2.212
 3537WAT     H114868   5.251   6.746   2.216
 3537WAT     H214869   5.219   6.862   2.282
 3537WAT    EPW14870   5.208   6.811   2.223
 3538WAT      O14871   4.001   6.939   2.449
 3538WAT     H114872   3.980   6.855   2.437
 3538WAT     H214873   3.961   6.960   2.523
 3538WAT    EPW14874   3.992   6.930   2.458
 3539WAT      O14875   4.961   7.071   2.380
 3539WAT     H114876   4.899   7.012   2.363
 3539WAT     H214877   4.971   7.112   2.303
 3539WAT    EPW14878   4.953   7.069   2.366
 3540WAT      O14879   4.954   6.756   2.335
 3540WAT     H114880   4.896   6.746   2.270
 3540WAT     H214881   5.029   6.774   2.293
 3540WAT    EPW14882   4.957   6.757   2.319
 3541WAT      O14883   4.763   7.016   2.797
 3541WAT     H114884   4.798   7.075   2.744
 3541WAT     H214885   4.776   7.050   2.877
 3541WAT    EPW14886   4.770   7.030   2.801
 3542WAT      O14887   4.351   6.560   2.634
 3542WAT     H114888   4.373   6.643   2.615
 3542WAT     H214889   4.324   6.528   2.558
 3542WAT    EPW14890   4.350   6.568   2.620
 3543WAT      O14891   5.121   6.984   3.350
 3543WAT     H114892   5.127   7.020   3.429
 3543WAT     H214893   5.055   6.928   3.359
 3543WAT    EPW14894   5.112   6.981   3.363
 3544WAT      O14895   5.302   6.594   2.672
 3544WAT     H114896   5.304   6.576   2.757
 3544WAT     H214897   5.338   6.524   2.635
 3544WAT    EPW14898   5.307   6.581   2.679
 3545WAT      O14899   5.519   7.000   3.492
 3545WAT     H114900   5.605   7.002   3.508
 3545WAT     H214901   5.483   7.006   3.571
 3545WAT    EPW14902   5.527   7.001   3.506
 3546WAT      O14903   4.298   6.964   2.763
 3546WAT     H114904   4.332   6.913   2.700
 3546WAT     H214905   4.287   6.909   2.830
 3546WAT    EPW14906   4.301   6.948   2.763
 3547WAT      O14907   4.150   7.064   3.102
 3547WAT     H114908   4.230   7.088   3.077
 3547WAT     H214909   4.097   7.104   3.045
 3547WAT    EPW14910   4.154   7.074   3.090
 3548WAT      O14911   5.394   7.450   2.144
 3548WAT     H114912   5.397   7.537   2.134
 3548WAT     H214913   5.361   7.440   2.224
 3548WAT    EPW14914   5.389   7.462   2.154
 3549WAT      O14915   5.684   6.869   2.127
 3549WAT     H114916   5.746   6.822   2.086
 3549WAT     H214917   5.666   6.933   2.070
 3549WAT    EPW14918   5.691   6.872   2.113
 3550WAT      O14919   4.706   7.217   3.900
 3550WAT     H114920   4.640   7.267   3.927
 3550WAT     H214921   4.718   7.241   3.817
 3550WAT    EPW14922   4.698   7.228   3.892
 3551WAT      O14923   5.805   7.283   3.344
 3551WAT     H114924   5.867   7.222   3.345
 3551WAT     H214925   5.750   7.256   3.281
 3551WAT    EPW14926   5.806   7.270   3.335
 3552WAT      O14927   5.560   6.770   2.357
 3552WAT     H114928   5.636   6.734   2.383
 3552WAT     H214929   5.582   6.816   2.286
 3552WAT    EPW14930   5.575   6.772   2.351
 3553WAT      O14931   5.258   7.026   2.811
 3553WAT     H114932   5.292   6.993   2.884
 3553WAT     H214933   5.193   6.971   2.791
 3553WAT    EPW14934   5.254   7.013   2.819
 3554WAT      O14935   4.700   6.976   2.284
 3554WAT     H114936   4.680   6.957   2.201
 3554WAT     H214937   4.676   7.060   2.292
 3554WAT    EPW14938   4.694   6.986   2.273
 3555WAT      O14939   4.232   7.345   3.762
 3555WAT     H114940   4.210   7.274   3.808
 3555WAT     H214941   4.244   7.314   3.682
 3555WAT    EPW14942   4.231   7.330   3.757
 3556WAT      O14943   4.343   7.225   2.247
 3556WAT     H114944   4.324   7.168   2.310
 3556WAT     H214945   4.289   7.204   2.183
 3556WAT    EPW14946   4.332   7.214   2.247
 3557WAT      O14947   4.200   7.385   2.985
 3557WAT     H114948   4.225   7.406   2.904
 3557WAT     H214949   4.259   7.325   3.009
 3557WAT    EPW14950   4.212   7.379   2.977
 3558WAT      O14951   4.313   7.379   3.265
 3558WAT     H114952   4.359   7.333   3.207
 3558WAT     H214953   4.253   7.420   3.216
 3558WAT    EPW14954   4.311   7.379   3.249
 3559WAT      O14955   5.402   7.200   3.066
 3559WAT     H114956   5.345   7.228   3.126
 3559WAT     H214957   5.404   7.265   3.008
 3559WAT    EPW14958   5.394   7.214   3.066
 3560WAT      O14959   4.961   6.767   3.447
 3560WAT     H114960   4.992   6.690   3.421
 3560WAT     H214961   4.996   6.779   3.526
 3560WAT    EPW14962   4.971   6.758   3.455
 3561WAT      O14963   5.217   6.968   2.438
 3561WAT     H114964   5.273   7.034   2.448
 3561WAT     H214965   5.139   7.007   2.429
 3561WAT    EPW14966   5.213   6.983   2.438
 3562WAT      O14967   4.803   7.101   3.057
 3562WAT     H114968   4.867   7.160   3.054
 3562WAT     H214969   4.843   7.028   3.084
 3562WAT    EPW14970   4.818   7.099   3.060
 3563WAT      O14971   5.002   7.421   2.283
 3563WAT     H114972   4.987   7.497   2.242
 3563WAT     H214973   4.935   7.415   2.339
 3563WAT    EPW14974   4.990   7.432   2.285
 3564WAT      O14975   4.498   6.662   2.189
 3564WAT     H114976   4.492   6.640   2.273
 3564WAT     H214977   4.445   6.731   2.182
 3564WAT    EPW14978   4.490   6.669   2.200
 3565WAT      O14979   5.523   6.739   3.747
 3565WAT     H114980   5.485   6.690   3.686
 3565WAT     H214981   5.530   6.685   3.815
 3565WAT    EPW14982   5.518   6.724   3.748
 3566WAT      O14983   3.916   6.668   2.423
 3566WAT     H114984   3.919   6.611   2.356
 3566WAT     H214985   3.885   6.620   2.489
 3566WAT    EPW14986   3.912   6.652   2.423
 3567WAT      O14987   4.789   7.407   2.466
 3567WAT     H114988   4.762   7.472   2.518
 3567WAT     H214989   4.811   7.344   2.522
 3567WAT    EPW14990   4.788   7.407   2.482
 3568WAT      O14991   4.347   6.888   2.146
 3568WAT     H114992   4.285   6.885   2.085
 3568WAT     H214993   4.413   6.930   2.107
 3568WAT    EPW14994   4.348   6.894   2.131
 3569WAT      O14995   4.499   7.149   2.799
 3569WAT     H114996   4.576   7.108   2.790
 3569WAT     H214997   4.441   7.087   2.783
 3569WAT    EPW14998   4.502   7.134   2.795
 3570WAT      O14999   4.008   7.328   2.474
 3570WAT     H115000   4.035   7.274   2.537
 3570WAT     H215001   4.020   7.281   2.401
 3570WAT    EPW15002   4.014   7.313   2.472
 3571WAT      O15003   4.481   7.348   2.023
 3571WAT     H115004   4.444   7.324   2.098
 3571WAT     H215005   4.414   7.358   1.969
 3571WAT    EPW15006   4.466   7.346   2.026
 3572WAT      O15007   4.623   7.237   2.307
 3572WAT     H115008   4.655   7.303   2.354
 3572WAT     H215009   4.537   7.254   2.304
 3572WAT    EPW15010   4.615   7.249   2.314
 3573WAT      O15011   5.384   6.986   3.745
 3573WAT     H115012   5.320   6.990   3.805
 3573WAT     H215013   5.416   6.906   3.755
 3573WAT    EPW15014   5.379   6.975   3.755
 3574WAT      O15015   3.952   6.857   2.932
 3574WAT     H115016   3.936   6.897   2.856
 3574WAT     H215017   4.036   6.875   2.947
 3574WAT    EPW15018   3.962   6.866   2.923
 3575WAT      O15019   5.299   7.340   3.794
 3575WAT     H115020   5.314   7.368   3.876
 3575WAT     H215021   5.212   7.337   3.789
 3575WAT    EPW15022   5.289   7.344   3.806
 3576WAT      O15023   5.488   7.404   3.603
 3576WAT     H115024   5.483   7.491   3.602
 3576WAT     H215025   5.426   7.381   3.660
 3576WAT    EPW15026   5.478   7.413   3.612
 3577WAT      O15027   5.499   7.141   2.724
 3577WAT     H115028   5.432   7.093   2.754
 3577WAT     H215029   5.493   7.215   2.770
 3577WAT    EPW15030   5.488   7.145   2.736
 3578WAT      O15031   5.832   7.402   3.842
 3578WAT     H115032   5.807   7.365   3.767
 3578WAT     H215033   5.918   7.410   3.834
 3578WAT    EPW15034   5.841   7.398   3.830
 3579WAT      O15035   5.338   6.813   3.393
 3579WAT     H115036   5.399   6.871   3.414
 3579WAT     H215037   5.269   6.861   3.370
 3579WAT    EPW15038   5.337   6.828   3.392
 3580WAT      O15039   4.564   7.140   3.515
 3580WAT     H115040   4.570   7.059   3.546
 3580WAT     H215041   4.578   7.131   3.429
 3580WAT    EPW15042   4.567   7.127   3.507
 3581WAT      O15043   5.424   6.615   3.216
 3581WAT     H115044   5.393   6.686   3.258
 3581WAT     H215045   5.510   6.619   3.231
 3581WAT    EPW15046   5.432   6.626   3.225
 3582WAT      O15047   4.691   6.705   3.463
 3582WAT     H115048   4.775   6.727   3.448
 3582WAT     H215049   4.696   6.624   3.494
 3582WAT    EPW15050   4.704   6.697   3.465
 3583WAT      O15051   5.640   7.301   2.113
 3583WAT     H115052   5.700   7.345   2.067
 3583WAT     H215053   5.568   7.350   2.106
 3583WAT    EPW15054   5.638   7.315   2.105
 3584WAT      O15055   4.399   7.195   3.054
 3584WAT     H115056   4.437   7.185   2.976
 3584WAT     H215057   4.459   7.165   3.110
 3584WAT    EPW15058   4.413   7.189   3.051
 3585WAT      O15059   5.169   7.115   3.591
 3585WAT     H115060   5.119   7.153   3.652
 3585WAT     H215061   5.237   7.085   3.636
 3585WAT    EPW15062   5.172   7.116   3.607
 3586WAT      O15063   5.168   7.229   3.222
 3586WAT     H115064   5.180   7.277   3.294
 3586WAT     H215065   5.154   7.149   3.253
 3586WAT    EPW15066   5.168   7.224   3.237
 3587WAT      O15067   5.392   7.191   2.474
 3587WAT     H115068   5.417   7.172   2.555
 3587WAT     H215069   5.463   7.226   2.438
 3587WAT    EPW15070   5.406   7.194   2.481
 3588WAT      O15071   4.699   6.660   3.043
 3588WAT     H115072   4.614   6.659   3.064
 3588WAT     H215073   4.698   6.671   2.956
 3588WAT    EPW15074   4.686   6.662   3.033
 3589WAT      O15075   5.518   6.776   2.635
 3589WAT     H115076   5.442   6.738   2.654
 3589WAT     H215077   5.513   6.792   2.550
 3589WAT    EPW15078   5.506   6.773   2.625
 3590WAT      O15079   3.914   6.776   3.714
 3590WAT     H115080   3.912   6.848   3.666
 3590WAT     H215081   3.830   6.760   3.731
 3590WAT    EPW15082   3.901   6.784   3.710
 3591WAT      O15083   4.277   6.990   2.395
 3591WAT     H115084   4.288   6.956   2.315
 3591WAT     H215085   4.193   6.977   2.411
 3591WAT    EPW15086   4.266   6.983   2.386
 3592WAT      O15087   5.737   7.281   3.611
 3592WAT     H115088   5.657   7.316   3.615
 3592WAT     H215089   5.761   7.295   3.528
 3592WAT    EPW15090   5.729   7.288   3.599
 3593WAT      O15091   5.212   7.361   3.459
 3593WAT     H115092   5.194   7.292   3.508
 3593WAT     H215093   5.298   7.356   3.446
 3593WAT    EPW15094   5.222   7.350   3.464
 3594WAT      O15095   4.295   7.232   3.501
 3594WAT     H115096   4.300   7.290   3.436
 3594WAT     H215097   4.377   7.205   3.510
 3594WAT    EPW15098   4.308   7.236   3.493
 3595WAT      O15099   4.106   7.066   3.372
 3595WAT     H115100   4.123   7.070   3.287
 3595WAT     H215101   4.169   7.116   3.407
 3595WAT    EPW15102   4.118   7.074   3.365
 3596WAT      O15103   5.619   7.329   2.391
 3596WAT     H115104   5.635   7.326   2.305
 3596WAT     H215105   5.699   7.334   2.427
 3596WAT    EPW15106   5.633   7.329   2.384
 3597WAT      O15107   4.328   6.768   3.632
 3597WAT     H115108   4.341   6.682   3.625
 3597WAT     H215109   4.300   6.791   3.552
 3597WAT    EPW15110   4.326   6.759   3.619
 3598WAT      O15111   5.468   7.251   3.369
 3598WAT     H115112   5.484   7.169   3.393
 3598WAT     H215113   5.500   7.298   3.435
 3598WAT    EPW15114   5.475   7.246   3.382
 3599WAT      O15115   4.164   7.147   2.045
 3599WAT     H115116   4.098   7.150   2.102
 3599WAT     H215117   4.156   7.068   2.008
 3599WAT    EPW15118   4.153   7.136   2.048
 3600WAT      O15119   5.039   6.811   3.715
 3600WAT     H115120   5.071   6.875   3.764
 3600WAT     H215121   4.961   6.795   3.749
 3600WAT    EPW15122   5.032   6.818   3.727
 3601WAT      O15123   5.030   6.863   2.796
 3601WAT     H115124   4.950   6.897   2.798
 3601WAT     H215125   5.025   6.803   2.733
 3601WAT    EPW15126   5.018   6.859   2.787
 3602WAT      O15127   5.364   6.927   3.050
 3602WAT     H115128   5.445   6.896   3.062
 3602WAT     H215129   5.373   7.012   3.068
 3602WAT    EPW15130   5.378   6.935   3.054
 3603WAT      O15131   5.451   7.384   2.858
 3603WAT     H115132   5.517   7.440   2.859
 3603WAT     H215133   5.394   7.419   2.802
 3603WAT    EPW15134   5.452   7.397   2.850
 3604WAT      O15135   4.514   6.857   3.303
 3604WAT     H115136   4.431   6.833   3.319
 3604WAT     H215137   4.561   6.794   3.341
 3604WAT    EPW15138   4.508   6.844   3.311
 3605WAT      O15139   5.684   6.698   3.318
 3605WAT     H115140   5.675   6.742   3.393
 3605WAT     H215141   5.766   6.668   3.322
 3605WAT    EPW15142   5.695   6.700   3.330
 3606WAT      O15143   4.898   6.850   3.121
 3606WAT     H115144   4.839   6.788   3.104
 3606WAT     H215145   4.974   6.812   3.105
 3606WAT    EPW15146   4.900   6.835   3.116
 3607WAT      O15147   4.752   7.306   3.643
 3607WAT     H115148   4.700   7.253   3.597
 3607WAT     H215149   4.715   7.384   3.635
 3607WAT    EPW15150   4.739   7.309   3.635
 3608WAT      O15151   4.768   6.698   2.137
 3608WAT     H115152   4.777   6.706   2.051
 3608WAT     H215153   4.682   6.701   2.150
 3608WAT    EPW15154   4.757   6.700   2.126
 3609WAT      O15155   4.243   6.820   3.376
 3609WAT     H115156   4.188   6.756   3.351
 3609WAT     H215157   4.195   6.892   3.367
 3609WAT    EPW15158   4.227   6.821   3.371
 3610WAT      O15159   5.146   6.751   3.027
 3610WAT     H115160   5.211   6.806   3.046
 3610WAT     H215161   5.114   6.783   2.953
 3610WAT    EPW15162   5.151   6.764   3.019
 3611WAT      O15163   5.108   7.258   2.770
 3611WAT     H115164   5.161   7.190   2.782
 3611WAT     H215165   5.076   7.275   2.849
 3611WAT    EPW15166   5.111   7.251   2.783
 3612WAT      O15167   4.111   7.167   2.686
 3612WAT     H115168   4.060   7.172   2.756
 3612WAT     H215169   4.158   7.095   2.700
 3612WAT    EPW15170   4.111   7.157   2.698
 3613WAT      O15171   5.264   7.426   2.394
 3613WAT     H115172   5.292   7.347   2.418
 3613WAT     H215173   5.182   7.412   2.368
 3613WAT    EPW15174   5.256   7.412   2.393
 3614WAT      O15175   5.629   7.073   3.852
 3614WAT     H115176   5.626   7.147   3.898
 3614WAT     H215177   5.547   7.064   3.823
 3614WAT    EPW15178   5.616   7.083   3.855
 3615WAT      O15179   5.673   7.163   3.125
 3615WAT     H115180   5.590   7.186   3.119
 3615WAT     H215181   5.670   7.075   3.126
 3615WAT    EPW15182   5.661   7.153   3.124
 3616WAT      O15183   4.582   6.879   3.646
 3616WAT     H115184   4.618   6.835   3.579
 3616WAT     H215185   4.499   6.851   3.646
 3616WAT    EPW15186   4.575   6.868   3.636
 3617WAT      O15187   5.086   6.669   0.666
 3617WAT     H115188   5.108   6.704   0.589
 3617WAT     H215189   5.162   6.639   0.697
 3617WAT    EPW15190   5.101   6.670   0.659
 3618WAT      O15191   4.989   7.312   1.121
 3618WAT     H115192   4.965   7.391   1.147
 3618WAT     H215193   5.044   7.285   1.184
 3618WAT    EPW15194   4.994   7.320   1.134
 3619WAT      O15195   4.025   7.159   0.381
 3619WAT     H115196   3.954   7.167   0.330
 3619WAT     H215197   4.007   7.089   0.430
 3619WAT    EPW15198   4.012   7.150   0.381
 3620WAT      O15199   5.273   7.487   0.797
 3620WAT     H115200   5.280   7.488   0.710
 3620WAT     H215201   5.215   7.424   0.813
 3620WAT    EPW15202   5.266   7.478   0.787
 3621WAT      O15203   4.714   6.777   0.612
 3621WAT     H115204   4.719   6.856   0.575
 3621WAT     H215205   4.742   6.723   0.550
 3621WAT    EPW15206   4.719   6.781   0.598
 3622WAT      O15207   4.181   7.587   0.689
 3622WAT     H115208   4.123   7.537   0.649
 3622WAT     H215209   4.232   7.530   0.732
 3622WAT    EPW15210   4.180   7.572   0.690
 3623WAT      O15211   4.587   7.113   1.340
 3623WAT     H115212   4.660   7.113   1.291
 3623WAT     H215213   4.567   7.029   1.347
 3623WAT    EPW15214   4.595   7.101   1.333
 3624WAT      O15215   4.301   7.373   0.829
 3624WAT     H115216   4.373   7.326   0.844
 3624WAT     H215217   4.241   7.312   0.812
 3624WAT    EPW15218   4.303   7.357   0.829
 3625WAT      O15219   5.024   7.333   1.798
 3625WAT     H115220   4.938   7.329   1.782
 3625WAT     H215221   5.058   7.363   1.723
 3625WAT    EPW15222   5.016   7.337   1.784
 3626WAT      O15223   4.439   6.811   0.687
 3626WAT     H115224   4.393   6.842   0.620
 3626WAT     H215225   4.519   6.801   0.655
 3626WAT    EPW15226   4.444   6.814   0.673
 3627WAT      O15227   5.393   6.587   1.657
 3627WAT     H115228   5.369   6.650   1.602
 3627WAT     H215229   5.319   6.565   1.697
 3627WAT    EPW15230   5.378   6.593   1.655
 3628WAT      O15231   4.775   6.773   0.883
 3628WAT     H115232   4.753   6.854   0.904
 3628WAT     H215233   4.754   6.767   0.798
 3628WAT    EPW15234   4.769   6.784   0.874
 3629WAT      O15235   3.980   7.222   1.043
 3629WAT     H115236   4.023   7.293   1.070
 3629WAT     H215237   3.914   7.216   1.098
 3629WAT    EPW15238   3.977   7.232   1.055
 3630WAT      O15239   4.272   6.785   1.081
 3630WAT     H115240   4.232   6.715   1.047
 3630WAT     H215241   4.331   6.750   1.136
 3630WAT    EPW15242   4.275   6.769   1.084
 3631WAT      O15243   4.585   6.971   2.015
 3631WAT     H115244   4.586   6.942   1.933
 3631WAT     H215245   4.626   7.048   2.010
 3631WAT    EPW15246   4.592   6.978   2.003
 3632WAT      O15247   5.716   6.964   0.793
 3632WAT     H115248   5.666   7.033   0.811
 3632WAT     H215249   5.659   6.900   0.777
 3632WAT    EPW15250   5.700   6.964   0.793
 3633WAT      O15251   4.155   6.887   1.939
 3633WAT     H115252   4.076   6.859   1.917
 3633WAT     H215253   4.206   6.861   1.872
 3633WAT    EPW15254   4.151   6.879   1.926
 3634WAT      O15255   4.787   6.712   1.864
 3634WAT     H115256   4.803   6.638   1.820
 3634WAT     H215257   4.720   6.746   1.821
 3634WAT    EPW15258   4.780   6.706   1.851
 3635WAT      O15259   4.887   7.202   0.729
 3635WAT     H115260   4.917   7.161   0.658
 3635WAT     H215261   4.959   7.225   0.772
 3635WAT    EPW15262   4.902   7.199   0.725
 3636WAT      O15263   4.964   7.258   0.269
 3636WAT     H115264   4.980   7.333   0.310
 3636WAT     H215265   4.881   7.265   0.244
 3636WAT    EPW15266   4.954   7.270   0.271
 3637WAT      O15267   5.638   6.891   1.227
 3637WAT     H115268   5.699   6.877   1.166
 3637WAT     H215269   5.656   6.831   1.288
 3637WAT    EPW15270   5.650   6.880   1.227
 3638WAT      O15271   3.897   7.003   1.657
 3638WAT     H115272   3.889   7.080   1.699
 3638WAT     H215273   3.959   7.019   1.598
 3638WAT    EPW15274   3.905   7.017   1.655
 3639WAT      O15275   5.146   6.752   0.408
 3639WAT     H115276   5.211   6.705   0.373
 3639WAT     H215277   5.185   6.827   0.429
 3639WAT    EPW15278   5.162   6.756   0.406
 3640WAT      O15279   3.984   6.938   0.555
 3640WAT     H115280   3.957   6.857   0.536
 3640WAT     H215281   3.943   6.956   0.630
 3640WAT    EPW15282   3.974   6.929   0.563
 3641WAT      O15283   4.965   7.089   0.487
 3641WAT     H115284   4.893   7.043   0.469
 3641WAT     H215285   4.973   7.141   0.417
 3641WAT    EPW15286   4.956   7.090   0.474
 3642WAT      O15287   4.873   6.743   0.354
 3642WAT     H115288   4.845   6.824   0.341
 3642WAT     H215289   4.960   6.752   0.363
 3642WAT    EPW15290   4.882   6.756   0.353
 3643WAT      O15291   4.731   7.047   0.905
 3643WAT     H115292   4.782   7.095   0.853
 3643WAT     H215293   4.757   7.070   0.985
 3643WAT    EPW15294   4.742   7.058   0.909
 3644WAT      O15295   4.363   6.555   0.747
 3644WAT     H115296   4.386   6.637   0.732
 3644WAT     H215297   4.330   6.528   0.671
 3644WAT    EPW15298   4.362   6.563   0.734
 3645WAT      O15299   5.119   6.972   1.448
 3645WAT     H115300   5.121   7.003   1.529
 3645WAT     H215301   5.053   6.915   1.450
 3645WAT    EPW15302   5.109   6.968   1.460
 3646WAT      O15303   5.323   6.587   0.778
 3646WAT     H115304   5.323   6.567   0.863
 3646WAT     H215305   5.355   6.515   0.741
 3646WAT    EPW15306   5.328   6.573   0.785
 3647WAT      O15307   5.510   7.020   1.589
 3647WAT     H115308   5.596   7.014   1.602
 3647WAT     H215309   5.477   7.018   1.670
 3647WAT    EPW15310   5.518   7.019   1.603
 3648WAT      O15311   4.296   6.965   0.873
 3648WAT     H115312   4.338   6.915   0.816
 3648WAT     H215313   4.289   6.914   0.944
 3648WAT    EPW15314   4.301   6.950   0.875
 3649WAT      O15315   4.147   7.074   1.208
 3649WAT     H115316   4.227   7.098   1.183
 3649WAT     H215317   4.095   7.114   1.151
 3649WAT    EPW15318   4.152   7.083   1.196
 3650WAT      O15319   5.406   7.352   0.270
 3650WAT     H115320   5.331   7.310   0.253
 3650WAT     H215321   5.387   7.399   0.341
 3650WAT    EPW15322   5.392   7.353   0.278
 3651WAT      O15323   5.616   6.959   0.235
 3651WAT     H115324   5.627   6.938   0.151
 3651WAT     H215325   5.623   7.046   0.235
 3651WAT    EPW15326   5.619   6.969   0.222
 3652WAT      O15327   4.730   7.209   2.005
 3652WAT     H115328   4.664   7.256   2.035
 3652WAT     H215329   4.739   7.236   1.923
 3652WAT    EPW15330   4.721   7.220   1.997
 3653WAT      O15331   5.809   7.285   1.450
 3653WAT     H115332   5.870   7.222   1.452
 3653WAT     H215333   5.754   7.259   1.387
 3653WAT    EPW15334   5.810   7.272   1.441
 3654WAT      O15335   5.536   6.774   0.433
 3654WAT     H115336   5.616   6.742   0.448
 3654WAT     H215337   5.551   6.839   0.376
 3654WAT    EPW15338   5.550   6.779   0.427
 3655WAT      O15339   5.249   7.030   0.921
 3655WAT     H115340   5.285   6.997   0.994
 3655WAT     H215341   5.189   6.971   0.899
 3655WAT    EPW15342   5.245   7.017   0.929
 3656WAT      O15343   4.715   6.979   0.413
 3656WAT     H115344   4.653   6.923   0.388
 3656WAT     H215345   4.680   7.057   0.399
 3656WAT    EPW15346   4.701   6.982   0.407
 3657WAT      O15347   4.241   7.346   1.868
 3657WAT     H115348   4.214   7.277   1.914
 3657WAT     H215349   4.249   7.316   1.787
 3657WAT    EPW15350   4.238   7.332   1.863
 3658WAT      O15351   4.320   7.157   0.368
 3658WAT     H115352   4.314   7.098   0.432
 3658WAT     H215353   4.238   7.184   0.356
 3658WAT    EPW15354   4.307   7.152   0.375
 3659WAT      O15355   4.198   7.396   1.093
 3659WAT     H115356   4.223   7.415   1.011
 3659WAT     H215357   4.256   7.337   1.118
 3659WAT    EPW15358   4.210   7.390   1.084
 3660WAT      O15359   4.314   7.390   1.374
 3660WAT     H115360   4.357   7.342   1.315
 3660WAT     H215361   4.252   7.430   1.327
 3660WAT    EPW15362   4.311   7.389   1.358
 3661WAT      O15363   5.396   7.204   1.184
 3661WAT     H115364   5.328   7.227   1.233
 3661WAT     H215365   5.399   7.267   1.123
 3661WAT    EPW15366   5.386   7.217   1.182
 3662WAT      O15367   4.958   6.756   1.545
 3662WAT     H115368   4.985   6.677   1.521
 3662WAT     H215369   4.995   6.768   1.623
 3662WAT    EPW15370   4.967   6.746   1.553
 3663WAT      O15371   5.229   6.991   0.513
 3663WAT     H115372   5.285   7.055   0.532
 3663WAT     H215373   5.151   7.031   0.513
 3663WAT    EPW15374   5.226   7.006   0.516
 3664WAT      O15375   4.804   7.106   1.164
 3664WAT     H115376   4.866   7.167   1.156
 3664WAT     H215377   4.849   7.034   1.185
 3664WAT    EPW15378   4.820   7.104   1.166
 3665WAT      O15379   5.012   7.474   0.437
 3665WAT     H115380   5.005   7.559   0.416
 3665WAT     H215381   4.941   7.459   0.484
 3665WAT    EPW15382   5.001   7.484   0.441
 3666WAT      O15383   4.526   6.783   0.358
 3666WAT     H115384   4.513   6.699   0.376
 3666WAT     H215385   4.458   6.804   0.308
 3666WAT    EPW15386   4.514   6.774   0.353
 3667WAT      O15387   5.524   6.737   1.849
 3667WAT     H115388   5.486   6.688   1.787
 3667WAT     H215389   5.528   6.683   1.917
 3667WAT    EPW15390   5.519   6.722   1.850
 3668WAT      O15391   3.898   6.670   0.502
 3668WAT     H115392   3.902   6.612   0.437
 3668WAT     H215393   3.875   6.623   0.571
 3668WAT    EPW15394   3.895   6.654   0.502
 3669WAT      O15395   4.779   7.409   0.575
 3669WAT     H115396   4.744   7.466   0.630
 3669WAT     H215397   4.806   7.344   0.628
 3669WAT    EPW15398   4.777   7.408   0.591
 3670WAT      O15399   4.309   6.909   0.227
 3670WAT     H115400   4.278   6.910   0.145
 3670WAT     H215401   4.320   6.993   0.246
 3670WAT    EPW15402   4.306   6.921   0.218
 3671WAT      O15403   4.481   7.167   0.905
 3671WAT     H115404   4.560   7.131   0.899
 3671WAT     H215405   4.427   7.101   0.891
 3671WAT    EPW15406   4.485   7.152   0.902
 3672WAT      O15407   4.019   7.342   0.595
 3672WAT     H115408   4.040   7.289   0.661
 3672WAT     H215409   4.034   7.293   0.524
 3672WAT    EPW15410   4.025   7.327   0.594
 3673WAT      O15411   4.607   7.231   0.377
 3673WAT     H115412   4.624   7.294   0.435
 3673WAT     H215413   4.520   7.229   0.373
 3673WAT    EPW15414   4.597   7.240   0.385
 3674WAT      O15415   5.383   6.983   1.845
 3674WAT     H115416   5.322   6.986   1.906
 3674WAT     H215417   5.416   6.902   1.853
 3674WAT    EPW15418   5.379   6.971   1.855
 3675WAT      O15419   3.949   6.868   1.037
 3675WAT     H115420   3.932   6.904   0.960
 3675WAT     H215421   4.034   6.886   1.049
 3675WAT    EPW15422   3.959   6.876   1.028
 3676WAT      O15423   5.290   7.324   1.910
 3676WAT     H115424   5.303   7.355   1.990
 3676WAT     H215425   5.204   7.332   1.899
 3676WAT    EPW15426   5.279   7.330   1.920
 3677WAT      O15427   5.499   7.398   1.745
 3677WAT     H115428   5.493   7.485   1.749
 3677WAT     H215429   5.432   7.371   1.794
 3677WAT    EPW15430   5.488   7.407   1.753
 3678WAT      O15431   5.493   7.141   0.837
 3678WAT     H115432   5.424   7.096   0.864
 3678WAT     H215433   5.490   7.214   0.884
 3678WAT    EPW15434   5.483   7.145   0.848
 3679WAT      O15435   5.839   7.405   1.946
 3679WAT     H115436   5.816   7.365   1.872
 3679WAT     H215437   5.926   7.413   1.939
 3679WAT    EPW15438   5.849   7.400   1.934
 3680WAT      O15439   5.344   6.815   1.495
 3680WAT     H115440   5.401   6.879   1.513
 3680WAT     H215441   5.272   6.858   1.470
 3680WAT    EPW15442   5.342   6.831   1.494
 3681WAT      O15443   4.561   7.140   1.619
 3681WAT     H115444   4.562   7.058   1.650
 3681WAT     H215445   4.576   7.130   1.534
 3681WAT    EPW15446   4.563   7.126   1.611
 3682WAT      O15447   5.428   6.614   1.322
 3682WAT     H115448   5.397   6.685   1.363
 3682WAT     H215449   5.514   6.619   1.335
 3682WAT    EPW15450   5.436   6.625   1.330
 3683WAT      O15451   4.683   6.710   1.560
 3683WAT     H115452   4.769   6.723   1.549
 3683WAT     H215453   4.678   6.626   1.581
 3683WAT    EPW15454   4.695   6.700   1.561
 3684WAT      O15455   5.658   7.241   0.231
 3684WAT     H115456   5.684   7.271   0.154
 3684WAT     H215457   5.577   7.273   0.239
 3684WAT    EPW15458   5.650   7.250   0.221
 3685WAT      O15459   4.396   7.207   1.165
 3685WAT     H115460   4.431   7.196   1.086
 3685WAT     H215461   4.456   7.173   1.219
 3685WAT    EPW15462   4.410   7.200   1.161
 3686WAT      O15463   5.160   7.093   1.696
 3686WAT     H115464   5.112   7.132   1.757
 3686WAT     H215465   5.229   7.063   1.740
 3686WAT    EPW15466   5.163   7.094   1.712
 3687WAT      O15467   5.150   7.218   1.320
 3687WAT     H115468   5.157   7.263   1.394
 3687WAT     H215469   5.138   7.136   1.346
 3687WAT    EPW15470   5.149   7.213   1.334
 3688WAT      O15471   5.399   7.206   0.585
 3688WAT     H115472   5.422   7.182   0.666
 3688WAT     H215473   5.474   7.237   0.552
 3688WAT    EPW15474   5.414   7.207   0.592
 3689WAT      O15475   4.714   6.673   1.154
 3689WAT     H115476   4.628   6.666   1.171
 3689WAT     H215477   4.717   6.687   1.068
 3689WAT    EPW15478   4.702   6.674   1.144
 3690WAT      O15479   5.523   6.775   0.716
 3690WAT     H115480   5.450   6.734   0.741
 3690WAT     H215481   5.510   6.789   0.631
 3690WAT    EPW15482   5.510   6.771   0.707
 3691WAT      O15483   3.916   6.782   1.824
 3691WAT     H115484   3.914   6.853   1.773
 3691WAT     H215485   3.831   6.764   1.837
 3691WAT    EPW15486   3.903   6.790   1.818
 3692WAT      O15487   4.259   6.923   0.510
 3692WAT     H115488   4.255   6.891   0.429
 3692WAT     H215489   4.175   6.926   0.535
 3692WAT    EPW15490   4.246   6.919   0.501
 3693WAT      O15491   5.747   7.276   1.719
 3693WAT     H115492   5.667   7.309   1.729
 3693WAT     H215493   5.766   7.293   1.635
 3693WAT    EPW15494   5.738   7.283   1.708
 3694WAT      O15495   5.191   7.333   1.565
 3694WAT     H115496   5.185   7.256   1.605
 3694WAT     H215497   5.275   7.337   1.541
 3694WAT    EPW15498   5.203   7.322   1.567
 3695WAT      O15499   4.295   7.236   1.605
 3695WAT     H115500   4.300   7.296   1.541
 3695WAT     H215501   4.377   7.207   1.613
 3695WAT    EPW15502   4.308   7.241   1.597
 3696WAT      O15503   4.105   7.072   1.477
 3696WAT     H115504   4.121   7.075   1.392
 3696WAT     H215505   4.168   7.121   1.512
 3696WAT    EPW15506   4.117   7.080   1.470
 3697WAT      O15507   5.638   7.326   0.506
 3697WAT     H115508   5.661   7.308   0.424
 3697WAT     H215509   5.714   7.337   0.547
 3697WAT    EPW15510   5.652   7.325   0.500
 3698WAT      O15511   4.307   6.772   1.737
 3698WAT     H115512   4.277   6.690   1.741
 3698WAT     H215513   4.290   6.796   1.654
 3698WAT    EPW15514   4.300   6.764   1.725
 3699WAT      O15515   5.453   7.283   1.496
 3699WAT     H115516   5.473   7.199   1.508
 3699WAT     H215517   5.484   7.322   1.568
 3699WAT    EPW15518   5.461   7.276   1.508
 3700WAT      O15519   5.045   6.801   1.813
 3700WAT     H115520   5.073   6.866   1.864
 3700WAT     H215521   4.964   6.787   1.841
 3700WAT    EPW15522   5.037   6.809   1.824
 3701WAT      O15523   5.054   6.830   0.887
 3701WAT     H115524   4.968   6.825   0.898
 3701WAT     H215525   5.068   6.786   0.813
 3701WAT    EPW15526   5.044   6.823   0.877
 3702WAT      O15527   5.368   6.932   1.154
 3702WAT     H115528   5.449   6.901   1.169
 3702WAT     H215529   5.374   7.016   1.176
 3702WAT    EPW15530   5.381   6.940   1.159
 3703WAT      O15531   5.454   7.382   0.976
 3703WAT     H115532   5.520   7.439   0.983
 3703WAT     H215533   5.399   7.422   0.921
 3703WAT    EPW15534   5.456   7.397   0.969
 3704WAT      O15535   4.512   6.859   1.392
 3704WAT     H115536   4.430   6.837   1.412
 3704WAT     H215537   4.560   6.798   1.433
 3704WAT    EPW15538   4.507   6.847   1.401
 3705WAT      O15539   5.686   6.697   1.425
 3705WAT     H115540   5.675   6.732   1.504
 3705WAT     H215541   5.768   6.668   1.427
 3705WAT    EPW15542   5.697   6.698   1.437
 3706WAT      O15543   4.919   6.860   1.215
 3706WAT     H115544   4.858   6.798   1.209
 3706WAT     H215545   4.993   6.817   1.201
 3706WAT    EPW15546   4.921   6.844   1.212
 3707WAT      O15547   4.741   7.313   1.748
 3707WAT     H115548   4.692   7.257   1.702
 3707WAT     H215549   4.689   7.382   1.760
 3707WAT    EPW15550   4.726   7.315   1.743
 3708WAT      O15551   4.247   6.829   1.477
 3708WAT     H115552   4.193   6.764   1.453
 3708WAT     H215553   4.197   6.900   1.468
 3708WAT    EPW15554   4.231   6.830   1.472
 3709WAT      O15555   5.163   6.742   1.131
 3709WAT     H115556   5.225   6.800   1.148
 3709WAT     H215557   5.135   6.765   1.051
 3709WAT    EPW15558   5.168   6.754   1.122
 3710WAT      O15559   5.111   7.270   0.874
 3710WAT     H115560   5.159   7.198   0.888
 3710WAT     H215561   5.076   7.286   0.952
 3710WAT    EPW15562   5.113   7.262   0.888
 3711WAT      O15563   4.111   7.172   0.800
 3711WAT     H115564   4.060   7.177   0.870
 3711WAT     H215565   4.158   7.099   0.814
 3711WAT    EPW15566   4.110   7.162   0.813
 3712WAT      O15567   5.285   7.449   0.516
 3712WAT     H115568   5.307   7.368   0.541
 3712WAT     H215569   5.200   7.442   0.497
 3712WAT    EPW15570   5.276   7.436   0.517
 3713WAT      O15571   5.627   7.071   1.952
 3713WAT     H115572   5.624   7.147   1.994
 3713WAT     H215573   5.546   7.061   1.922
 3713WAT    EPW15574   5.615   7.081   1.954
 3714WAT      O15575   5.669   7.170   1.236
 3714WAT     H115576   5.585   7.192   1.230
 3714WAT     H215577   5.666   7.083   1.238
 3714WAT    EPW15578   5.656   7.160   1.236
 3715WAT      O15579   4.567   6.876   1.744
 3715WAT     H115580   4.602   6.833   1.677
 3715WAT     H215581   4.485   6.844   1.748
 3715WAT    EPW15582   4.560   6.865   1.735
 3716WAT      O15583   5.058   4.848   6.381
 3716WAT     H115584   5.075   4.904   6.316
 3716WAT     H215585   5.137   4.821   6.406
 3716WAT    EPW15586   5.072   4.852   6.375
 3717WAT      O15587   5.001   5.463   6.832
 3717WAT     H115588   4.966   5.540   6.854
 3717WAT     H215589   5.055   5.446   6.899
 3717WAT    EPW15590   5.004   5.472   6.845
 3718WAT      O15591   3.918   5.933   6.369
 3718WAT     H115592   3.839   5.931   6.405
 3718WAT     H215593   3.924   5.856   6.329
 3718WAT    EPW15594   3.907   5.922   6.368
 3719WAT      O15595   5.606   6.318   6.155
 3719WAT     H115596   5.670   6.262   6.175
 3719WAT     H215597   5.557   6.273   6.099
 3719WAT    EPW15598   5.608   6.303   6.149
 3720WAT      O15599   4.278   5.795   5.871
 3720WAT     H115600   4.212   5.783   5.815
 3720WAT     H215601   4.248   5.760   5.945
 3720WAT    EPW15602   4.264   5.788   5.874
 3721WAT      O15603   5.244   5.647   6.484
 3721WAT     H115604   5.257   5.633   6.399
 3721WAT     H215605   5.190   5.583   6.507
 3721WAT    EPW15606   5.238   5.635   6.475
 3722WAT      O15607   4.180   6.016   6.297
 3722WAT     H115608   4.236   5.982   6.355
 3722WAT     H215609   4.103   5.986   6.323
 3722WAT    EPW15610   4.177   6.007   6.309
 3723WAT      O15611   4.676   4.989   6.245
 3723WAT     H115612   4.658   5.049   6.185
 3723WAT     H215613   4.756   4.962   6.224
 3723WAT    EPW15614   4.685   4.994   6.233
 3724WAT      O15615   4.081   6.343   5.905
 3724WAT     H115616   4.135   6.338   5.837
 3724WAT     H215617   4.135   6.350   5.973
 3724WAT    EPW15618   4.097   6.343   5.905
 3725WAT      O15619   4.666   6.006   7.457
 3725WAT     H115620   4.670   5.956   7.529
 3725WAT     H215621   4.588   5.986   7.423
 3725WAT    EPW15622   4.655   5.996   7.463
 3726WAT      O15623   4.138   5.683   6.475
 3726WAT     H115624   4.085   5.681   6.406
 3726WAT     H215625   4.191   5.615   6.462
 3726WAT    EPW15626   4.138   5.673   6.463
 3727WAT      O15627   4.597   5.275   7.036
 3727WAT     H115628   4.667   5.279   6.985
 3727WAT     H215629   4.570   5.193   7.030
 3727WAT    EPW15630   4.603   5.264   7.028
 3728WAT      O15631   4.628   6.275   7.198
 3728WAT     H115632   4.642   6.343   7.145
 3728WAT     H215633   4.707   6.257   7.230
 3728WAT    EPW15634   4.641   6.283   7.195
 3729WAT      O15635   4.321   5.472   6.469
 3729WAT     H115636   4.390   5.423   6.494
 3729WAT     H215637   4.255   5.415   6.469
 3729WAT    EPW15638   4.321   5.456   6.473
 3730WAT      O15639   4.750   6.110   6.633
 3730WAT     H115640   4.776   6.029   6.652
 3730WAT     H215641   4.825   6.153   6.620
 3730WAT    EPW15642   4.765   6.105   6.634
 3731WAT      O15643   4.822   6.039   6.275
 3731WAT     H115644   4.848   5.970   6.321
 3731WAT     H215645   4.844   6.019   6.193
 3731WAT    EPW15646   4.829   6.026   6.270
 3732WAT      O15647   4.959   5.476   7.438
 3732WAT     H115648   4.875   5.481   7.415
 3732WAT     H215649   4.965   5.531   7.505
 3732WAT    EPW15650   4.947   5.485   7.444
 3733WAT      O15651   4.402   4.997   6.332
 3733WAT     H115652   4.362   5.047   6.272
 3733WAT     H215653   4.485   4.997   6.307
 3733WAT    EPW15654   4.408   5.005   6.320
 3734WAT      O15655   5.417   4.759   7.339
 3734WAT     H115656   5.399   4.825   7.285
 3734WAT     H215657   5.340   4.738   7.372
 3734WAT    EPW15658   5.403   4.765   7.336
 3735WAT      O15659   4.721   4.918   6.519
 3735WAT     H115660   4.731   5.000   6.547
 3735WAT     H215661   4.695   4.928   6.436
 3735WAT    EPW15662   4.718   4.932   6.511
 3736WAT      O15663   5.132   5.131   5.794
 3736WAT     H115664   5.093   5.198   5.835
 3736WAT     H215665   5.155   5.078   5.860
 3736WAT    EPW15666   5.129   5.133   5.810
 3737WAT      O15667   3.996   5.428   6.724
 3737WAT     H115668   3.992   5.514   6.739
 3737WAT     H215669   3.931   5.396   6.774
 3737WAT    EPW15670   3.986   5.436   6.734
 3738WAT      O15671   3.955   6.377   6.575
 3738WAT     H115672   3.898   6.429   6.534
 3738WAT     H215673   4.000   6.340   6.511
 3738WAT    EPW15674   3.953   6.379   6.560
 3739WAT      O15675   4.550   6.077   6.237
 3739WAT     H115676   4.522   6.117   6.309
 3739WAT     H215677   4.636   6.069   6.250
 3739WAT    EPW15678   4.559   6.082   6.249
 3740WAT      O15679   5.183   6.417   6.034
 3740WAT     H115680   5.253   6.469   6.041
 3740WAT     H215681   5.211   6.341   6.067
 3740WAT    EPW15682   5.198   6.414   6.040
 3741WAT      O15683   4.988   6.441   6.228
 3741WAT     H115684   4.996   6.510   6.281
 3741WAT     H215685   5.053   6.450   6.171
 3741WAT    EPW15686   4.999   6.453   6.227
 3742WAT      O15687   4.261   4.919   6.750
 3742WAT     H115688   4.225   4.845   6.721
 3742WAT     H215689   4.322   4.891   6.805
 3742WAT    EPW15690   4.265   4.904   6.754
 3743WAT      O15691   4.098   6.274   6.359
 3743WAT     H115692   4.140   6.198   6.351
 3743WAT     H215693   4.146   6.329   6.311
 3743WAT    EPW15694   4.112   6.271   6.351
 3744WAT      O15695   5.719   5.120   6.492
 3744WAT     H115696   5.668   5.190   6.502
 3744WAT     H215697   5.663   5.054   6.481
 3744WAT    EPW15698   5.703   5.120   6.492
 3745WAT      O15699   5.223   6.441   7.052
 3745WAT     H115700   5.292   6.495   7.045
 3745WAT     H215701   5.208   6.417   6.970
 3745WAT    EPW15702   5.231   6.446   7.039
 3746WAT      O15703   4.114   5.168   7.559
 3746WAT     H115704   4.035   5.136   7.577
 3746WAT     H215705   4.157   5.100   7.525
 3746WAT    EPW15706   4.109   5.153   7.556
 3747WAT      O15707   4.287   6.131   6.671
 3747WAT     H115708   4.344   6.129   6.604
 3747WAT     H215709   4.319   6.073   6.727
 3747WAT    EPW15710   4.300   6.122   6.669
 3748WAT      O15711   4.538   6.433   6.606
 3748WAT     H115712   4.617   6.456   6.575
 3748WAT     H215713   4.484   6.487   6.564
 3748WAT    EPW15714   4.542   6.445   6.596
 3749WAT      O15715   4.802   4.908   7.545
 3749WAT     H115716   4.815   4.829   7.510
 3749WAT     H215717   4.731   4.937   7.503
 3749WAT    EPW15718   4.793   4.901   7.533
 3750WAT      O15719   4.886   5.369   6.406
 3750WAT     H115720   4.912   5.324   6.337
 3750WAT     H215721   4.959   5.383   6.451
 3750WAT    EPW15722   4.900   5.365   6.403
 3751WAT      O15723   4.992   5.346   5.910
 3751WAT     H115724   5.026   5.419   5.943
 3751WAT     H215725   4.963   5.371   5.831
 3751WAT    EPW15726   4.993   5.361   5.903
 3752WAT      O15727   5.390   6.604   6.032
 3752WAT     H115728   5.440   6.583   5.963
 3752WAT     H215729   5.443   6.651   6.082
 3752WAT    EPW15730   5.406   6.608   6.029
 3753WAT      O15731   4.416   6.534   7.176
 3753WAT     H115732   4.461   6.522   7.250
 3753WAT     H215733   4.369   6.605   7.192
 3753WAT    EPW15734   4.416   6.543   7.189
 3754WAT      O15735   5.628   5.045   6.906
 3754WAT     H115736   5.693   5.035   6.849
 3754WAT     H215737   5.649   4.989   6.970
 3754WAT    EPW15738   5.641   5.035   6.907
 3755WAT      O15739   3.867   5.170   7.297
 3755WAT     H115740   3.862   5.246   7.339
 3755WAT     H215741   3.932   5.182   7.241
 3755WAT    EPW15742   3.875   5.183   7.295
 3756WAT      O15743   5.078   6.208   7.466
 3756WAT     H115744   5.073   6.133   7.510
 3756WAT     H215745   5.163   6.215   7.448
 3756WAT    EPW15746   5.090   6.198   7.470
 3757WAT      O15747   4.858   6.225   5.857
 3757WAT     H115748   4.830   6.285   5.913
 3757WAT     H215749   4.935   6.255   5.831
 3757WAT    EPW15750   4.865   6.238   5.861
 3758WAT      O15751   5.192   4.968   6.014
 3758WAT     H115752   5.247   4.901   6.015
 3758WAT     H215753   5.218   5.018   6.081
 3758WAT    EPW15754   5.204   4.966   6.024
 3759WAT      O15755   3.992   5.097   6.249
 3759WAT     H115756   3.983   5.011   6.239
 3759WAT     H215757   3.954   5.113   6.325
 3759WAT    EPW15758   3.985   5.087   6.259
 3760WAT      O15759   4.190   6.340   7.055
 3760WAT     H115760   4.255   6.332   7.113
 3760WAT     H215761   4.232   6.354   6.980
 3760WAT    EPW15762   4.206   6.341   7.052
 3761WAT      O15763   4.960   5.234   6.170
 3761WAT     H115764   4.932   5.153   6.155
 3761WAT     H215765   4.959   5.271   6.091
 3761WAT    EPW15766   4.956   5.228   6.156
 3762WAT      O15767   4.974   6.478   7.159
 3762WAT     H115768   5.053   6.469   7.124
 3762WAT     H215769   4.921   6.475   7.089
 3762WAT    EPW15770   4.978   6.476   7.143
 3763WAT      O15771   4.933   4.958   6.116
 3763WAT     H115772   4.881   4.926   6.053
 3763WAT     H215773   5.013   4.954   6.080
 3763WAT    EPW15774   4.938   4.952   6.101
 3764WAT      O15775   5.661   6.538   6.433
 3764WAT     H115776   5.621   6.614   6.446
 3764WAT     H215777   5.596   6.482   6.418
 3764WAT    EPW15778   5.646   6.541   6.432
 3765WAT      O15779   4.769   5.186   6.584
 3765WAT     H115780   4.799   5.249   6.532
 3765WAT     H215781   4.780   5.219   6.664
 3765WAT    EPW15782   4.775   5.200   6.588
 3766WAT      O15783   5.390   6.116   6.495
 3766WAT     H115784   5.451   6.054   6.487
 3766WAT     H215785   5.315   6.072   6.486
 3766WAT    EPW15786   5.388   6.100   6.493
 3767WAT      O15787   4.358   6.215   7.265
 3767WAT     H115788   4.438   6.241   7.243
 3767WAT     H215789   4.341   6.259   7.338
 3767WAT    EPW15790   4.367   6.226   7.272
 3768WAT      O15791   4.313   4.739   6.393
 3768WAT     H115792   4.337   4.822   6.378
 3768WAT     H215793   4.288   4.710   6.314
 3768WAT    EPW15794   4.313   4.747   6.379
 3769WAT      O15795   4.544   5.791   6.763
 3769WAT     H115796   4.571   5.773   6.844
 3769WAT     H215797   4.487   5.727   6.745
 3769WAT    EPW15798   4.539   5.779   6.772
 3770WAT      O15799   5.110   5.145   7.152
 3770WAT     H115800   5.105   5.173   7.234
 3770WAT     H215801   5.046   5.086   7.147
 3770WAT    EPW15802   5.100   5.140   7.163
 3771WAT      O15803   4.659   5.809   7.016
 3771WAT     H115804   4.638   5.893   7.021
 3771WAT     H215805   4.626   5.775   7.089
 3771WAT    EPW15806   4.651   5.816   7.028
 3772WAT      O15807   5.285   5.881   7.029
 3772WAT     H115808   5.212   5.850   7.063
 3772WAT     H215809   5.276   5.968   7.035
 3772WAT    EPW15810   5.273   5.890   7.035
 3773WAT      O15811   5.304   4.754   6.474
 3773WAT     H115812   5.306   4.742   6.560
 3773WAT     H215813   5.337   4.681   6.441
 3773WAT    EPW15814   5.309   4.742   6.482
 3774WAT      O15815   5.495   5.223   7.223
 3774WAT     H115816   5.577   5.197   7.233
 3774WAT     H215817   5.465   5.228   7.305
 3774WAT    EPW15818   5.503   5.220   7.236
 3775WAT      O15819   4.287   5.117   6.558
 3775WAT     H115820   4.318   5.070   6.491
 3775WAT     H215821   4.279   5.058   6.622
 3775WAT    EPW15822   4.291   5.101   6.558
 3776WAT      O15823   5.586   5.911   6.022
 3776WAT     H115824   5.587   5.863   6.095
 3776WAT     H215825   5.670   5.920   6.001
 3776WAT    EPW15826   5.598   5.905   6.029
 3777WAT      O15827   4.334   5.881   6.480
 3777WAT     H115828   4.388   5.850   6.419
 3777WAT     H215829   4.276   5.817   6.489
 3777WAT    EPW15830   4.334   5.867   6.472
 3778WAT      O15831   4.158   6.549   6.659
 3778WAT     H115832   4.089   6.506   6.627
 3778WAT     H215833   4.209   6.560   6.590
 3778WAT    EPW15834   4.155   6.544   6.644
 3779WAT      O15835   4.161   5.251   6.865
 3779WAT     H115836   4.243   5.280   6.859
 3779WAT     H215837   4.114   5.310   6.820
 3779WAT    EPW15838   4.166   5.264   6.857
 3780WAT      O15839   5.804   6.330   7.374
 3780WAT     H115840   5.737   6.335   7.318
 3780WAT     H215841   5.766   6.311   7.450
 3780WAT    EPW15842   5.789   6.328   7.377
 3781WAT      O15843   5.393   5.581   5.944
 3781WAT     H115844   5.390   5.663   5.915
 3781WAT     H215845   5.367   5.587   6.027
 3781WAT    EPW15846   5.389   5.594   5.952
 3782WAT      O15847   4.448   5.816   6.228
 3782WAT     H115848   4.478   5.897   6.223
 3782WAT     H215849   4.516   5.767   6.203
 3782WAT    EPW15850   4.463   5.821   6.223
 3783WAT      O15851   5.658   5.055   5.910
 3783WAT     H115852   5.652   4.984   5.861
 3783WAT     H215853   5.634   5.120   5.856
 3783WAT    EPW15854   5.654   5.054   5.895
 3784WAT      O15855   4.034   6.021   6.715
 3784WAT     H115856   3.976   6.050   6.656
 3784WAT     H215857   4.110   6.051   6.684
 3784WAT    EPW15858   4.037   6.030   6.702
 3785WAT      O15859   5.812   5.462   7.166
 3785WAT     H115860   5.834   5.390   7.123
 3785WAT     H215861   5.727   5.472   7.148
 3785WAT    EPW15862   5.803   5.453   7.157
 3786WAT      O15863   3.971   5.688   6.247
 3786WAT     H115864   3.965   5.601   6.246
 3786WAT     H215865   4.040   5.704   6.195
 3786WAT    EPW15866   3.980   5.678   6.239
 3787WAT      O15867   5.561   4.938   6.148
 3787WAT     H115868   5.637   4.900   6.168
 3787WAT     H215869   5.581   4.988   6.080
 3787WAT    EPW15870   5.575   4.940   6.141
 3788WAT      O15871   4.969   6.279   6.595
 3788WAT     H115872   4.919   6.345   6.567
 3788WAT     H215873   5.005   6.249   6.521
 3788WAT    EPW15874   4.967   6.284   6.580
 3789WAT      O15875   3.897   6.158   6.207
 3789WAT     H115876   3.961   6.203   6.245
 3789WAT     H215877   3.890   6.086   6.257
 3789WAT    EPW15878   3.906   6.154   6.220
 3790WAT      O15879   4.356   5.959   6.875
 3790WAT     H115880   4.411   5.999   6.930
 3790WAT     H215881   4.409   5.908   6.827
 3790WAT    EPW15882   4.372   5.957   6.876
 3791WAT      O15883   5.258   5.194   6.609
 3791WAT     H115884   5.289   5.162   6.683
 3791WAT     H215885   5.193   5.139   6.588
 3791WAT    EPW15886   5.253   5.181   6.617
 3792WAT      O15887   3.951   6.028   5.967
 3792WAT     H115888   4.038   6.033   5.964
 3792WAT     H215889   3.930   6.075   6.037
 3792WAT    EPW15890   3.961   6.035   5.977
 3793WAT      O15891   4.014   5.739   6.717
 3793WAT     H115892   4.055   5.718   6.643
 3793WAT     H215893   4.019   5.826   6.718
 3793WAT    EPW15894   4.021   5.749   6.706
 3794WAT      O15895   4.621   5.168   6.041
 3794WAT     H115896   4.608   5.145   5.958
 3794WAT     H215897   4.594   5.251   6.044
 3794WAT    EPW15898   4.615   5.177   6.029
 3795WAT      O15899   5.551   6.343   7.234
 3795WAT     H115900   5.515   6.422   7.243
 3795WAT     H215901   5.546   6.328   7.148
 3795WAT    EPW15902   5.545   6.353   7.223
 3796WAT      O15903   4.508   6.177   6.498
 3796WAT     H115904   4.512   6.262   6.520
 3796WAT     H215905   4.580   6.143   6.532
 3796WAT    EPW15906   4.519   6.185   6.506
 3797WAT      O15907   4.105   5.433   7.466
 3797WAT     H115908   4.113   5.356   7.507
 3797WAT     H215909   4.155   5.425   7.396
 3797WAT    EPW15910   4.113   5.420   7.462
 3798WAT      O15911   4.202   5.407   6.062
 3798WAT     H115912   4.228   5.327   6.083
 3798WAT     H215913   4.127   5.417   6.105
 3798WAT    EPW15914   4.195   5.397   6.071
 3799WAT      O15915   4.346   5.603   6.721
 3799WAT     H115916   4.336   5.574   6.639
 3799WAT     H215917   4.365   5.531   6.766
 3799WAT    EPW15918   4.348   5.588   6.715
 3800WAT      O15919   4.352   5.571   7.065
 3800WAT     H115920   4.376   5.517   7.000
 3800WAT     H215921   4.293   5.624   7.027
 3800WAT    EPW15922   4.347   5.571   7.050
 3801WAT      O15923   5.400   5.373   6.888
 3801WAT     H115924   5.332   5.397   6.937
 3801WAT     H215925   5.397   5.428   6.821
 3801WAT    EPW15926   5.390   5.385   6.885
 3802WAT      O15927   4.748   6.464   6.990
 3802WAT     H115928   4.725   6.395   6.942
 3802WAT     H215929   4.745   6.531   6.935
 3802WAT    EPW15930   4.744   6.464   6.975
 3803WAT      O15931   4.949   4.917   7.226
 3803WAT     H115932   4.973   4.836   7.206
 3803WAT     H215933   4.982   4.929   7.306
 3803WAT    EPW15934   4.957   4.907   7.235
 3804WAT      O15935   5.212   5.130   6.236
 3804WAT     H115936   5.273   5.191   6.245
 3804WAT     H215937   5.139   5.176   6.221
 3804WAT    EPW15938   5.210   5.146   6.235
 3805WAT      O15939   4.057   5.688   7.581
 3805WAT     H115940   4.099   5.745   7.530
 3805WAT     H215941   4.082   5.610   7.551
 3805WAT    EPW15942   4.067   5.685   7.569
 3806WAT      O15943   5.311   5.962   7.472
 3806WAT     H115944   5.340   6.043   7.454
 3806WAT     H215945   5.344   5.914   7.407
 3806WAT    EPW15946   5.320   5.967   7.460
 3807WAT      O15947   4.712   6.286   7.520
 3807WAT     H115948   4.726   6.278   7.605
 3807WAT     H215949   4.700   6.204   7.493
 3807WAT    EPW15950   4.712   6.273   7.529
 3808WAT      O15951   4.801   5.271   6.845
 3808WAT     H115952   4.866   5.329   6.848
 3808WAT     H215953   4.837   5.198   6.874
 3808WAT    EPW15954   4.816   5.269   6.850
 3809WAT      O15955   5.066   5.581   6.047
 3809WAT     H115956   5.049   5.637   5.983
 3809WAT     H215957   5.003   5.595   6.105
 3809WAT    EPW15958   5.054   5.591   6.046
 3810WAT      O15959   5.564   5.901   6.484
 3810WAT     H115960   5.579   5.847   6.551
 3810WAT     H215961   5.563   5.848   6.415
 3810WAT    EPW15962   5.566   5.885   6.484
 3811WAT      O15963   5.159   6.322   6.803
 3811WAT     H115964   5.098   6.305   6.743
 3811WAT     H215965   5.209   6.382   6.763
 3811WAT    EPW15966   5.157   6.329   6.788
 3812WAT      O15967   5.158   5.953   6.784
 3812WAT     H115968   5.084   5.982   6.820
 3812WAT     H215969   5.195   5.907   6.848
 3812WAT    EPW15970   5.153   5.950   6.799
 3813WAT      O15971   4.632   6.482   6.255
 3813WAT     H115972   4.550   6.458   6.240
 3813WAT     H215973   4.675   6.454   6.185
 3813WAT    EPW15974   4.627   6.475   6.243
 3814WAT      O15975   4.491   4.819   5.992
 3814WAT     H115976   4.483   4.802   6.077
 3814WAT     H215977   4.429   4.878   5.976
 3814WAT    EPW15978   4.481   4.825   6.002
 3815WAT      O15979   4.790   6.420   6.038
 3815WAT     H115980   4.856   6.427   6.095
 3815WAT     H215981   4.788   6.498   5.999
 3815WAT    EPW15982   4.800   6.433   6.041
 3816WAT      O15983   5.413   5.810   7.271
 3816WAT     H115984   5.384   5.830   7.191
 3816WAT     H215985   5.499   5.819   7.264
 3816WAT    EPW15986   5.421   5.814   7.258
 3817WAT      O15987   5.574   4.863   7.549
 3817WAT     H115988   5.529   4.831   7.481
 3817WAT     H215989   5.543   4.817   7.617
 3817WAT    EPW15990   5.562   4.851   7.549
 3818WAT      O15991   4.221   5.691   6.118
 3818WAT     H115992   4.239   5.606   6.122
 3818WAT     H215993   4.288   5.728   6.161
 3818WAT    EPW15994   4.234   5.684   6.125
 3819WAT      O15995   5.051   5.784   7.133
 3819WAT     H115996   5.001   5.826   7.190
 3819WAT     H215997   5.081   5.716   7.179
 3819WAT    EPW15998   5.048   5.780   7.148
 3820WAT      O15999   3.953   4.825   6.248
 3820WAT     H116000   3.957   4.773   6.178
 3820WAT     H216001   3.899   4.783   6.301
 3820WAT    EPW16002   3.946   4.811   6.245
 3821WAT      O16003   4.884   5.609   6.260
 3821WAT     H116004   4.900   5.675   6.316
 3821WAT     H216005   4.880   5.539   6.311
 3821WAT    EPW16006   4.886   5.608   6.276
 3822WAT      O16007   5.401   6.102   6.781
 3822WAT     H116008   5.416   6.116   6.696
 3822WAT     H216009   5.323   6.062   6.781
 3822WAT    EPW16010   5.392   6.098   6.768
 3823WAT      O16011   4.312   5.022   5.907
 3823WAT     H116012   4.258   4.992   5.845
 3823WAT     H216013   4.376   5.061   5.862
 3823WAT    EPW16014   4.314   5.023   5.891
 3824WAT      O16015   4.804   5.838   6.675
 3824WAT     H116016   4.720   5.819   6.691
 3824WAT     H216017   4.846   5.805   6.743
 3824WAT    EPW16018   4.798   5.831   6.687
 3825WAT      O16019   4.475   6.409   5.822
 3825WAT     H116020   4.488   6.339   5.874
 3825WAT     H216021   4.476   6.476   5.877
 3825WAT    EPW16022   4.477   6.408   5.838
 3826WAT      O16023   4.175   5.762   6.952
 3826WAT     H116024   4.234   5.821   6.927
 3826WAT     H216025   4.137   5.738   6.877
 3826WAT    EPW16026   4.178   5.767   6.937
 3827WAT      O16027   4.497   5.292   6.601
 3827WAT     H116028   4.575   5.254   6.590
 3827WAT     H216029   4.441   5.226   6.590
 3827WAT    EPW16030   4.501   5.276   6.598
 3828WAT      O16031   5.775   6.486   6.013
 3828WAT     H116032   5.842   6.437   5.986
 3828WAT     H216033   5.725   6.430   6.057
 3828WAT    EPW16034   5.778   6.471   6.015
 3829WAT      O16035   3.986   5.416   6.236
 3829WAT     H116036   4.009   5.367   6.304
 3829WAT     H216037   3.920   5.372   6.200
 3829WAT    EPW16038   3.979   5.402   6.241
 3830WAT      O16039   5.529   5.744   6.965
 3830WAT     H116040   5.533   5.674   7.016
 3830WAT     H216041   5.447   5.772   6.975
 3830WAT    EPW16042   5.518   5.738   6.974
 3831WAT      O16043   4.156   5.870   7.383
 3831WAT     H116044   4.125   5.814   7.324
 3831WAT     H216045   4.118   5.946   7.361
 3831WAT    EPW16046   4.146   5.873   7.371
 3832WAT      O16047   5.623   5.726   6.701
 3832WAT     H116048   5.598   5.738   6.784
 3832WAT     H216049   5.710   5.722   6.707
 3832WAT    EPW16050   5.632   5.727   6.714
 3833WAT      O16051   4.504   5.428   6.043
 3833WAT     H116052   4.552   5.494   6.072
 3833WAT     H216053   4.447   5.414   6.107
 3833WAT    EPW16054   4.503   5.436   6.056
 3834WAT      O16055   5.382   5.191   7.482
 3834WAT     H116056   5.439   5.197   7.548
 3834WAT     H216057   5.354   5.108   7.487
 3834WAT    EPW16058   5.386   5.179   7.493
 3835WAT      O16059   3.944   5.034   6.734
 3835WAT     H116060   3.925   5.056   6.651
 3835WAT     H216061   4.030   5.049   6.740
 3835WAT    EPW16062   3.954   5.040   6.723
 3836WAT      O16063   5.768   6.227   6.783
 3836WAT     H116064   5.796   6.282   6.721
 3836WAT     H216065   5.833   6.226   6.841
 3836WAT    EPW16066   5.781   6.235   6.783
 3837WAT      O16067   5.283   5.585   7.532
 3837WAT     H116068   5.329   5.646   7.575
 3837WAT     H216069   5.203   5.592   7.568
 3837WAT    EPW16070   5.278   5.595   7.544
 3838WAT      O16071   5.539   5.517   7.424
 3838WAT     H116072   5.577   5.590   7.453
 3838WAT     H216073   5.459   5.521   7.458
 3838WAT    EPW16074   5.533   5.528   7.433
 3839WAT      O16075   5.461   6.156   5.990
 3839WAT     H116076   5.499   6.078   6.004
 3839WAT     H216077   5.387   6.150   6.035
 3839WAT    EPW16078   5.456   6.143   5.999
 3840WAT      O16079   5.499   5.301   6.519
 3840WAT     H116080   5.432   5.253   6.547
 3840WAT     H216081   5.491   5.375   6.564
 3840WAT    EPW16082   5.488   5.305   6.530
 3841WAT      O16083   5.686   5.872   7.262
 3841WAT     H116084   5.753   5.823   7.236
 3841WAT     H216085   5.677   5.930   7.196
 3841WAT    EPW16086   5.694   5.873   7.248
 3842WAT      O16087   5.146   5.965   5.936
 3842WAT     H116088   5.222   5.923   5.925
 3842WAT     H216089   5.116   5.975   5.854
 3842WAT    EPW16090   5.153   5.960   5.922
 3843WAT      O16091   4.569   6.076   7.013
 3843WAT     H116092   4.586   6.126   7.083
 3843WAT     H216093   4.591   6.128   6.946
 3843WAT    EPW16094   4.575   6.091   7.013
 3844WAT      O16095   4.419   5.947   7.336
 3844WAT     H116096   4.341   5.917   7.363
 3844WAT     H216097   4.401   6.027   7.307
 3844WAT    EPW16098   4.405   5.954   7.336
 3845WAT      O16099   5.346   4.990   7.181
 3845WAT     H116100   5.399   5.059   7.183
 3845WAT     H216101   5.267   5.025   7.166
 3845WAT    EPW16102   5.342   5.005   7.179
 3846WAT      O16103   4.898   5.711   6.913
 3846WAT     H116104   4.954   5.730   6.977
 3846WAT     H216105   4.820   5.729   6.948
 3846WAT    EPW16106   4.894   5.716   6.928
 3847WAT      O16107   4.537   5.274   7.310
 3847WAT     H116108   4.553   5.195   7.342
 3847WAT     H216109   4.566   5.270   7.228
 3847WAT    EPW16110   4.543   5.262   7.303
 3848WAT      O16111   4.790   6.476   6.495
 3848WAT     H116112   4.813   6.559   6.503
 3848WAT     H216113   4.755   6.471   6.415
 3848WAT    EPW16114   4.788   6.487   6.484
 3849WAT      O16115   5.430   4.782   7.010
 3849WAT     H116116   5.397   4.853   7.047
 3849WAT     H216117   5.515   4.787   7.030
 3849WAT    EPW16118   5.438   4.793   7.019
 3850WAT      O16119   4.677   4.855   7.169
 3850WAT     H116120   4.759   4.885   7.179
 3850WAT     H216121   4.688   4.782   7.123
 3850WAT    EPW16122   4.691   4.849   7.164
 3851WAT      O16123   4.633   6.271   6.823
 3851WAT     H116124   4.588   6.324   6.770
 3851WAT     H216125   4.679   6.221   6.769
 3851WAT    EPW16126   4.633   6.271   6.807
 3852WAT      O16127   5.044   5.925   7.527
 3852WAT     H116128   5.129   5.928   7.507
 3852WAT     H216129   5.005   5.929   7.449
 3852WAT    EPW16130   5.051   5.926   7.513
 3853WAT      O16131   5.362   6.235   7.417
 3853WAT     H116132   5.375   6.297   7.477
 3853WAT     H216133   5.417   6.256   7.353
 3853WAT    EPW16134   5.372   6.247   7.417
 3854WAT      O16135   5.638   5.465   5.904
 3854WAT     H116136   5.687   5.519   5.856
 3854WAT     H216137   5.561   5.505   5.908
 3854WAT    EPW16138   5.634   5.479   5.897
 3855WAT      O16139   4.756   5.776   5.903
 3855WAT     H116140   4.684   5.812   5.871
 3855WAT     H216141   4.798   5.843   5.940
 3855WAT    EPW16142   4.752   5.791   5.904
 3856WAT      O16143   4.417   5.372   6.855
 3856WAT     H116144   4.450   5.343   6.780
 3856WAT     H216145   4.472   5.340   6.915
 3856WAT    EPW16146   4.430   5.363   6.853
 3857WAT      O16147   5.107   5.239   7.414
 3857WAT     H116148   5.060   5.310   7.431
 3857WAT     H216149   5.187   5.259   7.443
 3857WAT    EPW16150   5.112   5.252   7.421
 3858WAT      O16151   5.170   5.400   7.043
 3858WAT     H116152   5.173   5.449   7.115
 3858WAT     H216153   5.153   5.320   7.073
 3858WAT    EPW16154   5.168   5.395   7.058
 3859WAT      O16155   4.883   6.499   7.432
 3859WAT     H116156   4.903   6.487   7.348
 3859WAT     H216157   4.847   6.423   7.455
 3859WAT    EPW16158   4.881   6.486   7.423
 3860WAT      O16159   5.394   5.347   6.268
 3860WAT     H116160   5.420   5.330   6.350
 3860WAT     H216161   5.466   5.374   6.228
 3860WAT    EPW16162   5.409   5.348   6.274
 3861WAT      O16163   4.703   4.845   6.798
 3861WAT     H116164   4.620   4.831   6.821
 3861WAT     H216165   4.700   4.854   6.711
 3861WAT    EPW16166   4.690   4.845   6.789
 3862WAT      O16167   5.520   4.930   6.427
 3862WAT     H116168   5.444   4.892   6.443
 3862WAT     H216169   5.518   4.946   6.341
 3862WAT    EPW16170   5.508   4.927   6.417
 3863WAT      O16171   5.541   5.744   6.247
 3863WAT     H116172   5.584   5.668   6.235
 3863WAT     H216173   5.457   5.721   6.241
 3863WAT    EPW16174   5.535   5.729   6.244
 3864WAT      O16175   4.892   5.953   7.291
 3864WAT     H116176   4.817   5.950   7.334
 3864WAT     H216177   4.901   6.037   7.270
 3864WAT    EPW16178   4.882   5.965   7.294
 3865WAT      O16179   3.892   4.915   7.413
 3865WAT     H116180   3.891   5.001   7.396
 3865WAT     H216181   3.822   4.903   7.463
 3865WAT    EPW16182   3.882   4.926   7.417
 3866WAT      O16183   4.451   6.589   6.901
 3866WAT     H116184   4.446   6.567   6.985
 3866WAT     H216185   4.422   6.517   6.860
 3866WAT    EPW16186   4.446   6.575   6.907
 3867WAT      O16187   4.253   5.150   6.150
 3867WAT     H116188   4.260   5.103   6.077
 3867WAT     H216189   4.172   5.130   6.178
 3867WAT    EPW16190   4.242   5.140   6.143
 3868WAT      O16191   5.175   5.917   6.510
 3868WAT     H116192   5.166   5.930   6.596
 3868WAT     H216193   5.209   5.837   6.504
 3868WAT    EPW16194   5.179   5.907   6.522
 3869WAT      O16195   4.925   5.830   6.425
 3869WAT     H116196   4.883   5.827   6.502
 3869WAT     H216197   5.004   5.860   6.446
 3869WAT    EPW16198   4.930   5.834   6.440
 3870WAT      O16199   4.902   6.228   7.259
 3870WAT     H116200   4.953   6.227   7.329
 3870WAT     H216201   4.933   6.295   7.212
 3870WAT    EPW16202   4.914   6.238   7.262
 3871WAT      O16203   5.729   5.314   7.472
 3871WAT     H116204   5.674   5.380   7.454
 3871WAT     H216205   5.807   5.353   7.474
 3871WAT    EPW16206   5.733   5.330   7.469
 3872WAT      O16207   5.156   5.568   7.269
 3872WAT     H116208   5.092   5.536   7.318
 3872WAT     H216209   5.219   5.586   7.327
 3872WAT    EPW16210   5.156   5.566   7.285
 3873WAT      O16211   4.088   6.535   7.401
 3873WAT     H116212   4.029   6.471   7.399
 3873WAT     H216213   4.044   6.603   7.436
 3873WAT    EPW16214   4.073   6.536   7.406
 3874WAT      O16215   5.026   5.666   7.631
 3874WAT     H116216   5.029   5.749   7.603
 3874WAT     H216217   5.006   5.674   7.716
 3874WAT    EPW16218   5.023   5.680   7.640
 3875WAT      O16219   5.303   6.561   6.750
 3875WAT     H116220   5.245   6.621   6.776
 3875WAT     H216221   5.369   6.572   6.806
 3875WAT    EPW16222   5.304   6.572   6.762
 3876WAT      O16223   4.949   6.044   6.948
 3876WAT     H116224   4.916   5.986   7.004
 3876WAT     H216225   5.011   6.085   6.995
 3876WAT    EPW16226   4.953   6.042   6.963
 3877WAT      O16227   4.277   5.374   7.250
 3877WAT     H116228   4.300   5.440   7.197
 3877WAT     H216229   4.353   5.341   7.277
 3877WAT    EPW16230   4.291   5.379   7.246
 3878WAT      O16231   4.086   5.212   7.126
 3878WAT     H116232   4.104   5.221   7.041
 3878WAT     H216233   4.144   5.264   7.165
 3878WAT    EPW16234   4.097   5.221   7.119
 3879WAT      O16235   5.621   5.483   6.182
 3879WAT     H116236   5.636   5.479   6.096
 3879WAT     H216237   5.695   5.452   6.216
 3879WAT    EPW16238   5.634   5.477   6.174
 3880WAT      O16239   4.277   4.950   7.423
 3880WAT     H116240   4.234   4.875   7.435
 3880WAT     H216241   4.265   4.968   7.339
 3880WAT    EPW16242   4.269   4.941   7.413
 3881WAT      O16243   5.041   6.196   6.338
 3881WAT     H116244   5.021   6.275   6.306
 3881WAT     H216245   4.969   6.149   6.322
 3881WAT    EPW16246   5.027   6.201   6.331
 3882WAT      O16247   5.536   5.511   7.144
 3882WAT     H116248   5.510   5.428   7.135
 3882WAT     H216249   5.531   5.525   7.230
 3882WAT    EPW16250   5.531   5.501   7.155
 3883WAT      O16251   4.034   5.719   7.188
 3883WAT     H116252   4.074   5.732   7.111
 3883WAT     H216253   4.007   5.636   7.183
 3883WAT    EPW16254   4.036   5.709   7.176
 3884WAT      O16255   5.062   4.972   7.478
 3884WAT     H116256   5.071   5.058   7.469
 3884WAT     H216257   4.984   4.963   7.517
 3884WAT    EPW16258   5.052   4.983   7.482
 3885WAT      O16259   5.028   5.035   6.587
 3885WAT     H116260   4.950   5.072   6.584
 3885WAT     H216261   5.025   4.975   6.523
 3885WAT    EPW16262   5.016   5.032   6.577
 3886WAT      O16263   4.482   6.162   5.971
 3886WAT     H116264   4.515   6.155   6.051
 3886WAT     H216265   4.396   6.153   5.983
 3886WAT    EPW16266   4.474   6.159   5.985
 3887WAT      O16267   5.357   5.101   6.850
 3887WAT     H116268   5.437   5.068   6.860
 3887WAT     H216269   5.366   5.184   6.876
 3887WAT    EPW16270   5.371   5.108   6.855
 3888WAT      O16271   4.532   5.704   7.236
 3888WAT     H116272   4.490   5.773   7.269
 3888WAT     H216273   4.470   5.663   7.191
 3888WAT    EPW16274   4.516   5.708   7.235
 3889WAT      O16275   5.431   5.533   6.658
 3889WAT     H116276   5.496   5.591   6.669
 3889WAT     H216277   5.375   5.575   6.606
 3889WAT    EPW16278   5.432   5.548   6.652
 3890WAT      O16279   5.442   6.370   6.376
 3890WAT     H116280   5.425   6.293   6.413
 3890WAT     H216281   5.483   6.349   6.303
 3890WAT    EPW16282   5.446   6.356   6.371
 3891WAT      O16283   4.226   6.048   6.013
 3891WAT     H116284   4.222   6.039   6.100
 3891WAT     H216285   4.254   5.970   5.985
 3891WAT    EPW16286   4.229   6.035   6.022
 3892WAT      O16287   4.530   5.922   5.834
 3892WAT     H116288   4.451   5.885   5.839
 3892WAT     H216289   4.520   5.998   5.876
 3892WAT    EPW16290   4.517   5.928   5.841
 3893WAT      O16291   4.499   5.024   7.034
 3893WAT     H116292   4.420   5.005   7.066
 3893WAT     H216293   4.551   4.964   7.069
 3893WAT    EPW16294   4.495   5.012   7.044
 3894WAT      O16295   5.689   4.877   7.120
 3894WAT     H116296   5.703   4.943   7.177
 3894WAT     H216297   5.767   4.838   7.115
 3894WAT    EPW16298   5.703   4.881   7.128
 3895WAT      O16299   4.887   5.022   6.919
 3895WAT     H116300   4.829   4.965   6.887
 3895WAT     H216301   4.964   4.986   6.902
 3895WAT    EPW16302   4.890   5.009   6.912
 3896WAT      O16303   5.200   6.152   7.031
 3896WAT     H116304   5.223   6.220   7.081
 3896WAT     H216305   5.199   6.186   6.950
 3896WAT    EPW16306   5.203   6.167   7.026
 3897WAT      O16307   5.171   6.558   7.466
 3897WAT     H116308   5.096   6.513   7.473
 3897WAT     H216309   5.146   6.641   7.481
 3897WAT    EPW16310   5.156   6.564   7.469
 3898WAT      O16311   4.692   5.506   7.366
 3898WAT     H116312   4.643   5.434   7.359
 3898WAT     H216313   4.644   5.568   7.329
 3898WAT    EPW16314   4.678   5.505   7.359
 3899WAT      O16315   4.761   4.843   5.934
 3899WAT     H116316   4.768   4.837   5.847
 3899WAT     H216317   4.675   4.847   5.947
 3899WAT    EPW16318   4.750   4.843   5.923
 3900WAT      O16319   5.651   6.000   7.014
 3900WAT     H116320   5.620   5.925   6.984
 3900WAT     H216321   5.601   6.060   6.976
 3900WAT    EPW16322   5.639   5.998   7.004
 3901WAT      O16323   4.540   6.497   7.431
 3901WAT     H116324   4.577   6.568   7.467
 3901WAT     H216325   4.595   6.433   7.450
 3901WAT    EPW16326   4.553   6.498   7.439
 3902WAT      O16327   5.542   6.271   6.952
 3902WAT     H116328   5.613   6.275   6.902
 3902WAT     H216329   5.483   6.232   6.901
 3902WAT    EPW16330   5.544   6.266   6.937
 3903WAT      O16331   4.247   4.984   7.152
 3903WAT     H116332   4.198   4.915   7.129
 3903WAT     H216333   4.194   5.052   7.138
 3903WAT    EPW16334   4.232   4.984   7.146
 3904WAT      O16335   5.134   4.930   6.824
 3904WAT     H116336   5.199   4.985   6.844
 3904WAT     H216337   5.103   4.962   6.749
 3904WAT    EPW16338   5.139   4.943   6.816
 3905WAT      O16339   4.298   6.367   7.483
 3905WAT     H116340   4.370   6.416   7.483
 3905WAT     H216341   4.234   6.424   7.467
 3905WAT    EPW16342   4.299   6.382   7.481
 3906WAT      O16343   5.101   5.424   6.573
 3906WAT     H116344   5.156   5.357   6.586
 3906WAT     H216345   5.070   5.440   6.653
 3906WAT    EPW16346   5.105   5.416   6.587
 3907WAT      O16347   4.095   5.314   6.483
 3907WAT     H116348   4.057   5.341   6.556
 3907WAT     H216349   4.138   5.242   6.508
 3907WAT    EPW16350   4.096   5.307   6.498
 3908WAT      O16351   4.085   6.117   7.251
 3908WAT     H116352   4.032   6.176   7.288
 3908WAT     H216353   4.164   6.154   7.256
 3908WAT    EPW16354   4.089   6.131   7.257
 3909WAT      O16355   5.292   5.597   6.210
 3909WAT     H116356   5.314   5.515   6.228
 3909WAT     H216357   5.217   5.590   6.166
 3909WAT    EPW16358   5.284   5.584   6.206
 3910WAT      O16359   4.648   5.650   6.124
 3910WAT     H116360   4.681   5.689   6.053
 3910WAT     H216361   4.718   5.635   6.174
 3910WAT    EPW16362   4.663   5.654   6.121
 3911WAT      O16363   5.569   6.540   5.831
 3911WAT     H116364   5.639   6.530   5.882
 3911WAT     H216365   5.553   6.459   5.802
 3911WAT    EPW16366   5.577   6.527   5.834
 3912WAT      O16367   5.662   5.749   7.517
 3912WAT     H116368   5.741   5.724   7.542
 3912WAT     H216369   5.677   5.799   7.447
 3912WAT    EPW16370   5.676   5.753   7.510
 3913WAT      O16371   5.222   6.158   6.126
 3913WAT     H116372   5.176   6.154   6.200
 3913WAT     H216373   5.185   6.097   6.076
 3913WAT    EPW16374   5.210   6.148   6.130
 3914WAT      O16375   5.595   5.154   7.661
 3914WAT     H116376   5.648   5.207   7.615
 3914WAT     H216377   5.611   5.075   7.628
 3914WAT    EPW16378   5.605   5.150   7.649
 3915WAT      O16379   5.677   5.323   6.914
 3915WAT     H116380   5.594   5.350   6.911
 3915WAT     H216381   5.671   5.236   6.914
 3915WAT    EPW16382   5.664   5.314   6.913
 3916WAT      O16383   4.566   4.982   7.397
 3916WAT     H116384   4.582   4.946   7.319
 3916WAT     H216385   4.480   4.971   7.408
 3916WAT    EPW16386   4.556   4.975   7.387
 3917WAT      O16387   5.423   5.785   7.658
 3917WAT     H116388   5.505   5.778   7.629
 3917WAT     H216389   5.390   5.852   7.613
 3917WAT    EPW16390   5.430   5.794   7.647
 3918WAT      O16391   4.299   6.370   6.809
 3918WAT     H116392   4.306   6.299   6.759
 3918WAT     H216393   4.253   6.425   6.759
 3918WAT    EPW16394   4.293   6.368   6.794
 3919WAT      O16395   4.884   5.993   6.011
 3919WAT     H116396   4.969   5.978   5.997
 3919WAT     H216397   4.867   6.064   5.964
 3919WAT    EPW16398   4.894   6.001   6.002
 3920WAT      O16399   4.060   6.575   7.128
 3920WAT     H116400   4.066   6.565   7.215
 3920WAT     H216401   4.098   6.503   7.097
 3920WAT    EPW16402   4.066   6.563   7.137
 3921WAT      O16403   5.045   4.806   4.497
 3921WAT     H116404   5.039   4.834   4.415
 3921WAT     H216405   5.130   4.788   4.507
 3921WAT    EPW16406   5.057   4.807   4.486
 3922WAT      O16407   4.977   5.455   4.939
 3922WAT     H116408   4.940   5.529   4.968
 3922WAT     H216409   5.038   5.439   4.999
 3922WAT    EPW16410   4.980   5.464   4.952
 3923WAT      O16411   3.964   5.918   4.469
 3923WAT     H116412   3.964   5.935   4.555
 3923WAT     H216413   3.895   5.866   4.459
 3923WAT    EPW16414   3.954   5.913   4.480
 3924WAT      O16415   5.602   6.315   4.255
 3924WAT     H116416   5.666   6.259   4.276
 3924WAT     H216417   5.551   6.269   4.201
 3924WAT    EPW16418   5.604   6.300   4.250
 3925WAT      O16419   4.204   5.816   4.056
 3925WAT     H116420   4.207   5.792   3.972
 3925WAT     H216421   4.189   5.742   4.099
 3925WAT    EPW16422   4.202   5.802   4.050
 3926WAT      O16423   5.237   5.645   4.584
 3926WAT     H116424   5.247   5.631   4.499
 3926WAT     H216425   5.184   5.581   4.610
 3926WAT    EPW16426   5.231   5.634   4.575
 3927WAT      O16427   4.226   5.998   4.398
 3927WAT     H116428   4.274   5.956   4.458
 3927WAT     H216429   4.145   5.969   4.411
 3927WAT    EPW16430   4.221   5.988   4.409
 3928WAT      O16431   4.557   4.987   4.438
 3928WAT     H116432   4.598   5.018   4.368
 3928WAT     H216433   4.513   4.918   4.408
 3928WAT    EPW16434   4.556   4.981   4.423
 3929WAT      O16435   4.085   6.299   3.981
 3929WAT     H116436   4.141   6.318   3.917
 3929WAT     H216437   4.127   6.240   4.029
 3929WAT    EPW16438   4.099   6.293   3.979
 3930WAT      O16439   4.002   6.145   5.130
 3930WAT     H116440   4.033   6.126   5.210
 3930WAT     H216441   3.949   6.078   5.113
 3930WAT    EPW16442   3.999   6.132   5.139
 3931WAT      O16443   4.640   5.974   5.584
 3931WAT     H116444   4.612   5.958   5.665
 3931WAT     H216445   4.571   5.955   5.534
 3931WAT    EPW16446   4.626   5.969   5.589
 3932WAT      O16447   4.222   5.571   4.483
 3932WAT     H116448   4.150   5.562   4.531
 3932WAT     H216449   4.257   5.491   4.484
 3932WAT    EPW16450   4.217   5.558   4.490
 3933WAT      O16451   4.581   5.258   5.087
 3933WAT     H116452   4.519   5.292   5.035
 3933WAT     H216453   4.557   5.175   5.096
 3933WAT    EPW16454   4.569   5.251   5.080
 3934WAT      O16455   4.628   6.313   5.319
 3934WAT     H116456   4.667   6.359   5.256
 3934WAT     H216457   4.695   6.271   5.357
 3934WAT    EPW16458   4.644   6.313   5.315
 3935WAT      O16459   4.316   5.311   4.460
 3935WAT     H116460   4.368   5.273   4.519
 3935WAT     H216461   4.309   5.250   4.398
 3935WAT    EPW16462   4.323   5.296   4.460
 3936WAT      O16463   4.757   6.078   4.762
 3936WAT     H116464   4.779   5.995   4.778
 3936WAT     H216465   4.833   6.117   4.744
 3936WAT    EPW16466   4.771   6.072   4.762
 3937WAT      O16467   4.826   6.039   4.376
 3937WAT     H116468   4.851   5.968   4.421
 3937WAT     H216469   4.837   6.014   4.293
 3937WAT    EPW16470   4.832   6.025   4.370
 3938WAT      O16471   4.922   5.443   5.649
 3938WAT     H116472   4.854   5.453   5.595
 3938WAT     H216473   4.942   5.525   5.671
 3938WAT    EPW16474   4.915   5.457   5.644
 3939WAT      O16475   5.379   4.909   5.542
 3939WAT     H116476   5.379   4.916   5.455
 3939WAT     H216477   5.323   4.843   5.557
 3939WAT    EPW16478   5.370   4.900   5.532
 3940WAT      O16479   4.666   4.830   4.649
 3940WAT     H116480   4.645   4.891   4.590
 3940WAT     H216481   4.628   4.758   4.618
 3940WAT    EPW16482   4.657   4.828   4.636
 3941WAT      O16483   5.142   5.132   3.870
 3941WAT     H116484   5.098   5.197   3.909
 3941WAT     H216485   5.162   5.079   3.936
 3941WAT    EPW16486   5.138   5.134   3.886
 3942WAT      O16487   3.974   6.363   4.650
 3942WAT     H116488   3.911   6.412   4.614
 3942WAT     H216489   4.017   6.331   4.581
 3942WAT    EPW16490   3.971   6.365   4.634
 3943WAT      O16491   4.556   6.077   4.383
 3943WAT     H116492   4.533   6.086   4.467
 3943WAT     H216493   4.643   6.068   4.386
 3943WAT    EPW16494   4.566   6.077   4.396
 3944WAT      O16495   5.166   6.416   4.162
 3944WAT     H116496   5.237   6.465   4.164
 3944WAT     H216497   5.195   6.336   4.180
 3944WAT    EPW16498   5.181   6.411   4.165
 3945WAT      O16499   4.985   6.445   4.369
 3945WAT     H116500   5.002   6.520   4.410
 3945WAT     H216501   5.043   6.444   4.303
 3945WAT    EPW16502   4.996   6.456   4.365
 3946WAT      O16503   4.526   5.143   5.770
 3946WAT     H116504   4.540   5.100   5.696
 3946WAT     H216505   4.539   5.227   5.749
 3946WAT    EPW16506   4.530   5.149   5.756
 3947WAT      O16507   4.126   6.273   4.427
 3947WAT     H116508   4.181   6.207   4.441
 3947WAT     H216509   4.175   6.333   4.387
 3947WAT    EPW16510   4.141   6.272   4.424
 3948WAT      O16511   5.708   5.104   4.596
 3948WAT     H116512   5.656   5.173   4.609
 3948WAT     H216513   5.653   5.038   4.582
 3948WAT    EPW16514   5.692   5.105   4.596
 3949WAT      O16515   5.219   6.430   5.167
 3949WAT     H116516   5.288   6.482   5.152
 3949WAT     H216517   5.198   6.401   5.087
 3949WAT    EPW16518   5.226   6.433   5.153
 3950WAT      O16519   4.257   6.098   4.801
 3950WAT     H116520   4.329   6.092   4.751
 3950WAT     H216521   4.279   6.055   4.873
 3950WAT    EPW16522   4.271   6.091   4.804
 3951WAT      O16523   4.547   6.375   4.675
 3951WAT     H116524   4.627   6.397   4.651
 3951WAT     H216525   4.497   6.441   4.647
 3951WAT    EPW16526   4.551   6.388   4.667
 3952WAT      O16527   4.773   4.818   5.661
 3952WAT     H116528   4.815   4.751   5.624
 3952WAT     H216529   4.690   4.807   5.636
 3952WAT    EPW16530   4.767   4.807   5.652
 3953WAT      O16531   4.890   5.388   4.494
 3953WAT     H116532   4.916   5.335   4.430
 3953WAT     H216533   4.960   5.394   4.546
 3953WAT    EPW16534   4.904   5.381   4.492
 3954WAT      O16535   5.001   5.331   4.019
 3954WAT     H116536   5.023   5.409   4.053
 3954WAT     H216537   4.924   5.346   3.981
 3954WAT    EPW16538   4.993   5.345   4.018
 3955WAT      O16539   5.379   6.594   4.137
 3955WAT     H116540   5.430   6.575   4.069
 3955WAT     H216541   5.431   6.642   4.189
 3955WAT    EPW16542   5.395   6.599   4.135
 3956WAT      O16543   4.397   6.474   5.269
 3956WAT     H116544   4.462   6.418   5.286
 3956WAT     H216545   4.332   6.423   5.242
 3956WAT    EPW16546   4.397   6.458   5.267
 3957WAT      O16547   5.620   5.043   5.042
 3957WAT     H116548   5.684   5.039   4.982
 3957WAT     H216549   5.642   4.981   5.099
 3957WAT    EPW16550   5.633   5.033   5.041
 3958WAT      O16551   5.111   6.218   5.507
 3958WAT     H116552   5.098   6.228   5.593
 3958WAT     H216553   5.198   6.219   5.499
 3958WAT    EPW16554   5.122   6.219   5.519
 3959WAT      O16555   4.849   6.249   3.982
 3959WAT     H116556   4.826   6.306   4.045
 3959WAT     H216557   4.927   6.279   3.956
 3959WAT    EPW16558   4.857   6.262   3.988
 3960WAT      O16559   5.201   4.966   4.080
 3960WAT     H116560   5.260   4.903   4.087
 3960WAT     H216561   5.217   5.016   4.150
 3960WAT    EPW16562   5.212   4.964   4.092
 3961WAT      O16563   4.177   6.361   5.140
 3961WAT     H116564   4.121   6.294   5.137
 3961WAT     H216565   4.216   6.359   5.062
 3961WAT    EPW16566   4.175   6.351   5.128
 3962WAT      O16567   4.949   5.226   4.274
 3962WAT     H116568   4.877   5.177   4.262
 3962WAT     H216569   4.966   5.255   4.194
 3962WAT    EPW16570   4.941   5.223   4.260
 3963WAT      O16571   4.980   6.508   5.280
 3963WAT     H116572   5.056   6.483   5.246
 3963WAT     H216573   4.922   6.485   5.220
 3963WAT    EPW16574   4.983   6.501   5.266
 3964WAT      O16575   4.990   4.865   4.233
 3964WAT     H116576   4.917   4.851   4.187
 3964WAT     H216577   5.046   4.896   4.174
 3964WAT    EPW16578   4.987   4.868   4.217
 3965WAT      O16579   5.664   6.536   4.534
 3965WAT     H116580   5.625   6.613   4.548
 3965WAT     H216581   5.598   6.481   4.521
 3965WAT    EPW16582   5.649   6.539   4.534
 3966WAT      O16583   4.750   5.208   4.655
 3966WAT     H116584   4.784   5.272   4.607
 3966WAT     H216585   4.772   5.230   4.737
 3966WAT    EPW16586   4.758   5.221   4.660
 3967WAT      O16587   5.384   6.112   4.593
 3967WAT     H116588   5.443   6.048   4.586
 3967WAT     H216589   5.307   6.071   4.588
 3967WAT    EPW16590   5.381   6.097   4.591
 3968WAT      O16591   4.366   6.211   5.468
 3968WAT     H116592   4.443   6.251   5.457
 3968WAT     H216593   4.333   6.248   5.540
 3968WAT    EPW16594   4.372   6.222   5.477
 3969WAT      O16595   4.528   5.793   4.882
 3969WAT     H116596   4.559   5.782   4.962
 3969WAT     H216597   4.473   5.726   4.872
 3969WAT    EPW16598   4.525   5.781   4.892
 3970WAT      O16599   5.130   5.156   5.262
 3970WAT     H116600   5.121   5.200   5.337
 3970WAT     H216601   5.069   5.094   5.268
 3970WAT    EPW16602   5.119   5.154   5.274
 3971WAT      O16603   4.638   5.810   5.136
 3971WAT     H116604   4.625   5.895   5.153
 3971WAT     H216605   4.603   5.770   5.205
 3971WAT    EPW16606   4.631   5.817   5.149
 3972WAT      O16607   5.278   5.867   5.135
 3972WAT     H116608   5.204   5.846   5.177
 3972WAT     H216609   5.284   5.954   5.146
 3972WAT    EPW16610   5.268   5.877   5.143
 3973WAT      O16611   5.312   4.719   4.575
 3973WAT     H116612   5.321   4.705   4.661
 3973WAT     H216613   5.345   4.647   4.539
 3973WAT    EPW16614   5.318   4.706   4.583
 3974WAT      O16615   3.886   6.209   5.752
 3974WAT     H116616   3.941   6.257   5.800
 3974WAT     H216617   3.893   6.129   5.787
 3974WAT    EPW16618   3.895   6.204   5.764
 3975WAT      O16619   5.514   5.228   5.359
 3975WAT     H116620   5.593   5.200   5.381
 3975WAT     H216621   5.470   5.228   5.434
 3975WAT    EPW16622   5.519   5.224   5.373
 3976WAT      O16623   5.575   5.903   4.116
 3976WAT     H116624   5.576   5.857   4.190
 3976WAT     H216625   5.660   5.914   4.098
 3976WAT    EPW16626   5.588   5.898   4.124
 3977WAT      O16627   4.380   5.800   4.527
 3977WAT     H116628   4.416   5.801   4.606
 3977WAT     H216629   4.334   5.726   4.526
 3977WAT    EPW16630   4.378   5.789   4.538
 3978WAT      O16631   4.162   6.536   4.750
 3978WAT     H116632   4.095   6.490   4.719
 3978WAT     H216633   4.217   6.541   4.682
 3978WAT    EPW16634   4.161   6.530   4.735
 3979WAT      O16635   5.815   6.331   5.500
 3979WAT     H116636   5.740   6.333   5.456
 3979WAT     H216637   5.794   6.286   5.572
 3979WAT    EPW16638   5.801   6.324   5.504
 3980WAT      O16639   5.389   5.569   4.038
 3980WAT     H116640   5.381   5.651   4.010
 3980WAT     H216641   5.360   5.573   4.120
 3980WAT    EPW16642   5.384   5.582   4.046
 3981WAT      O16643   5.712   5.045   4.026
 3981WAT     H116644   5.742   4.975   3.983
 3981WAT     H216645   5.674   5.093   3.964
 3981WAT    EPW16646   5.711   5.041   4.011
 3982WAT      O16647   4.005   5.969   4.748
 3982WAT     H116648   3.950   6.031   4.777
 3982WAT     H216649   4.084   6.004   4.760
 3982WAT    EPW16650   4.008   5.983   4.754
 3983WAT      O16651   4.556   5.421   5.735
 3983WAT     H116652   4.617   5.438   5.795
 3983WAT     H216653   4.593   5.444   5.660
 3983WAT    EPW16654   4.571   5.427   5.733
 3984WAT      O16655   5.816   5.451   5.251
 3984WAT     H116656   5.873   5.386   5.256
 3984WAT     H216657   5.759   5.425   5.191
 3984WAT    EPW16658   5.816   5.438   5.243
 3985WAT      O16659   3.905   5.523   4.313
 3985WAT     H116660   3.903   5.436   4.315
 3985WAT     H216661   3.979   5.541   4.271
 3985WAT    EPW16662   3.916   5.513   4.307
 3986WAT      O16663   5.574   4.928   4.245
 3986WAT     H116664   5.647   4.890   4.273
 3986WAT     H216665   5.601   4.981   4.182
 3986WAT    EPW16666   5.589   4.930   4.240
 3987WAT      O16667   4.991   6.226   4.719
 3987WAT     H116668   4.942   6.295   4.697
 3987WAT     H216669   5.027   6.201   4.644
 3987WAT    EPW16670   4.989   6.232   4.705
 3988WAT      O16671   3.954   6.120   4.273
 3988WAT     H116672   4.004   6.177   4.317
 3988WAT     H216673   3.935   6.059   4.333
 3988WAT    EPW16674   3.958   6.119   4.289
 3989WAT      O16675   4.347   5.956   5.020
 3989WAT     H116676   4.402   6.003   5.069
 3989WAT     H216677   4.400   5.905   4.973
 3989WAT    EPW16678   4.363   5.955   5.021
 3990WAT      O16679   5.221   5.177   4.713
 3990WAT     H116680   5.252   5.141   4.786
 3990WAT     H216681   5.154   5.125   4.691
 3990WAT    EPW16682   5.216   5.164   4.720
 3991WAT      O16683   3.956   5.968   4.031
 3991WAT     H116684   4.018   5.908   4.042
 3991WAT     H216685   3.961   6.017   4.103
 3991WAT    EPW16686   3.966   5.967   4.043
 3992WAT      O16687   4.060   5.704   4.890
 3992WAT     H116688   4.005   5.636   4.884
 3992WAT     H216689   4.031   5.759   4.828
 3992WAT    EPW16690   4.047   5.702   4.880
 3993WAT      O16691   4.692   5.107   4.203
 3993WAT     H116692   4.702   5.047   4.140
 3993WAT     H216693   4.627   5.157   4.173
 3993WAT    EPW16694   4.684   5.106   4.189
 3994WAT      O16695   5.569   6.351   5.351
 3994WAT     H116696   5.525   6.426   5.359
 3994WAT     H216697   5.566   6.335   5.265
 3994WAT    EPW16698   5.562   6.360   5.339
 3995WAT      O16699   4.496   6.108   4.652
 3995WAT     H116700   4.503   6.195   4.654
 3995WAT     H216701   4.571   6.081   4.687
 3995WAT    EPW16702   4.508   6.117   4.657
 3996WAT      O16703   4.268   5.334   4.099
 3996WAT     H116704   4.272   5.252   4.128
 3996WAT     H216705   4.225   5.327   4.023
 3996WAT    EPW16706   4.262   5.321   4.092
 3997WAT      O16707   4.331   5.607   4.838
 3997WAT     H116708   4.248   5.623   4.859
 3997WAT     H216709   4.340   5.522   4.857
 3997WAT    EPW16710   4.320   5.597   4.844
 3998WAT      O16711   4.288   5.558   5.265
 3998WAT     H116712   4.233   5.491   5.268
 3998WAT     H216713   4.243   5.619   5.220
 3998WAT    EPW16714   4.273   5.557   5.259
 3999WAT      O16715   5.400   5.366   4.974
 3999WAT     H116716   5.334   5.392   5.025
 3999WAT     H216717   5.398   5.421   4.907
 3999WAT    EPW16718   5.390   5.378   4.972
 4000WAT      O16719   4.761   6.444   5.110
 4000WAT     H116720   4.740   6.386   5.049
 4000WAT     H216721   4.749   6.521   5.071
 4000WAT    EPW16722   4.756   6.447   5.095
 4001WAT      O16723   4.961   4.932   5.321
 4001WAT     H116724   4.978   4.848   5.301
 4001WAT     H216725   4.981   4.937   5.405
 4001WAT    EPW16726   4.967   4.920   5.330
 4002WAT      O16727   5.217   5.126   4.302
 4002WAT     H116728   5.267   5.196   4.321
 4002WAT     H216729   5.136   5.157   4.309
 4002WAT    EPW16730   5.213   5.141   4.306
 4003WAT      O16731   4.157   5.630   5.627
 4003WAT     H116732   4.163   5.697   5.571
 4003WAT     H216733   4.108   5.572   5.585
 4003WAT    EPW16734   4.151   5.631   5.613
 4004WAT      O16735   5.322   5.945   5.589
 4004WAT     H116736   5.350   6.024   5.563
 4004WAT     H216737   5.350   5.892   5.525
 4004WAT    EPW16738   5.330   5.949   5.576
 4005WAT      O16739   4.720   6.243   5.614
 4005WAT     H116740   4.754   6.240   5.695
 4005WAT     H216741   4.696   6.161   5.599
 4005WAT    EPW16742   4.721   6.231   5.624
 4006WAT      O16743   4.808   5.226   4.926
 4006WAT     H116744   4.863   5.293   4.939
 4006WAT     H216745   4.743   5.242   4.981
 4006WAT    EPW16746   4.807   5.239   4.936
 4007WAT      O16747   5.054   5.576   4.149
 4007WAT     H116748   5.037   5.623   4.078
 4007WAT     H216749   4.989   5.597   4.204
 4007WAT    EPW16750   5.042   5.586   4.147
 4008WAT      O16751   5.553   5.893   4.589
 4008WAT     H116752   5.572   5.839   4.654
 4008WAT     H216753   5.554   5.842   4.518
 4008WAT    EPW16754   5.556   5.877   4.588
 4009WAT      O16755   5.179   6.307   4.915
 4009WAT     H116756   5.121   6.279   4.857
 4009WAT     H216757   5.214   6.377   4.878
 4009WAT    EPW16758   5.176   6.313   4.901
 4010WAT      O16759   5.164   5.963   4.894
 4010WAT     H116760   5.092   5.997   4.931
 4010WAT     H216761   5.196   5.912   4.957
 4010WAT    EPW16762   5.158   5.961   4.909
 4011WAT      O16763   4.537   6.325   4.255
 4011WAT     H116764   4.553   6.255   4.305
 4011WAT     H216765   4.615   6.362   4.245
 4011WAT    EPW16766   4.551   6.320   4.261
 4012WAT      O16767   4.781   6.430   4.181
 4012WAT     H116768   4.842   6.440   4.243
 4012WAT     H216769   4.777   6.508   4.143
 4012WAT    EPW16770   4.790   6.443   4.184
 4013WAT      O16771   5.398   5.788   5.373
 4013WAT     H116772   5.370   5.815   5.295
 4013WAT     H216773   5.484   5.801   5.370
 4013WAT    EPW16774   5.407   5.794   5.361
 4014WAT      O16775   5.106   6.332   5.779
 4014WAT     H116776   5.133   6.358   5.858
 4014WAT     H216777   5.135   6.395   5.726
 4014WAT    EPW16778   5.114   6.346   5.783
 4015WAT      O16779   5.603   4.865   5.709
 4015WAT     H116780   5.538   4.879   5.652
 4015WAT     H216781   5.579   4.790   5.749
 4015WAT    EPW16782   5.590   4.856   5.707
 4016WAT      O16783   4.172   5.580   4.210
 4016WAT     H116784   4.200   5.503   4.179
 4016WAT     H216785   4.191   5.576   4.295
 4016WAT    EPW16786   4.179   5.568   4.218
 4017WAT      O16787   5.038   5.795   5.264
 4017WAT     H116788   4.990   5.827   5.329
 4017WAT     H216789   5.075   5.724   5.298
 4017WAT    EPW16790   5.036   5.790   5.278
 4018WAT      O16791   4.866   5.625   4.354
 4018WAT     H116792   4.886   5.687   4.412
 4018WAT     H216793   4.869   5.551   4.400
 4018WAT    EPW16794   4.870   5.623   4.369
 4019WAT      O16795   5.431   6.084   4.903
 4019WAT     H116796   5.460   6.105   4.823
 4019WAT     H216797   5.349   6.057   4.889
 4019WAT    EPW16798   5.423   6.083   4.889
 4020WAT      O16799   4.796   5.805   4.792
 4020WAT     H116800   4.712   5.791   4.809
 4020WAT     H216801   4.837   5.775   4.863
 4020WAT    EPW16802   4.790   5.799   4.805
 4021WAT      O16803   4.443   6.467   3.903
 4021WAT     H116804   4.462   6.390   3.939
 4021WAT     H216805   4.453   6.524   3.969
 4021WAT    EPW16806   4.447   6.464   3.918
 4022WAT      O16807   4.161   5.780   5.144
 4022WAT     H116808   4.217   5.839   5.112
 4022WAT     H216809   4.121   5.748   5.073
 4022WAT    EPW16810   4.163   5.784   5.129
 4023WAT      O16811   4.473   5.177   4.652
 4023WAT     H116812   4.558   5.195   4.652
 4023WAT     H216813   4.468   5.101   4.609
 4023WAT    EPW16814   4.485   5.168   4.646
 4024WAT      O16815   5.772   6.485   4.115
 4024WAT     H116816   5.840   6.435   4.089
 4024WAT     H216817   5.722   6.429   4.159
 4024WAT    EPW16818   5.775   6.469   4.117
 4025WAT      O16819   5.523   5.725   5.071
 4025WAT     H116820   5.523   5.655   5.124
 4025WAT     H216821   5.441   5.756   5.079
 4025WAT    EPW16822   5.511   5.719   5.080
 4026WAT      O16823   4.479   5.615   3.904
 4026WAT     H116824   4.485   5.549   3.960
 4026WAT     H216825   4.450   5.578   3.831
 4026WAT    EPW16826   4.476   5.600   3.902
 4027WAT      O16827   4.150   5.842   5.428
 4027WAT     H116828   4.141   5.809   5.348
 4027WAT     H216829   4.115   5.921   5.422
 4027WAT    EPW16830   4.144   5.849   5.415
 4028WAT      O16831   5.620   5.719   4.806
 4028WAT     H116832   5.593   5.725   4.889
 4028WAT     H216833   5.707   5.719   4.813
 4028WAT    EPW16834   5.629   5.720   4.819
 4029WAT      O16835   4.535   5.410   4.085
 4029WAT     H116836   4.548   5.459   4.156
 4029WAT     H216837   4.455   5.376   4.097
 4029WAT    EPW16838   4.525   5.412   4.097
 4030WAT      O16839   5.339   5.177   5.614
 4030WAT     H116840   5.281   5.169   5.678
 4030WAT     H216841   5.353   5.095   5.589
 4030WAT    EPW16842   5.333   5.164   5.620
 4031WAT      O16843   5.761   6.221   4.881
 4031WAT     H116844   5.792   6.278   4.823
 4031WAT     H216845   5.823   6.219   4.943
 4031WAT    EPW16846   5.775   6.229   4.882
 4032WAT      O16847   5.241   5.520   5.720
 4032WAT     H116848   5.284   5.527   5.795
 4032WAT     H216849   5.172   5.573   5.730
 4032WAT    EPW16850   5.237   5.529   5.732
 4033WAT      O16851   5.464   5.535   5.546
 4033WAT     H116852   5.491   5.615   5.569
 4033WAT     H216853   5.392   5.523   5.595
 4033WAT    EPW16854   5.457   5.545   5.556
 4034WAT      O16855   5.454   6.151   4.094
 4034WAT     H116856   5.490   6.072   4.106
 4034WAT     H216857   5.376   6.143   4.134
 4034WAT    EPW16858   5.448   6.138   4.102
 4035WAT      O16859   5.473   5.278   4.620
 4035WAT     H116860   5.404   5.233   4.650
 4035WAT     H216861   5.469   5.353   4.664
 4035WAT    EPW16862   5.462   5.282   4.631
 4036WAT      O16863   5.790   5.618   5.732
 4036WAT     H116864   5.793   5.564   5.664
 4036WAT     H216865   5.868   5.656   5.732
 4036WAT    EPW16866   5.802   5.616   5.722
 4037WAT      O16867   5.667   5.866   5.370
 4037WAT     H116868   5.734   5.816   5.345
 4037WAT     H216869   5.659   5.924   5.305
 4037WAT    EPW16870   5.676   5.867   5.357
 4038WAT      O16871   5.115   5.949   4.031
 4038WAT     H116872   5.191   5.907   4.026
 4038WAT     H216873   5.089   5.955   3.947
 4038WAT    EPW16874   5.122   5.944   4.018
 4039WAT      O16875   4.562   6.095   5.140
 4039WAT     H116876   4.576   6.149   5.207
 4039WAT     H216877   4.585   6.142   5.070
 4039WAT    EPW16878   4.568   6.110   5.139
 4040WAT      O16879   4.408   5.933   5.438
 4040WAT     H116880   4.328   5.900   5.437
 4040WAT     H216881   4.395   6.020   5.441
 4040WAT    EPW16882   4.394   5.941   5.438
 4041WAT      O16883   5.362   4.994   5.273
 4041WAT     H116884   5.426   5.053   5.272
 4041WAT     H216885   5.290   5.043   5.262
 4041WAT    EPW16886   5.361   5.010   5.271
 4042WAT      O16887   4.881   5.705   5.045
 4042WAT     H116888   4.936   5.723   5.110
 4042WAT     H216889   4.803   5.729   5.076
 4042WAT    EPW16890   4.878   5.711   5.059
 4043WAT      O16891   4.584   5.269   5.376
 4043WAT     H116892   4.549   5.193   5.400
 4043WAT     H216893   4.578   5.268   5.289
 4043WAT    EPW16894   4.578   5.258   5.367
 4044WAT      O16895   4.823   6.419   4.608
 4044WAT     H116896   4.804   6.502   4.629
 4044WAT     H216897   4.857   6.425   4.528
 4044WAT    EPW16898   4.825   6.432   4.600
 4045WAT      O16899   5.361   4.756   5.118
 4045WAT     H116900   5.364   4.832   5.160
 4045WAT     H216901   5.418   4.706   5.161
 4045WAT    EPW16902   5.370   4.759   5.130
 4046WAT      O16903   4.686   4.879   5.325
 4046WAT     H116904   4.771   4.895   5.320
 4046WAT     H216905   4.682   4.793   5.339
 4046WAT    EPW16906   4.698   4.869   5.327
 4047WAT      O16907   4.640   6.266   4.929
 4047WAT     H116908   4.594   6.310   4.870
 4047WAT     H216909   4.685   6.208   4.882
 4047WAT    EPW16910   4.640   6.264   4.913
 4048WAT      O16911   5.062   5.929   5.673
 4048WAT     H116912   5.142   5.937   5.639
 4048WAT     H216913   5.009   5.941   5.604
 4048WAT    EPW16914   5.066   5.932   5.657
 4049WAT      O16915   5.393   6.207   5.515
 4049WAT     H116916   5.428   6.234   5.591
 4049WAT     H216917   5.446   6.242   5.455
 4049WAT    EPW16918   5.406   6.216   5.518
 4050WAT      O16919   5.638   5.453   4.004
 4050WAT     H116920   5.685   5.512   3.961
 4050WAT     H216921   5.558   5.489   4.007
 4050WAT    EPW16922   5.633   5.467   3.998
 4051WAT      O16923   4.725   5.728   3.969
 4051WAT     H116924   4.653   5.695   3.934
 4051WAT     H216925   4.702   5.808   3.994
 4051WAT    EPW16926   4.711   5.735   3.968
 4052WAT      O16927   4.380   5.325   4.890
 4052WAT     H116928   4.404   5.277   4.821
 4052WAT     H216929   4.315   5.278   4.925
 4052WAT    EPW16930   4.374   5.311   4.885
 4053WAT      O16931   5.135   5.332   5.482
 4053WAT     H116932   5.075   5.354   5.542
 4053WAT     H216933   5.199   5.297   5.530
 4053WAT    EPW16934   5.136   5.330   5.498
 4054WAT      O16935   5.172   5.405   5.130
 4054WAT     H116936   5.184   5.457   5.199
 4054WAT     H216937   5.160   5.326   5.166
 4054WAT    EPW16938   5.172   5.401   5.146
 4055WAT      O16939   4.890   6.458   5.537
 4055WAT     H116940   4.908   6.458   5.452
 4055WAT     H216941   4.852   6.380   5.550
 4055WAT    EPW16942   4.887   6.446   5.526
 4056WAT      O16943   5.385   5.348   4.368
 4056WAT     H116944   5.407   5.321   4.448
 4056WAT     H216945   5.461   5.375   4.334
 4056WAT    EPW16946   5.400   5.348   4.375
 4057WAT      O16947   4.618   4.772   4.928
 4057WAT     H116948   4.540   4.788   4.963
 4057WAT     H216949   4.601   4.765   4.843
 4057WAT    EPW16950   4.604   4.773   4.921
 4058WAT      O16951   5.515   4.912   4.523
 4058WAT     H116952   5.439   4.873   4.539
 4058WAT     H216953   5.510   4.932   4.438
 4058WAT    EPW16954   5.503   4.909   4.513
 4059WAT      O16955   5.532   5.742   4.345
 4059WAT     H116956   5.574   5.666   4.334
 4059WAT     H216957   5.448   5.719   4.338
 4059WAT    EPW16958   5.526   5.727   4.342
 4060WAT      O16959   4.886   5.935   5.456
 4060WAT     H116960   4.809   5.928   5.496
 4060WAT     H216961   4.885   6.016   5.424
 4060WAT    EPW16962   4.875   5.946   5.457
 4061WAT      O16963   4.425   6.599   5.022
 4061WAT     H116964   4.415   6.561   5.100
 4061WAT     H216965   4.407   6.535   4.965
 4061WAT    EPW16966   4.421   6.584   5.025
 4062WAT      O16967   5.166   5.915   4.620
 4062WAT     H116968   5.164   5.929   4.706
 4062WAT     H216969   5.202   5.836   4.613
 4062WAT    EPW16970   5.171   5.905   4.632
 4063WAT      O16971   4.914   5.830   4.537
 4063WAT     H116972   4.876   5.816   4.614
 4063WAT     H216973   4.994   5.857   4.559
 4063WAT    EPW16974   4.921   5.832   4.551
 4064WAT      O16975   4.884   6.187   5.345
 4064WAT     H116976   4.959   6.206   5.386
 4064WAT     H216977   4.911   6.160   5.267
 4064WAT    EPW16978   4.899   6.186   5.340
 4065WAT      O16979   5.737   5.447   5.519
 4065WAT     H116980   5.650   5.454   5.524
 4065WAT     H216981   5.753   5.455   5.433
 4065WAT    EPW16982   5.727   5.449   5.507
 4066WAT      O16983   5.185   5.578   5.356
 4066WAT     H116984   5.176   5.508   5.406
 4066WAT     H216985   5.264   5.609   5.378
 4066WAT    EPW16986   5.196   5.573   5.367
 4067WAT      O16987   4.094   6.549   5.514
 4067WAT     H116988   4.046   6.476   5.509
 4067WAT     H216989   4.036   6.612   5.528
 4067WAT    EPW16990   4.079   6.547   5.515
 4068WAT      O16991   4.992   5.684   5.781
 4068WAT     H116992   5.021   5.758   5.745
 4068WAT     H216993   4.912   5.705   5.810
 4068WAT    EPW16994   4.984   5.698   5.780
 4069WAT      O16995   5.277   6.562   4.850
 4069WAT     H116996   5.216   6.621   4.870
 4069WAT     H216997   5.339   6.575   4.910
 4069WAT    EPW16998   5.277   6.573   4.861
 4070WAT      O16999   4.986   6.048   5.122
 4070WAT     H117000   4.990   5.970   5.159
 4070WAT     H217001   5.066   6.082   5.136
 4070WAT    EPW17002   4.999   6.042   5.129
 4071WAT      O17003   5.525   6.279   5.751
 4071WAT     H117004   5.608   6.252   5.749
 4071WAT     H217005   5.492   6.239   5.822
 4071WAT    EPW17006   5.533   6.269   5.761
 4072WAT      O17007   5.616   5.481   4.284
 4072WAT     H117008   5.632   5.474   4.199
 4072WAT     H217009   5.690   5.452   4.321
 4072WAT    EPW17010   5.630   5.475   4.277
 4073WAT      O17011   5.051   6.185   4.446
 4073WAT     H117012   5.034   6.268   4.426
 4073WAT     H217013   4.977   6.143   4.426
 4073WAT    EPW17014   5.038   6.191   4.440
 4074WAT      O17015   5.496   5.506   5.263
 4074WAT     H117016   5.502   5.419   5.264
 4074WAT     H217017   5.485   5.527   5.346
 4074WAT    EPW17018   5.495   5.496   5.275
 4075WAT      O17019   5.005   4.969   5.598
 4075WAT     H117020   5.034   5.026   5.657
 4075WAT     H217021   4.927   4.945   5.629
 4075WAT    EPW17022   4.998   4.974   5.611
 4076WAT      O17023   4.982   5.033   4.646
 4076WAT     H117024   4.914   5.074   4.611
 4076WAT     H217025   4.994   4.965   4.594
 4076WAT    EPW17026   4.974   5.029   4.633
 4077WAT      O17027   4.466   6.210   4.017
 4077WAT     H117028   4.501   6.244   4.089
 4077WAT     H217029   4.388   6.181   4.044
 4077WAT    EPW17030   4.459   6.211   4.031
 4078WAT      O17031   5.346   5.092   4.951
 4078WAT     H117032   5.421   5.054   4.975
 4078WAT     H217033   5.361   5.177   4.965
 4078WAT    EPW17034   5.360   5.099   4.957
 4079WAT      O17035   4.522   5.684   5.357
 4079WAT     H117036   4.484   5.756   5.388
 4079WAT     H217037   4.455   5.635   5.330
 4079WAT    EPW17038   4.506   5.687   5.357
 4080WAT      O17039   5.432   5.525   4.745
 4080WAT     H117040   5.496   5.582   4.759
 4080WAT     H217041   5.375   5.569   4.697
 4080WAT    EPW17042   5.433   5.540   4.740
 4081WAT      O17043   5.443   6.369   4.481
 4081WAT     H117044   5.424   6.292   4.517
 4081WAT     H217045   5.483   6.347   4.406
 4081WAT    EPW17046   5.446   6.354   4.475
 4082WAT      O17047   4.237   6.092   4.120
 4082WAT     H117048   4.224   6.086   4.206
 4082WAT     H217049   4.219   6.012   4.091
 4082WAT    EPW17050   4.233   6.079   4.128
 4083WAT      O17051   4.529   5.937   4.006
 4083WAT     H117052   4.471   5.907   3.947
 4083WAT     H217053   4.520   6.023   4.000
 4083WAT    EPW17054   4.519   5.945   3.996
 4084WAT      O17055   4.518   4.995   5.131
 4084WAT     H117056   4.449   4.943   5.120
 4084WAT     H217057   4.566   4.953   5.190
 4084WAT    EPW17058   4.515   4.981   5.138
 4085WAT      O17059   5.701   4.839   5.219
 4085WAT     H117060   5.663   4.764   5.240
 4085WAT     H217061   5.786   4.822   5.225
 4085WAT    EPW17062   5.708   4.825   5.223
 4086WAT      O17063   5.242   6.146   5.145
 4086WAT     H117064   5.253   6.216   5.195
 4086WAT     H217065   5.242   6.178   5.064
 4086WAT    EPW17066   5.243   6.161   5.141
 4087WAT      O17067   5.175   6.523   5.582
 4087WAT     H117068   5.102   6.490   5.547
 4087WAT     H217069   5.152   6.603   5.607
 4087WAT    EPW17070   5.161   6.530   5.580
 4088WAT      O17071   4.681   5.493   5.501
 4088WAT     H117072   4.658   5.422   5.457
 4088WAT     H217073   4.642   5.558   5.458
 4088WAT    EPW17074   4.672   5.492   5.488
 4089WAT      O17075   4.758   4.809   4.080
 4089WAT     H117076   4.776   4.810   3.995
 4089WAT     H217077   4.670   4.805   4.082
 4089WAT    EPW17078   4.747   4.808   4.068
 4090WAT      O17079   5.642   5.982   5.112
 4090WAT     H117080   5.620   5.901   5.091
 4090WAT     H217081   5.591   6.031   5.060
 4090WAT    EPW17082   5.631   5.978   5.101
 4091WAT      O17083   4.544   6.499   5.570
 4091WAT     H117084   4.536   6.466   5.651
 4091WAT     H217085   4.609   6.453   5.535
 4091WAT    EPW17086   4.552   6.487   5.577
 4092WAT      O17087   5.551   6.286   5.070
 4092WAT     H117088   5.620   6.284   5.016
 4092WAT     H217089   5.491   6.238   5.028
 4092WAT    EPW17090   5.552   6.279   5.055
 4093WAT      O17091   5.099   4.927   4.928
 4093WAT     H117092   5.160   4.979   4.962
 4093WAT     H217093   5.145   4.872   4.878
 4093WAT    EPW17094   5.115   4.927   4.926
 4094WAT      O17095   4.245   6.354   5.680
 4094WAT     H117096   4.315   6.378   5.726
 4094WAT     H217097   4.213   6.429   5.650
 4094WAT    EPW17098   4.251   6.368   5.682
 4095WAT      O17099   5.093   5.425   4.682
 4095WAT     H117100   5.138   5.351   4.693
 4095WAT     H217101   5.056   5.438   4.760
 4095WAT    EPW17102   5.094   5.416   4.695
 4096WAT      O17103   4.103   6.123   5.389
 4096WAT     H117104   4.049   6.182   5.425
 4096WAT     H217105   4.182   6.156   5.403
 4096WAT    EPW17106   4.106   6.136   5.397
 4097WAT      O17107   5.283   5.596   4.307
 4097WAT     H117108   5.304   5.513   4.326
 4097WAT     H217109   5.207   5.589   4.264
 4097WAT    EPW17110   5.275   5.583   4.304
 4098WAT      O17111   4.298   6.456   4.298
 4098WAT     H117112   4.300   6.528   4.249
 4098WAT     H217113   4.376   6.419   4.283
 4098WAT    EPW17114   4.310   6.461   4.289
 4099WAT      O17115   4.625   5.654   4.220
 4099WAT     H117116   4.662   5.668   4.142
 4099WAT     H217117   4.693   5.641   4.272
 4099WAT    EPW17118   4.640   5.654   4.216
 4100WAT      O17119   5.562   6.540   3.937
 4100WAT     H117120   5.633   6.532   3.988
 4100WAT     H217121   5.549   6.460   3.908
 4100WAT    EPW17122   5.571   6.527   3.940
 4101WAT      O17123   5.586   5.774   5.629
 4101WAT     H117124   5.656   5.736   5.666
 4101WAT     H217125   5.620   5.816   5.560
 4101WAT    EPW17126   5.602   5.775   5.624
 4102WAT      O17127   5.207   6.145   4.214
 4102WAT     H117128   5.168   6.139   4.292
 4102WAT     H217129   5.165   6.086   4.166
 4102WAT    EPW17130   5.195   6.136   4.218
 4103WAT      O17131   5.588   5.247   5.728
 4103WAT     H117132   5.586   5.325   5.767
 4103WAT     H217133   5.507   5.237   5.697
 4103WAT    EPW17134   5.576   5.257   5.729
 4104WAT      O17135   5.669   5.327   5.042
 4104WAT     H117136   5.586   5.348   5.024
 4104WAT     H217137   5.666   5.240   5.050
 4104WAT    EPW17138   5.656   5.317   5.040
 4105WAT      O17139   4.539   5.008   5.525
 4105WAT     H117140   4.597   4.982   5.465
 4105WAT     H217141   4.497   4.934   5.546
 4105WAT    EPW17142   4.541   4.993   5.519
 4106WAT      O17143   5.378   5.838   5.855
 4106WAT     H117144   5.452   5.865   5.893
 4106WAT     H217145   5.390   5.858   5.771
 4106WAT    EPW17146   5.391   5.845   5.848
 4107WAT      O17147   4.306   6.360   4.900
 4107WAT     H117148   4.295   6.280   4.865
 4107WAT     H217149   4.259   6.411   4.847
 4107WAT    EPW17150   4.297   6.356   4.887
 4108WAT      O17151   4.847   5.994   4.102
 4108WAT     H117152   4.929   5.967   4.086
 4108WAT     H217153   4.844   6.072   4.065
 4108WAT    EPW17154   4.859   6.001   4.095
 4109WAT      O17155   4.070   6.599   5.235
 4109WAT     H117156   4.070   6.574   5.318
 4109WAT     H217157   4.096   6.528   5.192
 4109WAT    EPW17158   4.074   6.585   5.241
 4110WAT      O17159   5.061   4.819   2.576
 4110WAT     H117160   5.052   4.863   2.502
 4110WAT     H217161   5.146   4.800   2.579
 4110WAT    EPW17162   5.072   4.823   2.566
 4111WAT      O17163   4.993   5.488   3.029
 4111WAT     H117164   4.954   5.560   3.060
 4111WAT     H217165   5.053   5.469   3.089
 4111WAT    EPW17166   4.996   5.495   3.042
 4112WAT      O17167   3.954   5.969   2.580
 4112WAT     H117168   3.875   5.961   2.615
 4112WAT     H217169   3.969   5.892   2.542
 4112WAT    EPW17170   3.945   5.957   2.579
 4113WAT      O17171   5.601   6.314   2.352
 4113WAT     H117172   5.665   6.257   2.371
 4113WAT     H217173   5.548   6.268   2.300
 4113WAT    EPW17174   5.603   6.299   2.347
 4114WAT      O17175   3.931   5.233   2.175
 4114WAT     H117176   3.878   5.300   2.191
 4114WAT     H217177   3.951   5.202   2.254
 4114WAT    EPW17178   3.926   5.238   2.189
 4115WAT      O17179   4.282   5.874   2.128
 4115WAT     H117180   4.247   5.835   2.057
 4115WAT     H217181   4.286   5.810   2.187
 4115WAT    EPW17182   4.277   5.859   2.126
 4116WAT      O17183   5.245   5.651   2.674
 4116WAT     H117184   5.252   5.636   2.588
 4116WAT     H217185   5.191   5.587   2.701
 4116WAT    EPW17186   5.238   5.639   2.665
 4117WAT      O17187   4.215   6.063   2.532
 4117WAT     H117188   4.271   6.022   2.585
 4117WAT     H217189   4.138   6.028   2.552
 4117WAT    EPW17190   4.212   6.052   2.543
 4118WAT      O17191   4.618   4.939   2.453
 4118WAT     H117192   4.655   5.004   2.409
 4118WAT     H217193   4.686   4.890   2.478
 4118WAT    EPW17194   4.633   4.941   2.450
 4119WAT      O17195   4.115   6.337   2.122
 4119WAT     H117196   4.161   6.342   2.048
 4119WAT     H217197   4.146   6.265   2.160
 4119WAT    EPW17198   4.126   6.327   2.117
 4120WAT      O17199   4.019   6.102   3.257
 4120WAT     H117200   3.938   6.074   3.271
 4120WAT     H217201   4.036   6.078   3.175
 4120WAT    EPW17202   4.010   6.095   3.247
 4121WAT      O17203   4.678   5.995   3.720
 4121WAT     H117204   4.693   5.970   3.803
 4121WAT     H217205   4.599   5.963   3.703
 4121WAT    EPW17206   4.668   5.986   3.730
 4122WAT      O17207   4.157   5.686   2.702
 4122WAT     H117208   4.114   5.698   2.627
 4122WAT     H217209   4.202   5.612   2.689
 4122WAT    EPW17210   4.157   5.677   2.689
 4123WAT      O17211   4.594   5.269   3.227
 4123WAT     H117212   4.663   5.271   3.174
 4123WAT     H217213   4.577   5.184   3.234
 4123WAT    EPW17214   4.602   5.257   3.220
 4124WAT      O17215   4.629   6.253   3.419
 4124WAT     H117216   4.639   6.317   3.360
 4124WAT     H217217   4.710   6.236   3.446
 4124WAT    EPW17218   4.642   6.260   3.414
 4125WAT      O17219   4.307   5.450   2.694
 4125WAT     H117220   4.373   5.398   2.717
 4125WAT     H217221   4.237   5.398   2.702
 4125WAT    EPW17222   4.306   5.435   2.698
 4126WAT      O17223   4.742   6.096   2.838
 4126WAT     H117224   4.765   6.014   2.858
 4126WAT     H217225   4.819   6.137   2.829
 4126WAT    EPW17226   4.757   6.090   2.840
 4127WAT      O17227   4.781   6.015   2.480
 4127WAT     H117228   4.824   5.956   2.527
 4127WAT     H217229   4.807   5.999   2.398
 4127WAT    EPW17230   4.791   6.004   2.475
 4128WAT      O17231   4.948   5.504   3.660
 4128WAT     H117232   4.862   5.496   3.649
 4128WAT     H217233   4.956   5.553   3.732
 4128WAT    EPW17234   4.937   5.510   3.669
 4129WAT      O17235   4.370   4.999   2.570
 4129WAT     H117236   4.343   5.063   2.517
 4129WAT     H217237   4.450   4.980   2.540
 4129WAT    EPW17238   4.378   5.006   2.558
 4130WAT      O17239   5.312   4.746   3.566
 4130WAT     H117240   5.311   4.831   3.544
 4130WAT     H217241   5.316   4.705   3.489
 4130WAT    EPW17242   5.312   4.753   3.551
 4131WAT      O17243   4.799   4.978   2.843
 4131WAT     H117244   4.763   5.051   2.809
 4131WAT     H217245   4.741   4.916   2.824
 4131WAT    EPW17246   4.785   4.980   2.835
 4132WAT      O17247   5.183   5.152   1.974
 4132WAT     H117248   5.130   5.213   2.005
 4132WAT     H217249   5.195   5.098   2.041
 4132WAT    EPW17250   5.177   5.153   1.988
 4133WAT      O17251   3.932   5.415   2.956
 4133WAT     H117252   3.908   5.495   2.932
 4133WAT     H217253   3.873   5.393   3.017
 4133WAT    EPW17254   3.920   5.424   2.962
 4134WAT      O17255   3.957   6.397   2.748
 4134WAT     H117256   3.896   6.448   2.713
 4134WAT     H217257   3.998   6.363   2.679
 4134WAT    EPW17258   3.954   6.399   2.733
 4135WAT      O17259   4.570   6.192   2.454
 4135WAT     H117260   4.531   6.180   2.531
 4135WAT     H217261   4.642   6.142   2.460
 4135WAT    EPW17262   4.575   6.183   2.466
 4136WAT      O17263   5.162   6.413   2.263
 4136WAT     H117264   5.233   6.463   2.267
 4136WAT     H217265   5.191   6.334   2.284
 4136WAT    EPW17266   5.177   6.409   2.267
 4137WAT      O17267   4.966   6.448   2.452
 4137WAT     H117268   4.990   6.517   2.499
 4137WAT     H217269   5.028   6.441   2.392
 4137WAT    EPW17270   4.979   6.457   2.450
 4138WAT      O17271   4.207   4.851   3.034
 4138WAT     H117272   4.205   4.764   3.025
 4138WAT     H217273   4.229   4.862   3.118
 4138WAT    EPW17274   4.210   4.840   3.045
 4139WAT      O17275   4.684   5.094   3.883
 4139WAT     H117276   4.629   5.093   3.816
 4139WAT     H217277   4.712   5.177   3.886
 4139WAT    EPW17278   4.680   5.106   3.874
 4140WAT      O17279   4.098   6.312   2.521
 4140WAT     H117280   4.147   6.242   2.538
 4140WAT     H217281   4.151   6.364   2.475
 4140WAT    EPW17282   4.113   6.309   2.517
 4141WAT      O17283   5.729   5.104   2.731
 4141WAT     H117284   5.676   5.173   2.732
 4141WAT     H217285   5.675   5.038   2.711
 4141WAT    EPW17286   5.713   5.104   2.729
 4142WAT      O17287   5.211   6.436   3.250
 4142WAT     H117288   5.282   6.486   3.243
 4142WAT     H217289   5.198   6.407   3.168
 4142WAT    EPW17290   5.219   6.439   3.237
 4143WAT      O17291   4.291   6.132   2.909
 4143WAT     H117292   4.340   6.128   2.837
 4143WAT     H217293   4.318   6.064   2.957
 4143WAT    EPW17294   4.302   6.121   2.906
 4144WAT      O17295   4.540   6.427   2.805
 4144WAT     H117296   4.620   6.445   2.774
 4144WAT     H217297   4.487   6.476   2.756
 4144WAT    EPW17298   4.544   6.437   2.793
 4145WAT      O17299   4.798   4.855   3.808
 4145WAT     H117300   4.737   4.812   3.763
 4145WAT     H217301   4.759   4.930   3.830
 4145WAT    EPW17302   4.783   4.859   3.804
 4146WAT      O17303   4.894   5.383   2.599
 4146WAT     H117304   4.923   5.336   2.532
 4146WAT     H217305   4.964   5.392   2.650
 4146WAT    EPW17306   4.908   5.377   2.597
 4147WAT      O17307   5.001   5.338   2.102
 4147WAT     H117308   5.022   5.417   2.132
 4147WAT     H217309   4.923   5.350   2.064
 4147WAT    EPW17310   4.992   5.351   2.101
 4148WAT      O17311   5.372   6.599   2.245
 4148WAT     H117312   5.421   6.579   2.176
 4148WAT     H217313   5.426   6.646   2.295
 4148WAT    EPW17314   5.388   6.603   2.242
 4149WAT      O17315   4.402   6.517   3.397
 4149WAT     H117316   4.451   6.499   3.467
 4149WAT     H217317   4.350   6.447   3.390
 4149WAT    EPW17318   4.402   6.504   3.406
 4150WAT      O17319   5.658   5.082   3.169
 4150WAT     H117320   5.715   5.056   3.108
 4150WAT     H217321   5.676   5.030   3.237
 4150WAT    EPW17322   5.669   5.070   3.170
 4151WAT      O17323   5.111   6.224   3.654
 4151WAT     H117324   5.106   6.253   3.736
 4151WAT     H217325   5.197   6.219   3.639
 4151WAT    EPW17326   5.123   6.228   3.664
 4152WAT      O17327   4.851   6.239   2.069
 4152WAT     H117328   4.822   6.301   2.123
 4152WAT     H217329   4.930   6.268   2.045
 4152WAT    EPW17330   4.859   6.252   2.074
 4153WAT      O17331   5.220   4.978   2.189
 4153WAT     H117332   5.273   4.909   2.199
 4153WAT     H217333   5.238   5.028   2.258
 4153WAT    EPW17334   5.231   4.975   2.200
 4154WAT      O17335   3.982   5.092   2.409
 4154WAT     H117336   3.975   5.005   2.404
 4154WAT     H217337   3.929   5.113   2.475
 4154WAT    EPW17338   3.973   5.082   2.418
 4155WAT      O17339   4.159   6.344   3.281
 4155WAT     H117340   4.106   6.279   3.258
 4155WAT     H217341   4.206   6.358   3.208
 4155WAT    EPW17342   4.158   6.337   3.267
 4156WAT      O17343   4.979   5.245   2.369
 4156WAT     H117344   4.918   5.183   2.360
 4156WAT     H217345   4.988   5.276   2.288
 4156WAT    EPW17346   4.971   5.240   2.355
 4157WAT      O17347   4.967   6.483   3.364
 4157WAT     H117348   5.043   6.473   3.324
 4157WAT     H217349   4.908   6.476   3.300
 4157WAT    EPW17350   4.969   6.480   3.349
 4158WAT      O17351   4.983   4.927   2.328
 4158WAT     H117352   4.918   4.914   2.271
 4158WAT     H217353   5.052   4.941   2.277
 4158WAT    EPW17354   4.983   4.927   2.312
 4159WAT      O17355   5.662   6.538   2.632
 4159WAT     H117356   5.621   6.613   2.649
 4159WAT     H217357   5.596   6.481   2.620
 4159WAT    EPW17358   5.646   6.540   2.633
 4160WAT      O17359   4.722   5.238   2.775
 4160WAT     H117360   4.769   5.284   2.717
 4160WAT     H217361   4.752   5.264   2.852
 4160WAT    EPW17362   4.733   5.248   2.778
 4161WAT      O17363   5.395   6.112   2.697
 4161WAT     H117364   5.458   6.052   2.685
 4161WAT     H217365   5.321   6.067   2.690
 4161WAT    EPW17366   5.394   6.097   2.694
 4162WAT      O17367   4.385   6.181   3.568
 4162WAT     H117368   4.458   6.203   3.527
 4162WAT     H217369   4.377   6.243   3.630
 4162WAT    EPW17370   4.394   6.193   3.571
 4163WAT      O17371   4.179   4.806   2.495
 4163WAT     H117372   4.244   4.856   2.525
 4163WAT     H217373   4.220   4.740   2.456
 4163WAT    EPW17374   4.195   4.804   2.493
 4164WAT      O17375   4.545   5.745   2.980
 4164WAT     H117376   4.565   5.730   3.064
 4164WAT     H217377   4.488   5.682   2.961
 4164WAT    EPW17378   4.540   5.734   2.989
 4165WAT      O17379   5.151   5.162   3.352
 4165WAT     H117380   5.143   5.213   3.422
 4165WAT     H217381   5.082   5.108   3.359
 4165WAT    EPW17382   5.139   5.162   3.363
 4166WAT      O17383   4.613   5.766   3.254
 4166WAT     H117384   4.607   5.853   3.254
 4166WAT     H217385   4.597   5.745   3.337
 4166WAT    EPW17386   4.609   5.776   3.266
 4167WAT      O17387   5.268   5.876   3.241
 4167WAT     H117388   5.193   5.849   3.276
 4167WAT     H217389   5.262   5.963   3.245
 4167WAT    EPW17390   5.256   5.885   3.247
 4168WAT      O17391   5.323   4.749   2.654
 4168WAT     H117392   5.314   4.733   2.739
 4168WAT     H217393   5.353   4.674   2.621
 4168WAT    EPW17394   5.326   4.736   2.662
 4169WAT      O17395   3.898   6.162   3.828
 4169WAT     H117396   3.951   6.212   3.876
 4169WAT     H217397   3.897   6.086   3.870
 4169WAT    EPW17398   3.905   6.158   3.841
 4170WAT      O17399   5.519   5.237   3.460
 4170WAT     H117400   5.599   5.211   3.482
 4170WAT     H217401   5.485   5.267   3.535
 4170WAT    EPW17402   5.526   5.238   3.475
 4171WAT      O17403   4.274   5.060   2.829
 4171WAT     H117404   4.297   5.021   2.755
 4171WAT     H217405   4.258   4.993   2.883
 4171WAT    EPW17406   4.275   5.044   2.826
 4172WAT      O17407   5.573   5.909   2.214
 4172WAT     H117408   5.574   5.862   2.287
 4172WAT     H217409   5.657   5.919   2.194
 4172WAT    EPW17410   5.586   5.903   2.222
 4173WAT      O17411   4.350   5.889   2.705
 4173WAT     H117412   4.414   5.866   2.650
 4173WAT     H217413   4.295   5.822   2.702
 4173WAT    EPW17414   4.351   5.876   2.697
 4174WAT      O17415   4.176   6.537   2.847
 4174WAT     H117416   4.102   6.502   2.816
 4174WAT     H217417   4.227   6.544   2.777
 4174WAT    EPW17418   4.172   6.533   2.832
 4175WAT      O17419   4.117   5.245   3.075
 4175WAT     H117420   4.074   5.169   3.077
 4175WAT     H217421   4.057   5.302   3.047
 4175WAT    EPW17422   4.102   5.242   3.072
 4176WAT      O17423   5.808   6.336   3.607
 4176WAT     H117424   5.730   6.342   3.568
 4176WAT     H217425   5.790   6.290   3.680
 4176WAT    EPW17426   5.794   6.330   3.612
 4177WAT      O17427   5.393   5.569   2.134
 4177WAT     H117428   5.385   5.650   2.104
 4177WAT     H217429   5.361   5.573   2.215
 4177WAT    EPW17430   5.387   5.581   2.142
 4178WAT      O17431   4.541   5.842   2.504
 4178WAT     H117432   4.601   5.905   2.499
 4178WAT     H217433   4.573   5.780   2.453
 4178WAT    EPW17434   4.554   5.842   2.496
 4179WAT      O17435   5.745   5.028   2.140
 4179WAT     H117436   5.781   4.967   2.088
 4179WAT     H217437   5.703   5.081   2.085
 4179WAT    EPW17438   5.744   5.027   2.124
 4180WAT      O17439   4.032   6.057   2.980
 4180WAT     H117440   3.980   6.126   2.972
 4180WAT     H217441   4.108   6.084   2.944
 4180WAT    EPW17442   4.036   6.071   2.973
 4181WAT      O17443   4.747   5.369   3.907
 4181WAT     H117444   4.681   5.379   3.963
 4181WAT     H217445   4.720   5.411   3.835
 4181WAT    EPW17446   4.733   5.376   3.904
 4182WAT      O17447   5.809   5.482   3.374
 4182WAT     H117448   5.844   5.408   3.343
 4182WAT     H217449   5.730   5.485   3.338
 4182WAT    EPW17450   5.802   5.472   3.364
 4183WAT      O17451   4.041   5.738   2.458
 4183WAT     H117452   3.967   5.702   2.430
 4183WAT     H217453   4.101   5.708   2.402
 4183WAT    EPW17454   4.039   5.728   2.446
 4184WAT      O17455   5.612   4.905   2.357
 4184WAT     H117456   5.682   4.857   2.377
 4184WAT     H217457   5.639   4.955   2.291
 4184WAT    EPW17458   5.626   4.905   2.350
 4185WAT      O17459   4.970   6.254   2.802
 4185WAT     H117460   4.924   6.326   2.783
 4185WAT     H217461   4.997   6.225   2.724
 4185WAT    EPW17462   4.967   6.260   2.788
 4186WAT      O17463   3.937   6.144   2.367
 4186WAT     H117464   3.990   6.203   2.404
 4186WAT     H217465   3.928   6.083   2.429
 4186WAT    EPW17466   3.943   6.144   2.382
 4187WAT      O17467   4.364   5.929   3.082
 4187WAT     H117468   4.418   5.971   3.136
 4187WAT     H217469   4.416   5.880   3.034
 4187WAT    EPW17470   4.379   5.928   3.083
 4188WAT      O17471   5.253   5.202   2.847
 4188WAT     H117472   5.275   5.187   2.930
 4188WAT     H217473   5.202   5.134   2.827
 4188WAT    EPW17474   5.249   5.190   2.857
 4189WAT      O17475   3.962   5.998   2.123
 4189WAT     H117476   4.028   5.942   2.125
 4189WAT     H217477   3.968   6.040   2.200
 4189WAT    EPW17478   3.972   5.996   2.135
 4190WAT      O17479   4.006   5.782   2.920
 4190WAT     H117480   4.049   5.760   2.847
 4190WAT     H217481   4.014   5.869   2.923
 4190WAT    EPW17482   4.014   5.792   2.910
 4191WAT      O17483   4.719   5.140   2.292
 4191WAT     H117484   4.709   5.112   2.210
 4191WAT     H217485   4.684   5.220   2.291
 4191WAT    EPW17486   4.713   5.148   2.280
 4192WAT      O17487   5.552   6.370   3.471
 4192WAT     H117488   5.505   6.441   3.491
 4192WAT     H217489   5.550   6.369   3.383
 4192WAT    EPW17490   5.545   6.380   3.461
 4193WAT      O17491   4.495   6.172   2.718
 4193WAT     H117492   4.505   6.254   2.744
 4193WAT     H217493   4.567   6.132   2.749
 4193WAT    EPW17494   4.507   6.178   2.726
 4194WAT      O17495   4.119   5.494   3.721
 4194WAT     H117496   4.056   5.436   3.703
 4194WAT     H217497   4.180   5.477   3.661
 4194WAT    EPW17498   4.119   5.483   3.709
 4195WAT      O17499   4.316   5.404   2.225
 4195WAT     H117500   4.299   5.345   2.287
 4195WAT     H217501   4.269   5.376   2.157
 4195WAT    EPW17502   4.306   5.391   2.224
 4196WAT      O17503   4.336   5.563   2.945
 4196WAT     H117504   4.262   5.609   2.953
 4196WAT     H217505   4.331   5.529   2.865
 4196WAT    EPW17506   4.324   5.565   2.935
 4197WAT      O17507   4.340   5.558   3.260
 4197WAT     H117508   4.410   5.609   3.266
 4197WAT     H217509   4.279   5.610   3.224
 4197WAT    EPW17510   4.341   5.573   3.255
 4198WAT      O17511   5.413   5.373   3.063
 4198WAT     H117512   5.343   5.396   3.110
 4198WAT     H217513   5.409   5.425   2.993
 4198WAT    EPW17514   5.402   5.384   3.060
 4199WAT      O17515   4.740   6.432   3.207
 4199WAT     H117516   4.717   6.370   3.150
 4199WAT     H217517   4.728   6.506   3.162
 4199WAT    EPW17518   4.735   6.433   3.192
 4200WAT      O17519   4.976   4.951   3.435
 4200WAT     H117520   5.000   4.874   3.404
 4200WAT     H217521   4.997   4.947   3.520
 4200WAT    EPW17522   4.982   4.939   3.443
 4201WAT      O17523   5.235   5.136   2.411
 4201WAT     H117524   5.286   5.205   2.430
 4201WAT     H217525   5.155   5.170   2.409
 4201WAT    EPW17526   5.231   5.151   2.414
 4202WAT      O17527   4.198   5.764   3.777
 4202WAT     H117528   4.139   5.807   3.729
 4202WAT     H217529   4.175   5.680   3.766
 4202WAT    EPW17530   4.186   5.758   3.768
 4203WAT      O17531   5.317   5.935   3.696
 4203WAT     H117532   5.345   6.015   3.674
 4203WAT     H217533   5.349   5.884   3.632
 4203WAT    EPW17534   5.326   5.939   3.683
 4204WAT      O17535   4.728   6.274   3.732
 4204WAT     H117536   4.758   6.274   3.813
 4204WAT     H217537   4.711   6.190   3.716
 4204WAT    EPW17538   4.730   6.261   3.741
 4205WAT      O17539   4.802   5.286   3.038
 4205WAT     H117540   4.863   5.348   3.040
 4205WAT     H217541   4.846   5.214   3.061
 4205WAT    EPW17542   4.818   5.284   3.042
 4206WAT      O17543   5.059   5.579   2.236
 4206WAT     H117544   5.034   5.628   2.168
 4206WAT     H217545   4.999   5.597   2.297
 4206WAT    EPW17546   5.047   5.589   2.235
 4207WAT      O17547   5.573   5.902   2.678
 4207WAT     H117548   5.584   5.848   2.746
 4207WAT     H217549   5.563   5.848   2.610
 4207WAT    EPW17550   5.573   5.886   2.678
 4208WAT      O17551   5.165   6.299   3.002
 4208WAT     H117552   5.104   6.282   2.943
 4208WAT     H217553   5.214   6.361   2.965
 4208WAT    EPW17554   5.163   6.306   2.988
 4209WAT      O17555   5.160   5.945   2.989
 4209WAT     H117556   5.087   5.980   3.021
 4209WAT     H217557   5.193   5.900   3.056
 4209WAT    EPW17558   5.154   5.944   3.003
 4210WAT      O17559   4.551   6.458   2.390
 4210WAT     H117560   4.556   6.378   2.426
 4210WAT     H217561   4.621   6.461   2.337
 4210WAT    EPW17562   4.562   6.446   2.387
 4211WAT      O17563   4.510   4.839   2.202
 4211WAT     H117564   4.527   4.840   2.288
 4211WAT     H217565   4.458   4.908   2.190
 4211WAT    EPW17566   4.505   4.849   2.213
 4212WAT      O17567   4.782   6.445   2.241
 4212WAT     H117568   4.840   6.452   2.306
 4212WAT     H217569   4.787   6.522   2.201
 4212WAT    EPW17570   4.792   6.457   2.245
 4213WAT      O17571   5.399   5.790   3.471
 4213WAT     H117572   5.366   5.826   3.399
 4213WAT     H217573   5.484   5.812   3.468
 4213WAT    EPW17574   5.407   5.799   3.460
 4214WAT      O17575   5.092   6.363   3.900
 4214WAT     H117576   5.119   6.383   3.980
 4214WAT     H217577   5.116   6.431   3.852
 4214WAT    EPW17578   5.099   6.376   3.905
 4215WAT      O17579   5.583   4.777   3.648
 4215WAT     H117580   5.499   4.776   3.626
 4215WAT     H217581   5.584   4.748   3.730
 4215WAT    EPW17582   5.571   4.773   3.657
 4216WAT      O17583   4.280   5.669   2.319
 4216WAT     H117584   4.285   5.585   2.295
 4216WAT     H217585   4.346   5.679   2.374
 4216WAT    EPW17586   4.290   5.658   2.324
 4217WAT      O17587   5.030   5.790   3.357
 4217WAT     H117588   4.988   5.829   3.423
 4217WAT     H217589   5.068   5.722   3.395
 4217WAT    EPW17590   5.029   5.786   3.372
 4218WAT      O17591   3.946   4.814   2.356
 4218WAT     H117592   3.937   4.734   2.323
 4218WAT     H217593   4.015   4.808   2.408
 4218WAT    EPW17594   3.955   4.801   2.358
 4219WAT      O17595   4.893   5.623   2.457
 4219WAT     H117596   4.907   5.686   2.515
 4219WAT     H217597   4.888   5.551   2.506
 4219WAT    EPW17598   4.894   5.622   2.472
 4220WAT      O17599   5.412   6.080   2.981
 4220WAT     H117600   5.425   6.097   2.897
 4220WAT     H217601   5.331   6.049   2.985
 4220WAT    EPW17602   5.402   6.078   2.969
 4221WAT      O17603   4.362   5.068   2.152
 4221WAT     H117604   4.307   5.051   2.086
 4221WAT     H217605   4.432   5.101   2.112
 4221WAT    EPW17606   4.364   5.070   2.136
 4222WAT      O17607   4.798   5.826   2.888
 4222WAT     H117608   4.717   5.797   2.899
 4222WAT     H217609   4.839   5.802   2.961
 4222WAT    EPW17610   4.792   5.818   2.900
 4223WAT      O17611   4.475   6.448   2.012
 4223WAT     H117612   4.496   6.378   2.061
 4223WAT     H217613   4.484   6.515   2.068
 4223WAT    EPW17614   4.480   6.447   2.028
 4224WAT      O17615   4.162   5.747   3.149
 4224WAT     H117616   4.218   5.812   3.133
 4224WAT     H217617   4.105   5.754   3.083
 4224WAT    EPW17618   4.162   5.758   3.137
 4225WAT      O17619   4.456   5.271   2.848
 4225WAT     H117620   4.536   5.252   2.819
 4225WAT     H217621   4.412   5.197   2.836
 4225WAT    EPW17622   4.461   5.257   2.842
 4226WAT      O17623   5.769   6.486   2.213
 4226WAT     H117624   5.837   6.438   2.186
 4226WAT     H217625   5.720   6.429   2.257
 4226WAT    EPW17626   5.772   6.470   2.216
 4227WAT      O17627   4.045   5.385   2.498
 4227WAT     H117628   4.043   5.350   2.577
 4227WAT     H217629   4.110   5.342   2.458
 4227WAT    EPW17630   4.055   5.373   2.504
 4228WAT      O17631   5.518   5.744   3.165
 4228WAT     H117632   5.522   5.674   3.217
 4228WAT     H217633   5.436   5.773   3.177
 4228WAT    EPW17634   5.506   5.738   3.175
 4229WAT      O17635   4.472   5.572   2.025
 4229WAT     H117636   4.426   5.533   2.088
 4229WAT     H217637   4.427   5.552   1.952
 4229WAT    EPW17638   4.458   5.563   2.023
 4230WAT      O17639   4.052   5.919   3.592
 4230WAT     H117640   4.058   5.858   3.530
 4230WAT     H217641   3.968   5.914   3.617
 4230WAT    EPW17642   4.040   5.909   3.587
 4231WAT      O17643   5.621   5.731   2.902
 4231WAT     H117644   5.592   5.742   2.983
 4231WAT     H217645   5.708   5.729   2.911
 4231WAT    EPW17646   5.630   5.732   2.915
 4232WAT      O17647   4.597   5.390   2.255
 4232WAT     H117648   4.611   5.469   2.290
 4232WAT     H217649   4.510   5.387   2.247
 4232WAT    EPW17650   4.586   5.401   2.259
 4233WAT      O17651   5.359   5.195   3.712
 4233WAT     H117652   5.297   5.181   3.771
 4233WAT     H217653   5.350   5.128   3.657
 4233WAT    EPW17654   5.349   5.183   3.712
 4234WAT      O17655   3.972   5.004   3.061
 4234WAT     H117656   3.913   4.976   3.004
 4234WAT     H217657   4.038   4.947   3.053
 4234WAT    EPW17658   3.973   4.992   3.052
 4235WAT      O17659   5.759   6.231   2.971
 4235WAT     H117660   5.793   6.286   2.913
 4235WAT     H217661   5.814   6.235   3.039
 4235WAT    EPW17662   5.772   6.240   2.973
 4236WAT      O17663   5.254   5.497   3.804
 4236WAT     H117664   5.291   5.505   3.883
 4236WAT     H217665   5.174   5.528   3.816
 4236WAT    EPW17666   5.248   5.503   3.817
 4237WAT      O17667   5.478   5.527   3.634
 4237WAT     H117668   5.502   5.607   3.658
 4237WAT     H217669   5.409   5.510   3.683
 4237WAT    EPW17670   5.472   5.536   3.645
 4238WAT      O17671   5.443   6.153   2.198
 4238WAT     H117672   5.480   6.074   2.206
 4238WAT     H217673   5.367   6.143   2.239
 4238WAT    EPW17674   5.437   6.140   2.205
 4239WAT      O17675   5.499   5.281   2.729
 4239WAT     H117676   5.430   5.241   2.763
 4239WAT     H217677   5.494   5.362   2.762
 4239WAT    EPW17678   5.488   5.287   2.739
 4240WAT      O17679   5.792   5.619   3.844
 4240WAT     H117680   5.797   5.561   3.779
 4240WAT     H217681   5.870   5.657   3.845
 4240WAT    EPW17682   5.804   5.616   3.835
 4241WAT      O17683   5.662   5.886   3.463
 4241WAT     H117684   5.733   5.842   3.437
 4241WAT     H217685   5.651   5.945   3.399
 4241WAT    EPW17686   5.671   5.888   3.449
 4242WAT      O17687   5.119   5.952   2.128
 4242WAT     H117688   5.195   5.909   2.120
 4242WAT     H217689   5.089   5.956   2.046
 4242WAT    EPW17690   5.126   5.946   2.115
 4243WAT      O17691   4.570   6.052   3.228
 4243WAT     H117692   4.585   6.103   3.297
 4243WAT     H217693   4.590   6.104   3.160
 4243WAT    EPW17694   4.575   6.067   3.228
 4244WAT      O17695   4.420   5.904   3.665
 4244WAT     H117696   4.349   5.864   3.697
 4244WAT     H217697   4.389   5.980   3.635
 4244WAT    EPW17698   4.405   5.909   3.665
 4245WAT      O17699   5.345   5.017   3.493
 4245WAT     H117700   5.412   5.067   3.467
 4245WAT     H217701   5.277   5.051   3.449
 4245WAT    EPW17702   5.344   5.029   3.482
 4246WAT      O17703   4.871   5.717   3.144
 4246WAT     H117704   4.925   5.734   3.210
 4246WAT     H217705   4.792   5.719   3.180
 4246WAT    EPW17706   4.867   5.720   3.159
 4247WAT      O17707   4.543   5.314   3.500
 4247WAT     H117708   4.542   5.236   3.538
 4247WAT     H217709   4.566   5.297   3.418
 4247WAT    EPW17710   4.546   5.300   3.493
 4248WAT      O17711   4.803   6.466   2.711
 4248WAT     H117712   4.809   6.551   2.731
 4248WAT     H217713   4.823   6.464   2.626
 4248WAT    EPW17714   4.807   6.478   2.701
 4249WAT      O17715   5.465   4.833   3.201
 4249WAT     H117716   5.441   4.913   3.179
 4249WAT     H217717   5.541   4.844   3.243
 4249WAT    EPW17718   5.473   4.846   3.204
 4250WAT      O17719   4.685   4.919   3.453
 4250WAT     H117720   4.772   4.923   3.444
 4250WAT     H217721   4.673   4.844   3.496
 4250WAT    EPW17722   4.696   4.908   3.458
 4251WAT      O17723   4.621   6.251   3.030
 4251WAT     H117724   4.578   6.308   2.980
 4251WAT     H217725   4.666   6.203   2.973
 4251WAT    EPW17726   4.621   6.252   3.014
 4252WAT      O17727   5.052   5.903   3.762
 4252WAT     H117728   5.134   5.915   3.736
 4252WAT     H217729   5.004   5.925   3.692
 4252WAT    EPW17730   5.057   5.908   3.748
 4253WAT      O17731   5.391   6.200   3.631
 4253WAT     H117732   5.429   6.225   3.705
 4253WAT     H217733   5.437   6.241   3.569
 4253WAT    EPW17734   5.403   6.210   3.633
 4254WAT      O17735   5.648   5.463   2.116
 4254WAT     H117736   5.694   5.519   2.067
 4254WAT     H217737   5.567   5.495   2.112
 4254WAT    EPW17738   5.643   5.476   2.108
 4255WAT      O17739   4.699   5.727   2.074
 4255WAT     H117740   4.632   5.680   2.044
 4255WAT     H217741   4.670   5.809   2.070
 4255WAT    EPW17742   4.685   5.732   2.069
 4256WAT      O17743   5.150   5.341   3.562
 4256WAT     H117744   5.080   5.379   3.599
 4256WAT     H217745   5.203   5.326   3.630
 4256WAT    EPW17746   5.147   5.345   3.578
 4257WAT      O17747   5.183   5.414   3.216
 4257WAT     H117748   5.194   5.469   3.283
 4257WAT     H217749   5.163   5.338   3.255
 4257WAT    EPW17750   5.182   5.411   3.232
 4258WAT      O17751   4.872   6.495   3.625
 4258WAT     H117752   4.898   6.481   3.542
 4258WAT     H217753   4.842   6.417   3.650
 4258WAT    EPW17754   4.871   6.481   3.616
 4259WAT      O17755   5.398   5.355   2.480
 4259WAT     H117756   5.422   5.327   2.559
 4259WAT     H217757   5.472   5.387   2.446
 4259WAT    EPW17758   5.412   5.356   2.487
 4260WAT      O17759   5.550   4.912   2.632
 4260WAT     H117760   5.471   4.877   2.645
 4260WAT     H217761   5.552   4.927   2.547
 4260WAT    EPW17762   5.538   4.909   2.622
 4261WAT      O17763   5.530   5.747   2.442
 4261WAT     H117764   5.573   5.672   2.434
 4261WAT     H217765   5.446   5.724   2.433
 4261WAT    EPW17766   5.524   5.733   2.440
 4262WAT      O17767   4.886   5.950   3.538
 4262WAT     H117768   4.816   5.954   3.589
 4262WAT     H217769   4.896   6.032   3.510
 4262WAT    EPW17770   4.877   5.963   3.541
 4263WAT      O17771   4.435   6.603   3.124
 4263WAT     H117772   4.431   6.592   3.210
 4263WAT     H217773   4.405   6.528   3.092
 4263WAT    EPW17774   4.430   6.591   3.132
 4264WAT      O17775   4.247   5.178   2.383
 4264WAT     H117776   4.279   5.137   2.313
 4264WAT     H217777   4.169   5.142   2.395
 4264WAT    EPW17778   4.241   5.167   2.374
 4265WAT      O17779   5.178   5.920   2.713
 4265WAT     H117780   5.171   5.928   2.800
 4265WAT     H217781   5.210   5.839   2.703
 4265WAT    EPW17782   5.182   5.909   2.724
 4266WAT      O17783   4.923   5.836   2.636
 4266WAT     H117784   4.885   5.827   2.714
 4266WAT     H217785   5.002   5.867   2.656
 4266WAT    EPW17786   4.929   5.839   2.650
 4267WAT      O17787   4.911   6.220   3.466
 4267WAT     H117788   4.973   6.222   3.528
 4267WAT     H217789   4.934   6.284   3.412
 4267WAT    EPW17790   4.924   6.230   3.467
 4268WAT      O17791   5.748   5.437   3.639
 4268WAT     H117792   5.662   5.453   3.640
 4268WAT     H217793   5.771   5.458   3.558
 4268WAT    EPW17794   5.738   5.442   3.627
 4269WAT      O17795   5.202   5.587   3.435
 4269WAT     H117796   5.191   5.522   3.493
 4269WAT     H217797   5.273   5.628   3.464
 4269WAT    EPW17798   5.211   5.583   3.448
 4270WAT      O17799   4.053   6.542   3.632
 4270WAT     H117800   3.989   6.482   3.623
 4270WAT     H217801   4.011   6.612   3.663
 4270WAT    EPW17802   4.037   6.543   3.635
 4271WAT      O17803   4.984   5.663   3.887
 4271WAT     H117804   5.010   5.737   3.850
 4271WAT     H217805   4.902   5.679   3.909
 4271WAT    EPW17806   4.976   5.676   3.885
 4272WAT      O17807   5.306   6.534   2.946
 4272WAT     H117808   5.259   6.598   2.981
 4272WAT     H217809   5.375   6.528   3.000
 4272WAT    EPW17810   5.310   6.542   2.959
 4273WAT      O17811   4.951   6.041   3.149
 4273WAT     H117812   4.923   5.978   3.203
 4273WAT     H217813   5.010   6.084   3.196
 4273WAT    EPW17814   4.956   6.038   3.164
 4274WAT      O17815   5.526   6.277   3.861
 4274WAT     H117816   5.609   6.250   3.859
 4274WAT     H217817   5.494   6.237   3.931
 4274WAT    EPW17818   5.534   6.267   3.871
 4275WAT      O17819   4.332   5.492   3.535
 4275WAT     H117820   4.303   5.499   3.453
 4275WAT     H217821   4.386   5.423   3.532
 4275WAT    EPW17822   4.336   5.483   3.523
 4276WAT      O17823   5.624   5.490   2.392
 4276WAT     H117824   5.637   5.485   2.306
 4276WAT     H217825   5.699   5.462   2.426
 4276WAT    EPW17826   5.637   5.485   2.384
 4277WAT      O17827   4.306   4.974   3.580
 4277WAT     H117828   4.260   4.929   3.640
 4277WAT     H217829   4.276   4.944   3.504
 4277WAT    EPW17830   4.295   4.963   3.578
 4278WAT      O17831   5.005   6.182   2.532
 4278WAT     H117832   4.986   6.263   2.505
 4278WAT     H217833   4.931   6.138   2.515
 4278WAT    EPW17834   4.991   6.188   2.525
 4279WAT      O17835   5.526   5.515   3.350
 4279WAT     H117836   5.514   5.429   3.346
 4279WAT     H217837   5.505   5.535   3.432
 4279WAT    EPW17838   5.521   5.505   3.361
 4280WAT      O17839   4.021   5.723   3.395
 4280WAT     H117840   4.060   5.729   3.318
 4280WAT     H217841   4.003   5.638   3.403
 4280WAT    EPW17842   4.024   5.711   3.385
 4281WAT      O17843   4.155   5.302   2.018
 4281WAT     H117844   4.079   5.291   2.060
 4281WAT     H217845   4.170   5.223   1.984
 4281WAT    EPW17846   4.146   5.288   2.019
 4282WAT      O17847   5.040   4.923   3.703
 4282WAT     H117848   5.074   4.988   3.750
 4282WAT     H217849   4.963   4.909   3.741
 4282WAT    EPW17850   5.034   4.931   3.716
 4283WAT      O17851   5.075   4.987   2.799
 4283WAT     H117852   4.989   4.992   2.813
 4283WAT     H217853   5.081   4.936   2.729
 4283WAT    EPW17854   5.063   4.980   2.791
 4284WAT      O17855   4.494   6.212   2.179
 4284WAT     H117856   4.533   6.210   2.257
 4284WAT     H217857   4.412   6.188   2.197
 4284WAT    EPW17858   4.487   6.208   2.193
 4285WAT      O17859   5.338   5.083   3.134
 4285WAT     H117860   5.410   5.132   3.129
 4285WAT     H217861   5.294   5.118   3.200
 4285WAT    EPW17862   5.342   5.095   3.143
 4286WAT      O17863   4.522   5.692   3.509
 4286WAT     H117864   4.491   5.758   3.556
 4286WAT     H217865   4.460   5.631   3.516
 4286WAT    EPW17866   4.508   5.692   3.517
 4287WAT      O17867   5.442   5.533   2.834
 4287WAT     H117868   5.502   5.594   2.851
 4287WAT     H217869   5.384   5.574   2.784
 4287WAT    EPW17870   5.443   5.548   2.829
 4288WAT      O17871   5.443   6.368   2.577
 4288WAT     H117872   5.428   6.291   2.615
 4288WAT     H217873   5.484   6.346   2.503
 4288WAT    EPW17874   5.447   6.353   2.572
 4289WAT      O17875   4.242   6.119   2.251
 4289WAT     H117876   4.240   6.100   2.336
 4289WAT     H217877   4.251   6.041   2.213
 4289WAT    EPW17878   4.243   6.105   2.258
 4290WAT      O17879   4.544   5.964   2.047
 4290WAT     H117880   4.466   5.931   2.066
 4290WAT     H217881   4.544   6.042   2.087
 4290WAT    EPW17882   4.533   5.971   2.056
 4291WAT      O17883   4.494   5.017   3.268
 4291WAT     H117884   4.417   4.978   3.284
 4291WAT     H217885   4.550   4.973   3.317
 4291WAT    EPW17886   4.491   5.005   3.277
 4292WAT      O17887   5.696   4.877   3.364
 4292WAT     H117888   5.678   4.869   3.449
 4292WAT     H217889   5.775   4.842   3.356
 4292WAT    EPW17890   5.705   4.871   3.375
 4293WAT      O17891   4.913   5.039   3.092
 4293WAT     H117892   4.866   5.003   3.028
 4293WAT     H217893   4.984   4.989   3.096
 4293WAT    EPW17894   4.916   5.026   3.084
 4294WAT      O17895   5.200   6.147   3.237
 4294WAT     H117896   5.220   6.216   3.287
 4294WAT     H217897   5.200   6.180   3.156
 4294WAT    EPW17898   5.203   6.162   3.232
 4295WAT      O17899   5.143   6.555   3.700
 4295WAT     H117900   5.069   6.523   3.669
 4295WAT     H217901   5.124   6.639   3.716
 4295WAT    EPW17902   5.129   6.562   3.698
 4296WAT      O17903   4.669   5.498   3.661
 4296WAT     H117904   4.637   5.433   3.613
 4296WAT     H217905   4.640   5.569   3.621
 4296WAT    EPW17906   4.660   5.499   3.648
 4297WAT      O17907   4.780   4.866   2.141
 4297WAT     H117908   4.797   4.871   2.056
 4297WAT     H217909   4.693   4.869   2.145
 4297WAT    EPW17910   4.770   4.867   2.129
 4298WAT      O17911   5.625   6.007   3.204
 4298WAT     H117912   5.605   5.924   3.185
 4298WAT     H217913   5.578   6.052   3.146
 4298WAT    EPW17914   5.615   6.001   3.192
 4299WAT      O17915   4.542   6.470   3.640
 4299WAT     H117916   4.518   6.486   3.723
 4299WAT     H217917   4.603   6.408   3.648
 4299WAT    EPW17918   4.547   6.464   3.653
 4300WAT      O17919   5.514   6.318   3.090
 4300WAT     H117920   5.592   6.306   3.052
 4300WAT     H217921   5.466   6.252   3.058
 4300WAT    EPW17922   5.519   6.306   3.080
 4301WAT      O17923   4.234   4.877   3.318
 4301WAT     H117924   4.279   4.803   3.320
 4301WAT     H217925   4.152   4.852   3.338
 4301WAT    EPW17926   4.228   4.862   3.321
 4302WAT      O17927   5.148   4.891   3.049
 4302WAT     H117928   5.211   4.947   3.073
 4302WAT     H217929   5.129   4.915   2.968
 4302WAT    EPW17930   5.155   4.903   3.041
 4303WAT      O17931   4.236   6.364   3.748
 4303WAT     H117932   4.298   6.405   3.794
 4303WAT     H217933   4.186   6.429   3.718
 4303WAT    EPW17934   4.238   6.379   3.750
 4304WAT      O17935   5.104   5.431   2.777
 4304WAT     H117936   5.153   5.362   2.796
 4304WAT     H217937   5.067   5.453   2.853
 4304WAT    EPW17938   5.105   5.424   2.791
 4305WAT      O17939   4.096   5.282   2.754
 4305WAT     H117940   4.039   5.305   2.816
 4305WAT     H217941   4.131   5.208   2.785
 4305WAT    EPW17942   4.092   5.275   2.768
 4306WAT      O17943   5.285   5.596   2.399
 4306WAT     H117944   5.304   5.514   2.421
 4306WAT     H217945   5.210   5.589   2.355
 4306WAT    EPW17946   5.277   5.583   2.396
 4307WAT      O17947   4.274   6.459   2.366
 4307WAT     H117948   4.244   6.450   2.285
 4307WAT     H217949   4.361   6.451   2.357
 4307WAT    EPW17950   4.283   6.456   2.353
 4308WAT      O17951   4.647   5.650   2.336
 4308WAT     H117952   4.666   5.682   2.257
 4308WAT     H217953   4.725   5.642   2.374
 4308WAT    EPW17954   4.661   5.654   2.330
 4309WAT      O17955   5.553   6.542   2.043
 4309WAT     H117956   5.625   6.533   2.092
 4309WAT     H217957   5.539   6.461   2.012
 4309WAT    EPW17958   5.561   6.528   2.046
 4310WAT      O17959   5.591   5.767   3.720
 4310WAT     H117960   5.659   5.737   3.764
 4310WAT     H217961   5.627   5.818   3.658
 4310WAT    EPW17962   5.606   5.770   3.717
 4311WAT      O17963   5.195   6.143   2.321
 4311WAT     H117964   5.147   6.136   2.394
 4311WAT     H217965   5.159   6.085   2.267
 4311WAT    EPW17966   5.183   6.133   2.324
 4312WAT      O17967   5.606   5.218   3.841
 4312WAT     H117968   5.607   5.296   3.880
 4312WAT     H217969   5.527   5.213   3.806
 4312WAT    EPW17970   5.595   5.229   3.842
 4313WAT      O17971   5.683   5.354   3.122
 4313WAT     H117972   5.600   5.372   3.104
 4313WAT     H217973   5.681   5.269   3.143
 4313WAT    EPW17974   5.670   5.344   3.123
 4314WAT      O17975   4.552   5.078   3.638
 4314WAT     H117976   4.599   5.027   3.584
 4314WAT     H217977   4.471   5.046   3.630
 4314WAT    EPW17978   4.547   5.066   3.628
 4315WAT      O17979   5.358   5.830   3.959
 4315WAT     H117980   5.433   5.857   3.996
 4315WAT     H217981   5.366   5.855   3.876
 4315WAT    EPW17982   5.370   5.838   3.952
 4316WAT      O17983   4.289   6.377   3.040
 4316WAT     H117984   4.300   6.300   3.000
 4316WAT     H217985   4.252   6.427   2.978
 4316WAT    EPW17986   4.285   6.373   3.025
 4317WAT      O17987   4.859   6.000   2.219
 4317WAT     H117988   4.938   5.970   2.196
 4317WAT     H217989   4.849   6.071   2.169
 4317WAT    EPW17990   4.870   6.006   2.208
 4318WAT      O17991   4.061   6.601   3.359
 4318WAT     H117992   4.065   6.587   3.445
 4318WAT     H217993   4.092   6.527   3.325
 4318WAT    EPW17994   4.066   6.588   3.367
 4319WAT      O17995   5.085   4.820   0.670
 4319WAT     H117996   5.107   4.854   0.593
 4319WAT     H217997   5.161   4.790   0.701
 4319WAT    EPW17998   5.099   4.821   0.663
 4320WAT      O17999   4.988   5.474   1.140
 4320WAT     H118000   4.953   5.549   1.167
 4320WAT     H218001   5.047   5.456   1.201
 4320WAT    EPW18002   4.991   5.482   1.153
 4321WAT      O18003   3.970   5.944   0.671
 4321WAT     H118004   3.962   5.948   0.758
 4321WAT     H218005   3.963   5.859   0.653
 4321WAT    EPW18006   3.968   5.932   0.681
 4322WAT      O18007   5.595   6.296   0.455
 4322WAT     H118008   5.660   6.240   0.472
 4322WAT     H218009   5.546   6.254   0.397
 4322WAT    EPW18010   5.598   6.281   0.449
 4323WAT      O18011   3.985   5.303   0.320
 4323WAT     H118012   3.928   5.359   0.284
 4323WAT     H218013   3.944   5.226   0.316
 4323WAT    EPW18014   3.971   5.300   0.314
 4324WAT      O18015   4.231   5.847   0.252
 4324WAT     H118016   4.219   5.805   0.176
 4324WAT     H218017   4.237   5.783   0.310
 4324WAT    EPW18018   4.230   5.832   0.249
 4325WAT      O18019   5.242   5.655   0.796
 4325WAT     H118020   5.257   5.639   0.711
 4325WAT     H218021   5.188   5.591   0.819
 4325WAT    EPW18022   5.236   5.643   0.787
 4326WAT      O18023   4.220   6.053   0.621
 4326WAT     H118024   4.274   6.019   0.681
 4326WAT     H218025   4.144   6.013   0.636
 4326WAT    EPW18026   4.217   6.042   0.632
 4327WAT      O18027   4.708   4.957   0.609
 4327WAT     H118028   4.704   5.039   0.577
 4327WAT     H218029   4.748   4.913   0.546
 4327WAT    EPW18030   4.713   4.963   0.595
 4328WAT      O18031   4.129   6.356   0.276
 4328WAT     H118032   4.159   6.365   0.195
 4328WAT     H218033   4.155   6.276   0.299
 4328WAT    EPW18034   4.137   6.345   0.268
 4329WAT      O18035   3.974   6.170   1.333
 4329WAT     H118036   4.009   6.145   1.409
 4329WAT     H218037   3.904   6.117   1.324
 4329WAT    EPW18038   3.969   6.158   1.343
 4330WAT      O18039   4.639   5.997   1.783
 4330WAT     H118040   4.617   5.981   1.866
 4330WAT     H218041   4.567   5.977   1.738
 4330WAT    EPW18042   4.625   5.991   1.789
 4331WAT      O18043   4.167   5.697   0.803
 4331WAT     H118044   4.116   5.694   0.732
 4331WAT     H218045   4.220   5.629   0.793
 4331WAT    EPW18046   4.167   5.687   0.791
 4332WAT      O18047   4.595   5.255   1.352
 4332WAT     H118048   4.664   5.254   1.299
 4332WAT     H218049   4.571   5.171   1.356
 4332WAT    EPW18050   4.602   5.242   1.345
 4333WAT      O18051   4.636   6.276   1.521
 4333WAT     H118052   4.650   6.337   1.460
 4333WAT     H218053   4.716   6.250   1.544
 4333WAT    EPW18054   4.650   6.281   1.515
 4334WAT      O18055   4.322   5.473   0.785
 4334WAT     H118056   4.389   5.423   0.812
 4334WAT     H218057   4.254   5.420   0.789
 4334WAT    EPW18058   4.322   5.458   0.790
 4335WAT      O18059   4.743   6.106   0.938
 4335WAT     H118060   4.764   6.025   0.960
 4335WAT     H218061   4.820   6.147   0.930
 4335WAT    EPW18062   4.757   6.100   0.940
 4336WAT      O18063   4.773   6.031   0.580
 4336WAT     H118064   4.813   5.973   0.631
 4336WAT     H218065   4.806   6.014   0.500
 4336WAT    EPW18066   4.784   6.020   0.575
 4337WAT      O18067   4.927   5.513   1.760
 4337WAT     H118068   4.841   5.510   1.744
 4337WAT     H218069   4.933   5.562   1.832
 4337WAT    EPW18070   4.915   5.519   1.768
 4338WAT      O18071   4.430   4.979   0.684
 4338WAT     H118072   4.389   5.025   0.622
 4338WAT     H218073   4.511   4.972   0.653
 4338WAT    EPW18074   4.436   4.985   0.670
 4339WAT      O18075   5.429   4.755   1.627
 4339WAT     H118076   5.401   4.822   1.578
 4339WAT     H218077   5.357   4.728   1.668
 4339WAT    EPW18078   5.415   4.761   1.625
 4340WAT      O18079   4.776   4.944   0.875
 4340WAT     H118080   4.759   5.027   0.896
 4340WAT     H218081   4.754   4.940   0.791
 4340WAT    EPW18082   4.770   4.956   0.866
 4341WAT      O18083   3.981   5.426   1.054
 4341WAT     H118084   3.979   5.512   1.064
 4341WAT     H218085   3.913   5.398   1.101
 4341WAT    EPW18086   3.971   5.434   1.063
 4342WAT      O18087   3.970   6.401   0.870
 4342WAT     H118088   3.908   6.448   0.831
 4342WAT     H218089   4.013   6.364   0.803
 4342WAT    EPW18090   3.967   6.402   0.854
 4343WAT      O18091   4.592   6.245   0.578
 4343WAT     H118092   4.546   6.229   0.650
 4343WAT     H218093   4.655   6.185   0.581
 4343WAT    EPW18094   4.594   6.233   0.589
 4344WAT      O18095   5.166   6.385   0.384
 4344WAT     H118096   5.228   6.445   0.369
 4344WAT     H218097   5.210   6.318   0.419
 4344WAT    EPW18098   5.182   6.384   0.387
 4345WAT      O18099   4.961   6.455   0.553
 4345WAT     H118100   4.994   6.525   0.594
 4345WAT     H218101   5.021   6.435   0.494
 4345WAT    EPW18102   4.975   6.463   0.550
 4346WAT      O18103   4.249   4.919   1.094
 4346WAT     H118104   4.222   4.847   1.055
 4346WAT     H218105   4.313   4.891   1.147
 4346WAT    EPW18106   4.254   4.905   1.096
 4347WAT      O18107   4.601   5.138   2.022
 4347WAT     H118108   4.590   5.111   1.940
 4347WAT     H218109   4.644   5.214   2.013
 4347WAT    EPW18110   4.606   5.145   2.008
 4348WAT      O18111   4.109   6.306   0.647
 4348WAT     H118112   4.158   6.234   0.655
 4348WAT     H218113   4.160   6.361   0.603
 4348WAT    EPW18114   4.124   6.303   0.641
 4349WAT      O18115   5.713   5.113   0.798
 4349WAT     H118116   5.663   5.183   0.809
 4349WAT     H218117   5.655   5.049   0.784
 4349WAT    EPW18118   5.697   5.114   0.798
 4350WAT      O18119   5.219   6.429   1.352
 4350WAT     H118120   5.288   6.482   1.344
 4350WAT     H218121   5.207   6.400   1.271
 4350WAT    EPW18122   5.228   6.433   1.339
 4351WAT      O18123   4.188   5.033   1.930
 4351WAT     H118124   4.109   5.001   1.913
 4351WAT     H218125   4.237   5.001   1.866
 4351WAT    EPW18126   4.184   5.024   1.918
 4352WAT      O18127   4.248   6.131   0.999
 4352WAT     H118128   4.305   6.117   0.934
 4352WAT     H218129   4.275   6.077   1.062
 4352WAT    EPW18130   4.261   6.121   0.999
 4353WAT      O18131   4.556   6.437   0.919
 4353WAT     H118132   4.634   6.453   0.883
 4353WAT     H218133   4.500   6.482   0.868
 4353WAT    EPW18134   4.559   6.446   0.906
 4354WAT      O18135   4.852   4.852   1.874
 4354WAT     H118136   4.872   4.769   1.853
 4354WAT     H218137   4.806   4.880   1.805
 4354WAT    EPW18138   4.848   4.844   1.860
 4355WAT      O18139   4.878   5.397   0.715
 4355WAT     H118140   4.906   5.349   0.648
 4355WAT     H218141   4.950   5.408   0.764
 4355WAT    EPW18142   4.893   5.392   0.713
 4356WAT      O18143   4.962   5.419   0.260
 4356WAT     H118144   4.995   5.495   0.289
 4356WAT     H218145   4.884   5.442   0.228
 4356WAT    EPW18146   4.955   5.434   0.260
 4357WAT      O18147   5.360   6.583   0.333
 4357WAT     H118148   5.404   6.543   0.269
 4357WAT     H218149   5.418   6.639   0.367
 4357WAT    EPW18150   5.375   6.585   0.329
 4358WAT      O18151   4.407   6.520   1.490
 4358WAT     H118152   4.443   6.502   1.567
 4358WAT     H218153   4.346   6.459   1.481
 4358WAT    EPW18154   4.403   6.508   1.500
 4359WAT      O18155   5.636   5.056   1.239
 4359WAT     H118156   5.698   5.045   1.179
 4359WAT     H218157   5.654   4.994   1.298
 4359WAT    EPW18158   5.648   5.045   1.239
 4360WAT      O18159   3.868   5.141   1.651
 4360WAT     H118160   3.861   5.204   1.711
 4360WAT     H218161   3.929   5.171   1.596
 4360WAT    EPW18162   3.876   5.155   1.651
 4361WAT      O18163   5.111   6.225   1.745
 4361WAT     H118164   5.104   6.247   1.830
 4361WAT     H218165   5.197   6.220   1.732
 4361WAT    EPW18166   5.123   6.228   1.756
 4362WAT      O18167   4.953   6.266   0.238
 4362WAT     H118168   4.893   6.329   0.245
 4362WAT     H218169   5.026   6.304   0.264
 4362WAT    EPW18170   4.955   6.281   0.243
 4363WAT      O18171   5.140   4.901   0.411
 4363WAT     H118172   5.207   4.858   0.376
 4363WAT     H218173   5.173   4.979   0.430
 4363WAT    EPW18174   5.154   4.906   0.409
 4364WAT      O18175   3.999   5.072   0.574
 4364WAT     H118176   3.975   4.991   0.554
 4364WAT     H218177   3.951   5.091   0.645
 4364WAT    EPW18178   3.988   5.063   0.581
 4365WAT      O18179   4.173   6.379   1.368
 4365WAT     H118180   4.110   6.318   1.358
 4365WAT     H218181   4.216   6.377   1.292
 4365WAT    EPW18182   4.170   6.370   1.356
 4366WAT      O18183   4.947   5.258   0.483
 4366WAT     H118184   4.871   5.218   0.468
 4366WAT     H218185   4.959   5.307   0.412
 4366WAT    EPW18186   4.938   5.259   0.470
 4367WAT      O18187   4.976   6.482   1.467
 4367WAT     H118188   5.053   6.470   1.426
 4367WAT     H218189   4.918   6.476   1.402
 4367WAT    EPW18190   4.979   6.479   1.451
 4368WAT      O18191   4.864   4.908   0.370
 4368WAT     H118192   4.844   4.985   0.334
 4368WAT     H218193   4.951   4.910   0.375
 4368WAT    EPW18194   4.874   4.920   0.365
 4369WAT      O18195   5.665   6.536   0.721
 4369WAT     H118196   5.624   6.611   0.735
 4369WAT     H218197   5.600   6.478   0.712
 4369WAT    EPW18198   5.649   6.539   0.721
 4370WAT      O18199   4.740   5.220   0.893
 4370WAT     H118200   4.780   5.278   0.842
 4370WAT     H218201   4.763   5.245   0.974
 4370WAT    EPW18202   4.749   5.232   0.898
 4371WAT      O18203   5.360   6.093   0.724
 4371WAT     H118204   5.428   6.042   0.746
 4371WAT     H218205   5.291   6.051   0.756
 4371WAT    EPW18206   5.360   6.079   0.732
 4372WAT      O18207   4.365   6.228   1.637
 4372WAT     H118208   4.443   6.259   1.613
 4372WAT     H218209   4.350   6.267   1.713
 4372WAT    EPW18210   4.374   6.238   1.645
 4373WAT      O18211   4.355   4.719   0.730
 4373WAT     H118212   4.376   4.802   0.716
 4373WAT     H218213   4.325   4.692   0.653
 4373WAT    EPW18214   4.354   4.727   0.717
 4374WAT      O18215   4.544   5.800   1.083
 4374WAT     H118216   4.566   5.782   1.166
 4374WAT     H218217   4.487   5.736   1.063
 4374WAT    EPW18218   4.538   5.788   1.092
 4375WAT      O18219   5.148   5.167   1.467
 4375WAT     H118220   5.141   5.208   1.544
 4375WAT     H218221   5.085   5.106   1.471
 4375WAT    EPW18222   5.138   5.164   1.479
 4376WAT      O18223   4.645   5.808   1.342
 4376WAT     H118224   4.623   5.892   1.349
 4376WAT     H218225   4.614   5.772   1.416
 4376WAT    EPW18226   4.637   5.815   1.354
 4377WAT      O18227   5.269   5.869   1.345
 4377WAT     H118228   5.194   5.842   1.379
 4377WAT     H218229   5.264   5.956   1.351
 4377WAT    EPW18230   5.257   5.878   1.351
 4378WAT      O18231   5.322   4.737   0.781
 4378WAT     H118232   5.321   4.722   0.867
 4378WAT     H218233   5.354   4.663   0.748
 4378WAT    EPW18234   5.327   4.724   0.789
 4379WAT      O18235   3.905   6.222   1.962
 4379WAT     H118236   3.964   6.268   2.008
 4379WAT     H218237   3.916   6.140   1.991
 4379WAT    EPW18238   3.916   6.217   1.973
 4380WAT      O18239   5.524   5.213   1.564
 4380WAT     H118240   5.606   5.193   1.584
 4380WAT     H218241   5.482   5.205   1.641
 4380WAT    EPW18242   5.530   5.209   1.579
 4381WAT      O18243   4.286   5.104   0.892
 4381WAT     H118244   4.326   5.056   0.831
 4381WAT     H218245   4.278   5.048   0.959
 4381WAT    EPW18246   4.291   5.088   0.893
 4382WAT      O18247   5.563   5.929   0.336
 4382WAT     H118248   5.559   5.878   0.407
 4382WAT     H218249   5.647   5.926   0.314
 4382WAT    EPW18250   5.575   5.921   0.344
 4383WAT      O18251   4.344   5.911   0.823
 4383WAT     H118252   4.415   5.886   0.777
 4383WAT     H218253   4.294   5.840   0.821
 4383WAT    EPW18254   4.347   5.897   0.816
 4384WAT      O18255   4.182   6.554   0.957
 4384WAT     H118256   4.108   6.515   0.931
 4384WAT     H218257   4.232   6.553   0.886
 4384WAT    EPW18258   4.179   6.548   0.943
 4385WAT      O18259   4.151   5.278   1.219
 4385WAT     H118260   4.233   5.302   1.204
 4385WAT     H218261   4.105   5.324   1.162
 4385WAT    EPW18262   4.156   5.288   1.209
 4386WAT      O18263   5.807   6.333   1.708
 4386WAT     H118264   5.730   6.341   1.668
 4386WAT     H218265   5.788   6.289   1.781
 4386WAT    EPW18266   5.793   6.328   1.713
 4387WAT      O18267   5.412   5.555   0.261
 4387WAT     H118268   5.341   5.561   0.210
 4387WAT     H218269   5.384   5.585   0.338
 4387WAT    EPW18270   5.397   5.560   0.265
 4388WAT      O18271   4.550   5.855   0.644
 4388WAT     H118272   4.607   5.915   0.616
 4388WAT     H218273   4.561   5.788   0.590
 4388WAT    EPW18274   4.560   5.854   0.632
 4389WAT      O18275   5.689   5.086   0.236
 4389WAT     H118276   5.708   5.009   0.199
 4389WAT     H218277   5.648   5.129   0.173
 4389WAT    EPW18278   5.686   5.081   0.222
 4390WAT      O18279   4.000   6.005   0.951
 4390WAT     H118280   3.946   6.066   0.983
 4390WAT     H218281   4.079   6.042   0.958
 4390WAT    EPW18282   4.004   6.019   0.957
 4391WAT      O18283   4.733   5.385   2.005
 4391WAT     H118284   4.684   5.410   2.072
 4391WAT     H218285   4.701   5.431   1.938
 4391WAT    EPW18286   4.721   5.395   2.005
 4392WAT      O18287   5.814   5.470   1.474
 4392WAT     H118288   5.860   5.399   1.455
 4392WAT     H218289   5.740   5.459   1.429
 4392WAT    EPW18290   5.810   5.458   1.464
 4393WAT      O18291   4.018   5.677   0.575
 4393WAT     H118292   3.997   5.592   0.582
 4393WAT     H218293   4.090   5.676   0.526
 4393WAT    EPW18294   4.026   5.664   0.569
 4394WAT      O18295   5.549   4.929   0.440
 4394WAT     H118296   5.625   4.892   0.459
 4394WAT     H218297   5.571   4.998   0.391
 4394WAT    EPW18298   5.563   4.933   0.435
 4395WAT      O18299   4.974   6.259   0.904
 4395WAT     H118300   4.930   6.332   0.887
 4395WAT     H218301   4.997   6.231   0.825
 4395WAT    EPW18302   4.971   6.266   0.890
 4396WAT      O18303   3.935   6.150   0.493
 4396WAT     H118304   3.988   6.207   0.533
 4396WAT     H218305   3.930   6.084   0.550
 4396WAT    EPW18306   3.942   6.149   0.507
 4397WAT      O18307   4.349   5.963   1.194
 4397WAT     H118308   4.401   6.005   1.250
 4397WAT     H218309   4.404   5.918   1.144
 4397WAT    EPW18310   4.365   5.963   1.195
 4398WAT      O18311   5.247   5.201   0.914
 4398WAT     H118312   5.283   5.167   0.987
 4398WAT     H218313   5.188   5.140   0.892
 4398WAT    EPW18314   5.244   5.187   0.922
 4399WAT      O18315   3.955   5.953   0.289
 4399WAT     H118316   4.037   5.922   0.282
 4399WAT     H218317   3.964   6.021   0.343
 4399WAT    EPW18318   3.969   5.959   0.296
 4400WAT      O18319   4.017   5.738   1.032
 4400WAT     H118320   4.069   5.714   0.966
 4400WAT     H218321   4.009   5.824   1.021
 4400WAT    EPW18322   4.023   5.747   1.021
 4401WAT      O18323   4.689   5.161   0.414
 4401WAT     H118324   4.636   5.096   0.388
 4401WAT     H218325   4.643   5.233   0.397
 4401WAT    EPW18326   4.675   5.162   0.407
 4402WAT      O18327   5.554   6.369   1.572
 4402WAT     H118328   5.507   6.440   1.592
 4402WAT     H218329   5.552   6.368   1.484
 4402WAT    EPW18330   5.547   6.379   1.562
 4403WAT      O18331   4.486   6.187   0.827
 4403WAT     H118332   4.500   6.267   0.861
 4403WAT     H218333   4.553   6.140   0.856
 4403WAT    EPW18334   4.498   6.192   0.836
 4404WAT      O18335   4.258   5.500   1.848
 4404WAT     H118336   4.219   5.437   1.893
 4404WAT     H218337   4.258   5.470   1.766
 4404WAT    EPW18338   4.252   5.486   1.843
 4405WAT      O18339   4.253   5.372   0.384
 4405WAT     H118340   4.262   5.309   0.443
 4405WAT     H218341   4.173   5.357   0.351
 4405WAT    EPW18342   4.242   5.361   0.388
 4406WAT      O18343   4.358   5.602   1.038
 4406WAT     H118344   4.349   5.568   0.958
 4406WAT     H218345   4.376   5.533   1.088
 4406WAT    EPW18346   4.360   5.587   1.033
 4407WAT      O18347   4.338   5.577   1.389
 4407WAT     H118348   4.363   5.523   1.326
 4407WAT     H218349   4.285   5.633   1.348
 4407WAT    EPW18350   4.334   5.577   1.374
 4408WAT      O18351   5.409   5.377   1.179
 4408WAT     H118352   5.340   5.401   1.226
 4408WAT     H218353   5.406   5.431   1.110
 4408WAT    EPW18354   5.398   5.389   1.175
 4409WAT      O18355   4.753   6.440   1.308
 4409WAT     H118356   4.727   6.379   1.252
 4409WAT     H218357   4.740   6.514   1.265
 4409WAT    EPW18358   4.747   6.442   1.293
 4410WAT      O18359   5.000   4.934   1.530
 4410WAT     H118360   5.008   4.851   1.507
 4410WAT     H218361   5.037   4.938   1.609
 4410WAT    EPW18362   5.006   4.923   1.539
 4411WAT      O18363   5.209   5.147   0.507
 4411WAT     H118364   5.267   5.212   0.520
 4411WAT     H218365   5.132   5.189   0.506
 4411WAT    EPW18366   5.206   5.163   0.509
 4412WAT      O18367   4.155   5.746   1.919
 4412WAT     H118368   4.147   5.794   1.846
 4412WAT     H218369   4.195   5.674   1.893
 4412WAT    EPW18370   4.160   5.743   1.904
 4413WAT      O18371   5.311   5.937   1.795
 4413WAT     H118372   5.339   6.016   1.773
 4413WAT     H218373   5.341   5.885   1.732
 4413WAT    EPW18374   5.319   5.941   1.783
 4414WAT      O18375   4.732   6.261   1.819
 4414WAT     H118376   4.763   6.253   1.900
 4414WAT     H218377   4.703   6.180   1.800
 4414WAT    EPW18378   4.733   6.248   1.828
 4415WAT      O18379   4.798   5.270   1.159
 4415WAT     H118380   4.859   5.333   1.161
 4415WAT     H218381   4.842   5.197   1.176
 4415WAT    EPW18382   4.814   5.269   1.161
 4416WAT      O18383   5.062   5.645   0.386
 4416WAT     H118384   5.081   5.728   0.364
 4416WAT     H218385   4.995   5.653   0.441
 4416WAT    EPW18386   5.055   5.659   0.391
 4417WAT      O18387   5.547   5.908   0.810
 4417WAT     H118388   5.571   5.853   0.873
 4417WAT     H218389   5.554   5.860   0.737
 4417WAT    EPW18390   5.552   5.893   0.808
 4418WAT      O18391   5.173   6.290   1.106
 4418WAT     H118392   5.108   6.275   1.049
 4418WAT     H218393   5.219   6.353   1.068
 4418WAT    EPW18394   5.170   6.297   1.092
 4419WAT      O18395   5.166   5.953   1.093
 4419WAT     H118396   5.092   5.988   1.125
 4419WAT     H218397   5.195   5.904   1.159
 4419WAT    EPW18398   5.159   5.951   1.108
 4420WAT      O18399   4.543   6.487   0.439
 4420WAT     H118400   4.556   6.419   0.492
 4420WAT     H218401   4.613   6.486   0.387
 4420WAT    EPW18402   4.555   6.477   0.439
 4421WAT      O18403   4.523   4.941   0.355
 4421WAT     H118404   4.516   4.858   0.382
 4421WAT     H218405   4.448   4.956   0.314
 4421WAT    EPW18406   4.511   4.931   0.353
 4422WAT      O18407   4.795   6.480   0.327
 4422WAT     H118408   4.834   6.465   0.404
 4422WAT     H218409   4.815   6.564   0.310
 4422WAT    EPW18410   4.803   6.490   0.336
 4423WAT      O18411   5.396   5.786   1.579
 4423WAT     H118412   5.362   5.819   1.506
 4423WAT     H218413   5.480   5.805   1.573
 4423WAT    EPW18414   5.403   5.794   1.567
 4424WAT      O18415   5.097   6.354   1.999
 4424WAT     H118416   5.122   6.376   2.080
 4424WAT     H218417   5.123   6.422   1.951
 4424WAT    EPW18418   5.105   6.367   2.004
 4425WAT      O18419   5.541   4.888   1.843
 4425WAT     H118420   5.508   4.844   1.775
 4425WAT     H218421   5.540   4.830   1.908
 4425WAT    EPW18422   5.536   4.873   1.842
 4426WAT      O18423   4.265   5.647   0.441
 4426WAT     H118424   4.262   5.561   0.426
 4426WAT     H218425   4.341   5.657   0.483
 4426WAT    EPW18426   4.276   5.636   0.445
 4427WAT      O18427   5.034   5.783   1.463
 4427WAT     H118428   4.985   5.822   1.524
 4427WAT     H218429   5.068   5.714   1.505
 4427WAT    EPW18430   5.032   5.779   1.478
 4428WAT      O18431   3.901   4.811   0.509
 4428WAT     H118432   3.906   4.752   0.445
 4428WAT     H218433   3.878   4.763   0.579
 4428WAT    EPW18434   3.898   4.795   0.510
 4429WAT      O18435   4.849   5.636   0.565
 4429WAT     H118436   4.864   5.700   0.623
 4429WAT     H218437   4.851   5.564   0.614
 4429WAT    EPW18438   4.852   5.635   0.581
 4430WAT      O18439   5.434   6.061   1.099
 4430WAT     H118440   5.469   6.044   1.021
 4430WAT     H218441   5.350   6.041   1.088
 4430WAT    EPW18442   5.427   6.055   1.086
 4431WAT      O18443   4.291   5.061   0.241
 4431WAT     H118444   4.228   5.039   0.186
 4431WAT     H218445   4.320   5.137   0.209
 4431WAT    EPW18446   4.286   5.069   0.228
 4432WAT      O18447   4.801   5.838   0.991
 4432WAT     H118448   4.717   5.819   1.008
 4432WAT     H218449   4.843   5.807   1.061
 4432WAT    EPW18450   4.795   5.830   1.004
 4433WAT      O18451   4.169   5.765   1.268
 4433WAT     H118452   4.222   5.832   1.249
 4433WAT     H218453   4.129   5.748   1.192
 4433WAT    EPW18454   4.171   5.772   1.254
 4434WAT      O18455   4.478   5.298   0.933
 4434WAT     H118456   4.558   5.268   0.915
 4434WAT     H218457   4.427   5.228   0.920
 4434WAT    EPW18458   4.482   5.283   0.928
 4435WAT      O18459   5.755   6.466   0.309
 4435WAT     H118460   5.831   6.425   0.297
 4435WAT     H218461   5.711   6.412   0.362
 4435WAT    EPW18462   5.760   6.452   0.315
 4436WAT      O18463   3.974   5.400   0.594
 4436WAT     H118464   4.009   5.362   0.664
 4436WAT     H218465   3.989   5.343   0.529
 4436WAT    EPW18466   3.982   5.386   0.595
 4437WAT      O18467   5.519   5.729   1.283
 4437WAT     H118468   5.520   5.658   1.333
 4437WAT     H218469   5.438   5.759   1.292
 4437WAT    EPW18470   5.507   5.723   1.292
 4438WAT      O18471   4.134   5.888   1.682
 4438WAT     H118472   4.095   5.839   1.622
 4438WAT     H218473   4.111   5.969   1.661
 4438WAT    EPW18474   4.125   5.893   1.670
 4439WAT      O18475   5.620   5.734   1.020
 4439WAT     H118476   5.593   5.736   1.103
 4439WAT     H218477   5.707   5.727   1.027
 4439WAT    EPW18478   5.629   5.733   1.033
 4440WAT      O18479   4.537   5.390   0.359
 4440WAT     H118480   4.556   5.469   0.391
 4440WAT     H218481   4.450   5.387   0.359
 4440WAT    EPW18482   4.527   5.401   0.364
 4441WAT      O18483   5.422   5.147   1.822
 4441WAT     H118484   5.348   5.152   1.867
 4441WAT     H218485   5.446   5.063   1.830
 4441WAT    EPW18486   5.415   5.135   1.830
 4442WAT      O18487   3.930   5.044   1.054
 4442WAT     H118488   3.913   5.064   0.970
 4442WAT     H218489   4.016   5.031   1.055
 4442WAT    EPW18490   3.940   5.045   1.041
 4443WAT      O18491   5.756   6.224   1.069
 4443WAT     H118492   5.792   6.281   1.013
 4443WAT     H218493   5.810   6.227   1.138
 4443WAT    EPW18494   5.769   6.233   1.071
 4444WAT      O18495   5.250   5.494   1.905
 4444WAT     H118496   5.287   5.502   1.984
 4444WAT     H218497   5.176   5.539   1.914
 4444WAT    EPW18498   5.244   5.501   1.918
 4445WAT      O18499   5.481   5.534   1.747
 4445WAT     H118500   5.501   5.615   1.771
 4445WAT     H218501   5.409   5.516   1.793
 4445WAT    EPW18502   5.473   5.543   1.757
 4446WAT      O18503   5.434   6.166   0.276
 4446WAT     H118504   5.475   6.090   0.282
 4446WAT     H218505   5.362   6.154   0.324
 4446WAT    EPW18506   5.429   6.153   0.284
 4447WAT      O18507   5.492   5.297   0.817
 4447WAT     H118508   5.422   5.254   0.846
 4447WAT     H218509   5.488   5.373   0.859
 4447WAT    EPW18510   5.481   5.301   0.827
 4448WAT      O18511   5.794   5.620   1.941
 4448WAT     H118512   5.796   5.562   1.875
 4448WAT     H218513   5.872   5.658   1.937
 4448WAT    EPW18514   5.805   5.617   1.931
 4449WAT      O18515   5.661   5.878   1.573
 4449WAT     H118516   5.730   5.832   1.545
 4449WAT     H218517   5.650   5.938   1.511
 4449WAT    EPW18518   5.669   5.880   1.560
 4450WAT      O18519   5.159   5.901   0.316
 4450WAT     H118520   5.188   5.961   0.372
 4450WAT     H218521   5.214   5.909   0.248
 4450WAT    EPW18522   5.171   5.911   0.314
 4451WAT      O18523   4.565   6.078   1.335
 4451WAT     H118524   4.577   6.130   1.404
 4451WAT     H218525   4.584   6.129   1.267
 4451WAT    EPW18526   4.570   6.093   1.335
 4452WAT      O18527   4.402   5.948   1.640
 4452WAT     H118528   4.321   5.921   1.657
 4452WAT     H218529   4.393   6.034   1.628
 4452WAT    EPW18530   4.389   5.957   1.641
 4453WAT      O18531   5.371   4.991   1.477
 4453WAT     H118532   5.429   5.054   1.490
 4453WAT     H218533   5.296   5.035   1.468
 4453WAT    EPW18534   5.368   5.007   1.477
 4454WAT      O18535   4.887   5.719   1.237
 4454WAT     H118536   4.940   5.737   1.303
 4454WAT     H218537   4.808   5.734   1.270
 4454WAT    EPW18538   4.883   5.724   1.251
 4455WAT      O18539   4.521   5.307   1.614
 4455WAT     H118540   4.534   5.231   1.656
 4455WAT     H218541   4.553   5.292   1.534
 4455WAT    EPW18542   4.528   5.293   1.609
 4456WAT      O18543   4.818   6.482   0.820
 4456WAT     H118544   4.831   6.565   0.844
 4456WAT     H218545   4.835   6.482   0.735
 4456WAT    EPW18546   4.822   6.494   0.811
 4457WAT      O18547   5.436   4.781   1.297
 4457WAT     H118548   5.408   4.854   1.336
 4457WAT     H218549   5.521   4.779   1.317
 4457WAT    EPW18550   5.445   4.792   1.306
 4458WAT      O18551   4.740   4.916   1.629
 4458WAT     H118552   4.812   4.927   1.580
 4458WAT     H218553   4.698   4.851   1.590
 4458WAT    EPW18554   4.744   4.908   1.616
 4459WAT      O18555   4.630   6.261   1.135
 4459WAT     H118556   4.586   6.318   1.086
 4459WAT     H218557   4.671   6.211   1.077
 4459WAT    EPW18558   4.629   6.262   1.119
 4460WAT      O18559   5.044   5.908   1.863
 4460WAT     H118560   5.125   5.920   1.833
 4460WAT     H218561   4.994   5.927   1.794
 4460WAT    EPW18562   5.048   5.913   1.848
 4461WAT      O18563   5.391   6.200   1.730
 4461WAT     H118564   5.427   6.226   1.806
 4461WAT     H218565   5.438   6.241   1.670
 4461WAT    EPW18566   5.403   6.210   1.733
 4462WAT      O18567   5.680   5.492   0.224
 4462WAT     H118568   5.710   5.556   0.173
 4462WAT     H218569   5.593   5.503   0.222
 4462WAT    EPW18570   5.672   5.503   0.216
 4463WAT      O18571   4.413   5.376   1.189
 4463WAT     H118572   4.439   5.346   1.111
 4463WAT     H218573   4.469   5.339   1.244
 4463WAT    EPW18574   4.425   5.366   1.185
 4464WAT      O18575   5.132   5.339   1.692
 4464WAT     H118576   5.057   5.379   1.709
 4464WAT     H218577   5.178   5.348   1.766
 4464WAT    EPW18578   5.128   5.346   1.705
 4465WAT      O18579   5.179   5.409   1.329
 4465WAT     H118580   5.188   5.463   1.397
 4465WAT     H218581   5.167   5.331   1.365
 4465WAT    EPW18582   5.179   5.406   1.344
 4466WAT      O18583   4.883   6.483   1.729
 4466WAT     H118584   4.906   6.471   1.645
 4466WAT     H218585   4.847   6.406   1.751
 4466WAT    EPW18586   4.881   6.470   1.720
 4467WAT      O18587   5.394   5.354   0.564
 4467WAT     H118588   5.419   5.331   0.645
 4467WAT     H218589   5.467   5.387   0.529
 4467WAT    EPW18590   5.409   5.356   0.571
 4468WAT      O18591   4.713   4.832   1.135
 4468WAT     H118592   4.630   4.811   1.153
 4468WAT     H218593   4.711   4.852   1.051
 4468WAT    EPW18594   4.700   4.832   1.125
 4469WAT      O18595   5.522   4.923   0.722
 4469WAT     H118596   5.449   4.881   0.744
 4469WAT     H218597   5.512   4.938   0.637
 4469WAT    EPW18598   5.510   4.919   0.712
 4470WAT      O18599   5.536   5.760   0.565
 4470WAT     H118600   5.584   5.689   0.551
 4470WAT     H218601   5.454   5.731   0.557
 4470WAT    EPW18602   5.531   5.746   0.562
 4471WAT      O18603   4.879   5.946   1.639
 4471WAT     H118604   4.802   5.949   1.680
 4471WAT     H218605   4.888   6.027   1.607
 4471WAT    EPW18606   4.869   5.959   1.640
 4472WAT      O18607   3.937   4.933   1.832
 4472WAT     H118608   3.918   4.997   1.776
 4472WAT     H218609   3.860   4.899   1.852
 4472WAT    EPW18610   3.923   4.937   1.827
 4473WAT      O18611   4.450   6.598   1.220
 4473WAT     H118612   4.441   6.584   1.306
 4473WAT     H218613   4.420   6.525   1.184
 4473WAT    EPW18614   4.445   6.585   1.227
 4474WAT      O18615   4.264   5.126   0.514
 4474WAT     H118616   4.267   5.095   0.433
 4474WAT     H218617   4.183   5.109   0.540
 4474WAT    EPW18618   4.253   5.119   0.506
 4475WAT      O18619   5.162   5.920   0.819
 4475WAT     H118620   5.158   5.933   0.905
 4475WAT     H218621   5.194   5.839   0.813
 4475WAT    EPW18622   5.166   5.910   0.831
 4476WAT      O18623   4.907   5.848   0.736
 4476WAT     H118624   4.869   5.838   0.814
 4476WAT     H218625   4.988   5.874   0.756
 4476WAT    EPW18626   4.913   5.850   0.750
 4477WAT      O18627   4.916   6.213   1.552
 4477WAT     H118628   4.975   6.215   1.616
 4477WAT     H218629   4.939   6.279   1.500
 4477WAT    EPW18630   4.928   6.223   1.554
 4478WAT      O18631   5.745   5.435   1.739
 4478WAT     H118632   5.659   5.451   1.741
 4478WAT     H218633   5.767   5.453   1.656
 4478WAT    EPW18634   5.736   5.440   1.727
 4479WAT      O18635   5.198   5.575   1.551
 4479WAT     H118636   5.186   5.510   1.608
 4479WAT     H218637   5.271   5.613   1.579
 4479WAT    EPW18638   5.207   5.571   1.564
 4480WAT      O18639   4.085   6.562   1.746
 4480WAT     H118640   4.031   6.495   1.733
 4480WAT     H218641   4.033   6.626   1.775
 4480WAT    EPW18642   4.069   6.561   1.748
 4481WAT      O18643   4.962   5.673   1.988
 4481WAT     H118644   4.988   5.747   1.950
 4481WAT     H218645   4.880   5.690   2.010
 4481WAT    EPW18646   4.954   5.687   1.985
 4482WAT      O18647   5.320   6.517   1.047
 4482WAT     H118648   5.284   6.584   1.091
 4482WAT     H218649   5.389   6.495   1.095
 4482WAT    EPW18650   5.325   6.524   1.060
 4483WAT      O18651   4.951   6.052   1.244
 4483WAT     H118652   4.894   6.003   1.289
 4483WAT     H218653   5.003   6.085   1.305
 4483WAT    EPW18654   4.950   6.049   1.259
 4484WAT      O18655   5.519   6.279   1.964
 4484WAT     H118656   5.602   6.251   1.963
 4484WAT     H218657   5.485   6.238   2.033
 4484WAT    EPW18658   5.526   6.269   1.974
 4485WAT      O18659   4.262   5.397   1.588
 4485WAT     H118660   4.275   5.460   1.528
 4485WAT     H218661   4.341   5.361   1.597
 4485WAT    EPW18662   4.276   5.401   1.581
 4486WAT      O18663   4.062   5.243   1.473
 4486WAT     H118664   4.085   5.249   1.389
 4486WAT     H218665   4.125   5.288   1.514
 4486WAT    EPW18666   4.074   5.251   1.466
 4487WAT      O18667   5.624   5.500   0.500
 4487WAT     H118668   5.648   5.502   0.416
 4487WAT     H218669   5.693   5.462   0.539
 4487WAT    EPW18670   5.638   5.494   0.493
 4488WAT      O18671   4.327   4.927   1.713
 4488WAT     H118672   4.362   4.851   1.688
 4488WAT     H218673   4.287   4.956   1.641
 4488WAT    EPW18674   4.327   4.920   1.699
 4489WAT      O18675   5.000   6.191   0.630
 4489WAT     H118676   4.980   6.272   0.608
 4489WAT     H218677   4.927   6.146   0.614
 4489WAT    EPW18678   4.986   6.196   0.624
 4490WAT      O18679   5.519   5.497   1.466
 4490WAT     H118680   5.509   5.411   1.465
 4490WAT     H218681   5.502   5.519   1.549
 4490WAT    EPW18682   5.515   5.488   1.478
 4491WAT      O18683   3.999   5.747   1.486
 4491WAT     H118684   4.049   5.759   1.415
 4491WAT     H218685   3.976   5.663   1.481
 4491WAT    EPW18686   4.003   5.736   1.475
 4492WAT      O18687   5.093   4.955   1.794
 4492WAT     H118688   5.121   5.023   1.840
 4492WAT     H218689   5.016   4.935   1.830
 4492WAT    EPW18690   5.086   4.962   1.806
 4493WAT      O18691   5.055   5.001   0.876
 4493WAT     H118692   4.968   4.996   0.887
 4493WAT     H218693   5.069   4.950   0.806
 4493WAT    EPW18694   5.044   4.993   0.867
 4494WAT      O18695   4.519   6.129   0.331
 4494WAT     H118696   4.544   6.169   0.404
 4494WAT     H218697   4.432   6.135   0.333
 4494WAT    EPW18698   4.509   6.136   0.342
 4495WAT      O18699   5.370   5.104   1.147
 4495WAT     H118700   5.448   5.070   1.168
 4495WAT     H218701   5.378   5.188   1.169
 4495WAT    EPW18702   5.383   5.111   1.153
 4496WAT      O18703   4.521   5.702   1.567
 4496WAT     H118704   4.481   5.775   1.590
 4496WAT     H218705   4.462   5.661   1.517
 4496WAT    EPW18706   4.506   5.706   1.563
 4497WAT      O18707   5.440   5.536   0.950
 4497WAT     H118708   5.501   5.597   0.967
 4497WAT     H218709   5.380   5.580   0.904
 4497WAT    EPW18710   5.440   5.552   0.946
 4498WAT      O18711   5.445   6.360   0.675
 4498WAT     H118712   5.418   6.282   0.704
 4498WAT     H218713   5.487   6.341   0.601
 4498WAT    EPW18714   5.447   6.346   0.668
 4499WAT      O18715   4.242   6.111   0.351
 4499WAT     H118716   4.239   6.094   0.436
 4499WAT     H218717   4.239   6.032   0.314
 4499WAT    EPW18718   4.241   6.097   0.358
 4500WAT      O18719   4.525   5.853   0.278
 4500WAT     H118720   4.440   5.855   0.260
 4500WAT     H218721   4.545   5.937   0.290
 4500WAT    EPW18722   4.516   5.866   0.277
 4501WAT      O18723   4.479   5.008   1.399
 4501WAT     H118724   4.392   5.009   1.412
 4501WAT     H218725   4.501   4.926   1.418
 4501WAT    EPW18726   4.469   4.996   1.404
 4502WAT      O18727   5.686   4.843   1.420
 4502WAT     H118728   5.658   4.833   1.503
 4502WAT     H218729   5.770   4.820   1.424
 4502WAT    EPW18730   5.694   4.838   1.433
 4503WAT      O18731   4.909   5.024   1.202
 4503WAT     H118732   4.850   4.960   1.193
 4503WAT     H218733   4.985   4.983   1.195
 4503WAT    EPW18734   4.911   5.008   1.199
 4504WAT      O18735   5.206   6.142   1.346
 4504WAT     H118736   5.225   6.213   1.392
 4504WAT     H218737   5.202   6.170   1.263
 4504WAT    EPW18738   5.208   6.157   1.340
 4505WAT      O18739   5.152   6.547   1.802
 4505WAT     H118740   5.080   6.511   1.769
 4505WAT     H218741   5.130   6.630   1.816
 4505WAT    EPW18742   5.138   6.554   1.799
 4506WAT      O18743   4.647   5.513   1.748
 4506WAT     H118744   4.611   5.445   1.708
 4506WAT     H218745   4.616   5.582   1.704
 4506WAT    EPW18746   4.637   5.513   1.736
 4507WAT      O18747   5.624   5.994   1.313
 4507WAT     H118748   5.608   5.909   1.302
 4507WAT     H218749   5.571   6.033   1.255
 4507WAT    EPW18750   5.614   5.987   1.302
 4508WAT      O18751   4.549   6.472   1.738
 4508WAT     H118752   4.532   6.479   1.823
 4508WAT     H218753   4.606   6.405   1.734
 4508WAT    EPW18754   4.555   6.463   1.750
 4509WAT      O18755   5.510   6.324   1.170
 4509WAT     H118756   5.590   6.309   1.139
 4509WAT     H218757   5.467   6.251   1.153
 4509WAT    EPW18758   5.516   6.311   1.163
 4510WAT      O18759   4.209   5.002   1.476
 4510WAT     H118760   4.159   4.934   1.455
 4510WAT     H218761   4.156   5.070   1.465
 4510WAT    EPW18762   4.194   5.002   1.471
 4511WAT      O18763   5.157   4.918   1.121
 4511WAT     H118764   5.221   4.975   1.140
 4511WAT     H218765   5.128   4.945   1.043
 4511WAT    EPW18766   5.162   4.930   1.113
 4512WAT      O18767   4.250   6.365   1.876
 4512WAT     H118768   4.321   6.399   1.913
 4512WAT     H218769   4.211   6.433   1.839
 4512WAT    EPW18770   4.255   6.380   1.876
 4513WAT      O18771   5.095   5.435   0.885
 4513WAT     H118772   5.145   5.365   0.896
 4513WAT     H218773   5.062   5.450   0.964
 4513WAT    EPW18774   5.098   5.427   0.898
 4514WAT      O18775   4.103   5.310   0.825
 4514WAT     H118776   4.061   5.334   0.897
 4514WAT     H218777   4.146   5.238   0.849
 4514WAT    EPW18778   4.103   5.303   0.839
 4515WAT      O18779   4.093   6.147   1.586
 4515WAT     H118780   4.043   6.208   1.624
 4515WAT     H218781   4.172   6.182   1.587
 4515WAT    EPW18782   4.097   6.161   1.592
 4516WAT      O18783   5.297   5.610   0.525
 4516WAT     H118784   5.314   5.525   0.536
 4516WAT     H218785   5.220   5.610   0.486
 4516WAT    EPW18786   5.288   5.597   0.521
 4517WAT      O18787   4.271   6.472   0.491
 4517WAT     H118788   4.226   6.450   0.419
 4517WAT     H218789   4.354   6.475   0.463
 4517WAT    EPW18790   4.276   6.469   0.476
 4518WAT      O18791   4.588   5.650   0.457
 4518WAT     H118792   4.586   5.710   0.393
 4518WAT     H218793   4.673   5.648   0.480
 4518WAT    EPW18794   4.601   5.659   0.451
 4519WAT      O18795   5.513   6.431   0.157
 4519WAT     H118796   5.593   6.441   0.188
 4519WAT     H218797   5.495   6.347   0.174
 4519WAT    EPW18798   5.522   6.420   0.164
 4520WAT      O18799   5.589   5.776   1.833
 4520WAT     H118800   5.659   5.741   1.871
 4520WAT     H218801   5.622   5.821   1.765
 4520WAT    EPW18802   5.604   5.778   1.828
 4521WAT      O18803   5.229   6.121   0.480
 4521WAT     H118804   5.283   6.108   0.547
 4521WAT     H218805   5.152   6.135   0.518
 4521WAT    EPW18806   5.226   6.121   0.496
 4522WAT      O18807   5.640   5.218   1.975
 4522WAT     H118808   5.630   5.301   2.002
 4522WAT     H218809   5.570   5.205   1.925
 4522WAT    EPW18810   5.628   5.228   1.972
 4523WAT      O18811   5.679   5.336   1.238
 4523WAT     H118812   5.596   5.358   1.223
 4523WAT     H218813   5.676   5.249   1.246
 4523WAT    EPW18814   5.666   5.327   1.237
 4524WAT      O18815   4.555   5.074   1.756
 4524WAT     H118816   4.617   5.030   1.712
 4524WAT     H218817   4.483   5.028   1.741
 4524WAT    EPW18818   4.554   5.061   1.747
 4525WAT      O18819   5.359   5.829   2.055
 4525WAT     H118820   5.433   5.858   2.091
 4525WAT     H218821   5.365   5.854   1.972
 4525WAT    EPW18822   5.371   5.837   2.048
 4526WAT      O18823   4.302   6.374   1.124
 4526WAT     H118824   4.291   6.297   1.085
 4526WAT     H218825   4.261   6.430   1.071
 4526WAT    EPW18826   4.295   6.371   1.110
 4527WAT      O18827   4.901   6.011   0.338
 4527WAT     H118828   4.977   5.972   0.319
 4527WAT     H218829   4.907   6.088   0.299
 4527WAT    EPW18830   4.913   6.016   0.330
 4528WAT      O18831   4.065   6.615   1.468
 4528WAT     H118832   4.076   6.597   1.553
 4528WAT     H218833   4.097   6.545   1.427
 4528WAT    EPW18834   4.071   6.602   1.475
 4529WAT      O18835   5.027   2.947   6.370
 4529WAT     H118836   5.019   2.994   6.297
 4529WAT     H218837   5.112   2.931   6.375
 4529WAT    EPW18838   5.038   2.952   6.360
 4530WAT      O18839   5.006   3.626   6.833
 4530WAT     H118840   4.969   3.702   6.855
 4530WAT     H218841   5.059   3.609   6.901
 4530WAT    EPW18842   5.009   3.635   6.847
 4531WAT      O18843   4.022   4.128   6.363
 4531WAT     H118844   3.981   4.135   6.439
 4531WAT     H218845   3.991   4.054   6.329
 4531WAT    EPW18846   4.012   4.118   6.369
 4532WAT      O18847   5.596   4.458   6.167
 4532WAT     H118848   5.659   4.401   6.184
 4532WAT     H218849   5.544   4.415   6.110
 4532WAT    EPW18850   5.597   4.443   6.161
 4533WAT      O18851   3.889   3.379   5.962
 4533WAT     H118852   3.856   3.459   5.953
 4533WAT     H218853   3.837   3.330   5.912
 4533WAT    EPW18854   3.876   3.384   5.954
 4534WAT      O18855   4.281   4.014   5.878
 4534WAT     H118856   4.225   3.979   5.821
 4534WAT     H218857   4.290   3.952   5.939
 4534WAT    EPW18858   4.274   4.000   5.879
 4535WAT      O18859   5.238   3.800   6.474
 4535WAT     H118860   5.245   3.786   6.388
 4535WAT     H218861   5.185   3.735   6.500
 4535WAT    EPW18862   5.231   3.788   6.465
 4536WAT      O18863   4.665   3.149   6.315
 4536WAT     H118864   4.682   3.182   6.235
 4536WAT     H218865   4.632   3.071   6.298
 4536WAT    EPW18866   4.663   3.143   6.301
 4537WAT      O18867   4.147   4.500   5.890
 4537WAT     H118868   4.160   4.528   5.809
 4537WAT     H218869   4.192   4.426   5.894
 4537WAT    EPW18870   4.155   4.493   5.879
 4538WAT      O18871   3.998   4.330   7.039
 4538WAT     H118872   4.031   4.307   7.117
 4538WAT     H218873   3.946   4.262   7.019
 4538WAT    EPW18874   3.995   4.316   7.048
 4539WAT      O18875   4.678   4.154   7.470
 4539WAT     H118876   4.692   4.108   7.543
 4539WAT     H218877   4.601   4.125   7.442
 4539WAT    EPW18878   4.669   4.143   7.477
 4540WAT      O18879   4.145   3.848   6.454
 4540WAT     H118880   4.106   3.856   6.377
 4540WAT     H218881   4.199   3.780   6.444
 4540WAT    EPW18882   4.147   3.839   6.441
 4541WAT      O18883   4.581   3.433   7.016
 4541WAT     H118884   4.656   3.437   6.973
 4541WAT     H218885   4.561   3.348   7.017
 4541WAT    EPW18886   4.589   3.421   7.010
 4542WAT      O18887   4.618   4.398   7.227
 4542WAT     H118888   4.598   4.473   7.186
 4542WAT     H218889   4.704   4.404   7.237
 4542WAT    EPW18890   4.628   4.410   7.223
 4543WAT      O18891   4.297   3.620   6.413
 4543WAT     H118892   4.364   3.598   6.464
 4543WAT     H218893   4.230   3.573   6.444
 4543WAT    EPW18894   4.297   3.610   6.425
 4544WAT      O18895   4.736   4.283   6.660
 4544WAT     H118896   4.761   4.201   6.674
 4544WAT     H218897   4.811   4.326   6.648
 4544WAT    EPW18898   4.751   4.277   6.660
 4545WAT      O18899   4.776   4.183   6.276
 4545WAT     H118900   4.820   4.125   6.323
 4545WAT     H218901   4.807   4.172   6.195
 4545WAT    EPW18902   4.787   4.173   6.271
 4546WAT      O18903   4.953   3.631   7.440
 4546WAT     H118904   4.870   3.636   7.415
 4546WAT     H218905   4.958   3.688   7.506
 4546WAT    EPW18906   4.942   3.640   7.446
 4547WAT      O18907   4.425   3.288   6.332
 4547WAT     H118908   4.447   3.363   6.370
 4547WAT     H218909   4.499   3.243   6.330
 4547WAT    EPW18910   4.439   3.293   6.337
 4548WAT      O18911   5.417   2.898   7.338
 4548WAT     H118912   5.404   2.969   7.289
 4548WAT     H218913   5.339   2.882   7.373
 4548WAT    EPW18914   5.404   2.906   7.336
 4549WAT      O18915   4.767   3.144   6.575
 4549WAT     H118916   4.748   3.228   6.588
 4549WAT     H218917   4.741   3.129   6.493
 4549WAT    EPW18918   4.761   3.154   6.565
 4550WAT      O18919   5.170   3.305   5.782
 4550WAT     H118920   5.120   3.369   5.814
 4550WAT     H218921   5.181   3.251   5.850
 4550WAT    EPW18922   5.164   3.307   5.797
 4551WAT      O18923   3.971   3.593   6.750
 4551WAT     H118924   3.958   3.679   6.751
 4551WAT     H218925   3.906   3.561   6.797
 4551WAT    EPW18926   3.960   3.601   6.757
 4552WAT      O18927   3.918   4.575   6.610
 4552WAT     H118928   3.869   4.628   6.561
 4552WAT     H218929   3.892   4.495   6.586
 4552WAT    EPW18930   3.907   4.571   6.599
 4553WAT      O18931   4.546   4.342   6.270
 4553WAT     H118932   4.523   4.343   6.354
 4553WAT     H218933   4.622   4.299   6.270
 4553WAT    EPW18934   4.554   4.336   6.282
 4554WAT      O18935   5.166   4.569   6.070
 4554WAT     H118936   5.238   4.618   6.075
 4554WAT     H218937   5.194   4.489   6.089
 4554WAT    EPW18938   5.180   4.564   6.074
 4555WAT      O18939   4.967   4.621   6.251
 4555WAT     H118940   4.993   4.694   6.291
 4555WAT     H218941   5.031   4.606   6.193
 4555WAT    EPW18942   4.981   4.629   6.248
 4556WAT      O18943   4.260   3.071   6.793
 4556WAT     H118944   4.221   3.006   6.750
 4556WAT     H218945   4.329   3.033   6.831
 4556WAT    EPW18946   4.265   3.056   6.793
 4557WAT      O18947   4.208   4.420   6.334
 4557WAT     H118948   4.214   4.461   6.411
 4557WAT     H218949   4.230   4.482   6.276
 4557WAT    EPW18950   4.212   4.435   6.336
 4558WAT      O18951   5.710   3.273   6.491
 4558WAT     H118952   5.657   3.342   6.498
 4558WAT     H218953   5.655   3.206   6.484
 4558WAT    EPW18954   5.694   3.274   6.491
 4559WAT      O18955   5.218   4.597   7.057
 4559WAT     H118956   5.287   4.650   7.047
 4559WAT     H218957   5.201   4.571   6.975
 4559WAT    EPW18958   5.226   4.601   7.043
 4560WAT      O18959   4.147   3.283   7.552
 4560WAT     H118960   4.081   3.225   7.552
 4560WAT     H218961   4.212   3.239   7.514
 4560WAT    EPW18962   4.147   3.268   7.546
 4561WAT      O18963   4.199   4.260   6.720
 4561WAT     H118964   4.234   4.214   6.654
 4561WAT     H218965   4.225   4.218   6.791
 4561WAT    EPW18966   4.208   4.247   6.721
 4562WAT      O18967   4.519   4.608   6.549
 4562WAT     H118968   4.601   4.624   6.525
 4562WAT     H218969   4.472   4.657   6.495
 4562WAT    EPW18970   4.524   4.618   6.538
 4563WAT      O18971   4.815   3.063   7.543
 4563WAT     H118972   4.823   2.982   7.512
 4563WAT     H218973   4.745   3.094   7.502
 4563WAT    EPW18974   4.806   3.055   7.532
 4564WAT      O18975   4.885   3.539   6.403
 4564WAT     H118976   4.908   3.489   6.336
 4564WAT     H218977   4.958   3.546   6.450
 4564WAT    EPW18978   4.899   3.533   6.400
 4565WAT      O18979   4.988   3.493   5.904
 4565WAT     H118980   5.001   3.574   5.933
 4565WAT     H218981   4.912   3.499   5.861
 4565WAT    EPW18982   4.979   3.506   5.902
 4566WAT      O18983   5.373   4.758   6.050
 4566WAT     H118984   5.419   4.722   5.985
 4566WAT     H218985   5.430   4.809   6.091
 4566WAT    EPW18986   5.388   4.760   6.047
 4567WAT      O18987   4.463   4.619   7.139
 4567WAT     H118988   4.468   4.643   7.223
 4567WAT     H218989   4.383   4.583   7.133
 4567WAT    EPW18990   4.452   4.618   7.151
 4568WAT      O18991   5.630   3.200   6.905
 4568WAT     H118992   5.694   3.190   6.847
 4568WAT     H218993   5.651   3.144   6.969
 4568WAT    EPW18994   5.642   3.190   6.906
 4569WAT      O18995   3.871   3.277   7.301
 4569WAT     H118996   3.862   3.346   7.355
 4569WAT     H218997   3.937   3.300   7.249
 4569WAT    EPW18998   3.879   3.291   7.301
 4570WAT      O18999   5.077   4.363   7.457
 4570WAT     H119000   5.071   4.289   7.504
 4570WAT     H219001   5.162   4.368   7.439
 4570WAT    EPW19002   5.089   4.353   7.461
 4571WAT      O19003   4.849   4.398   5.854
 4571WAT     H119004   4.813   4.453   5.911
 4571WAT     H219005   4.924   4.435   5.833
 4571WAT    EPW19006   4.854   4.411   5.859
 4572WAT      O19007   5.201   3.128   5.993
 4572WAT     H119008   5.256   3.061   6.002
 4572WAT     H219009   5.214   3.176   6.065
 4572WAT    EPW19010   5.211   3.125   6.005
 4573WAT      O19011   4.211   4.520   7.036
 4573WAT     H119012   4.148   4.460   7.033
 4573WAT     H219013   4.246   4.516   6.956
 4573WAT    EPW19014   4.207   4.511   7.024
 4574WAT      O19015   4.949   3.395   6.167
 4574WAT     H119016   4.882   3.340   6.154
 4574WAT     H219017   4.965   3.427   6.087
 4574WAT    EPW19018   4.942   3.391   6.153
 4575WAT      O19019   4.968   4.643   7.162
 4575WAT     H119020   5.048   4.633   7.127
 4575WAT     H219021   4.916   4.644   7.092
 4575WAT    EPW19022   4.972   4.642   7.146
 4576WAT      O19023   4.963   3.049   6.117
 4576WAT     H119024   4.901   3.029   6.059
 4576WAT     H219025   5.031   3.073   6.068
 4576WAT    EPW19026   4.964   3.050   6.101
 4577WAT      O19027   5.660   4.689   6.436
 4577WAT     H119028   5.620   4.766   6.449
 4577WAT     H219029   5.594   4.633   6.424
 4577WAT    EPW19030   5.644   4.692   6.436
 4578WAT      O19031   4.715   3.413   6.593
 4578WAT     H119032   4.768   3.455   6.537
 4578WAT     H219033   4.750   3.430   6.671
 4578WAT    EPW19034   4.728   3.422   6.596
 4579WAT      O19035   5.389   4.264   6.500
 4579WAT     H119036   5.452   4.204   6.490
 4579WAT     H219037   5.315   4.218   6.491
 4579WAT    EPW19038   5.388   4.248   6.497
 4580WAT      O19039   4.369   4.343   7.341
 4580WAT     H119040   4.446   4.369   7.310
 4580WAT     H219041   4.351   4.402   7.402
 4580WAT    EPW19042   4.378   4.356   7.346
 4581WAT      O19043   4.211   3.015   6.388
 4581WAT     H119044   4.290   2.985   6.364
 4581WAT     H219045   4.158   2.986   6.325
 4581WAT    EPW19046   4.215   3.006   6.375
 4582WAT      O19047   4.523   3.966   6.755
 4582WAT     H119048   4.558   3.952   6.834
 4582WAT     H219049   4.469   3.898   6.744
 4582WAT    EPW19050   4.520   3.954   6.765
 4583WAT      O19051   5.116   3.302   7.156
 4583WAT     H119052   5.103   3.331   7.237
 4583WAT     H219053   5.051   3.245   7.144
 4583WAT    EPW19054   5.104   3.298   7.166
 4584WAT      O19055   4.645   3.957   7.003
 4584WAT     H119056   4.626   4.041   7.017
 4584WAT     H219057   4.614   3.918   7.075
 4584WAT    EPW19058   4.637   3.964   7.016
 4585WAT      O19059   5.284   4.035   7.032
 4585WAT     H119060   5.210   4.003   7.064
 4585WAT     H219061   5.274   4.121   7.038
 4585WAT    EPW19062   5.272   4.043   7.038
 4586WAT      O19063   5.294   2.896   6.463
 4586WAT     H119064   5.296   2.884   6.550
 4586WAT     H219065   5.332   2.824   6.432
 4586WAT    EPW19066   5.300   2.883   6.472
 4587WAT      O19067   5.507   3.385   7.223
 4587WAT     H119068   5.589   3.355   7.224
 4587WAT     H219069   5.492   3.407   7.306
 4587WAT    EPW19070   5.517   3.384   7.235
 4588WAT      O19071   4.251   3.253   6.587
 4588WAT     H119072   4.257   3.198   6.519
 4588WAT     H219073   4.258   3.200   6.656
 4588WAT    EPW19074   4.253   3.237   6.587
 4589WAT      O19075   5.573   4.061   6.033
 4589WAT     H119076   5.575   4.011   6.105
 4589WAT     H219077   5.657   4.068   6.012
 4589WAT    EPW19078   5.586   4.054   6.041
 4590WAT      O19079   4.302   4.060   6.550
 4590WAT     H119080   4.381   4.031   6.573
 4590WAT     H219081   4.257   3.988   6.533
 4590WAT    EPW19082   4.307   4.045   6.551
 4591WAT      O19083   4.183   4.675   6.632
 4591WAT     H119084   4.100   4.652   6.619
 4591WAT     H219085   4.210   4.699   6.552
 4591WAT    EPW19086   4.175   4.675   6.618
 4592WAT      O19087   4.141   3.414   6.879
 4592WAT     H119088   4.222   3.445   6.867
 4592WAT     H219089   4.090   3.474   6.841
 4592WAT    EPW19090   4.146   3.428   6.872
 4593WAT      O19091   5.801   4.491   7.373
 4593WAT     H119092   5.734   4.499   7.317
 4593WAT     H219093   5.764   4.454   7.444
 4593WAT    EPW19094   5.786   4.487   7.375
 4594WAT      O19095   5.384   3.722   5.931
 4594WAT     H119096   5.383   3.804   5.903
 4594WAT     H219097   5.351   3.728   6.012
 4594WAT    EPW19098   5.379   3.735   5.939
 4595WAT      O19099   4.532   4.030   6.288
 4595WAT     H119100   4.607   4.075   6.287
 4595WAT     H219101   4.553   3.956   6.248
 4595WAT    EPW19102   4.546   4.026   6.282
 4596WAT      O19103   5.717   3.199   5.948
 4596WAT     H119104   5.757   3.132   5.909
 4596WAT     H219105   5.689   3.248   5.882
 4596WAT    EPW19106   5.719   3.196   5.933
 4597WAT      O19107   3.946   4.163   6.639
 4597WAT     H119108   3.875   4.198   6.674
 4597WAT     H219109   4.011   4.209   6.674
 4597WAT    EPW19110   3.945   4.175   6.649
 4598WAT      O19111   5.814   3.616   7.166
 4598WAT     H119112   5.836   3.542   7.125
 4598WAT     H219113   5.730   3.627   7.143
 4598WAT    EPW19114   5.805   3.607   7.156
 4599WAT      O19115   3.992   3.895   6.212
 4599WAT     H119116   3.929   3.834   6.210
 4599WAT     H219117   3.992   3.926   6.130
 4599WAT    EPW19118   3.982   3.891   6.199
 4600WAT      O19119   5.570   3.081   6.160
 4600WAT     H119120   5.644   3.042   6.185
 4600WAT     H219121   5.597   3.135   6.097
 4600WAT    EPW19122   5.585   3.084   6.154
 4601WAT      O19123   4.962   4.438   6.604
 4601WAT     H119124   4.915   4.507   6.579
 4601WAT     H219125   4.989   4.403   6.529
 4601WAT    EPW19126   4.959   4.443   6.590
 4602WAT      O19127   3.989   4.327   6.176
 4602WAT     H119128   4.044   4.379   6.219
 4602WAT     H219129   3.977   4.260   6.229
 4602WAT    EPW19130   3.995   4.325   6.190
 4603WAT      O19131   4.329   4.103   6.908
 4603WAT     H119132   4.381   4.144   6.964
 4603WAT     H219133   4.384   4.068   6.850
 4603WAT    EPW19134   4.345   4.104   6.908
 4604WAT      O19135   5.244   3.339   6.606
 4604WAT     H119136   5.278   3.307   6.680
 4604WAT     H219137   5.187   3.278   6.582
 4604WAT    EPW19138   5.240   3.325   6.613
 4605WAT      O19139   3.951   3.997   5.944
 4605WAT     H119140   3.986   3.949   5.879
 4605WAT     H219141   3.961   4.079   5.915
 4605WAT    EPW19142   3.958   4.002   5.930
 4606WAT      O19143   3.997   3.896   6.693
 4606WAT     H119144   4.041   3.869   6.623
 4606WAT     H219145   3.985   3.981   6.678
 4606WAT    EPW19146   4.002   3.905   6.680
 4607WAT      O19147   4.683   3.299   6.077
 4607WAT     H119148   4.664   3.269   5.997
 4607WAT     H219149   4.633   3.370   6.085
 4607WAT    EPW19150   4.673   3.305   6.066
 4608WAT      O19151   5.548   4.512   7.233
 4608WAT     H119152   5.514   4.592   7.237
 4608WAT     H219153   5.544   4.491   7.149
 4608WAT    EPW19154   5.542   4.520   7.221
 4609WAT      O19155   4.488   4.336   6.536
 4609WAT     H119156   4.489   4.422   6.550
 4609WAT     H219157   4.563   4.308   6.572
 4609WAT    EPW19158   4.499   4.344   6.544
 4610WAT      O19159   4.102   3.555   7.479
 4610WAT     H119160   4.117   3.478   7.517
 4610WAT     H219161   4.153   3.554   7.409
 4610WAT    EPW19162   4.111   3.543   7.475
 4611WAT      O19163   4.233   3.541   6.081
 4611WAT     H119164   4.232   3.459   6.111
 4611WAT     H219165   4.207   3.533   5.998
 4611WAT    EPW19166   4.229   3.527   6.073
 4612WAT      O19167   4.322   3.783   6.735
 4612WAT     H119168   4.259   3.808   6.790
 4612WAT     H219169   4.342   3.703   6.762
 4612WAT    EPW19170   4.316   3.775   6.747
 4613WAT      O19171   4.333   3.718   7.073
 4613WAT     H119172   4.358   3.668   7.006
 4613WAT     H219173   4.268   3.765   7.040
 4613WAT    EPW19174   4.327   3.718   7.058
 4614WAT      O19175   5.400   3.527   6.883
 4614WAT     H119176   5.332   3.551   6.933
 4614WAT     H219177   5.394   3.581   6.815
 4614WAT    EPW19178   5.389   3.539   6.881
 4615WAT      O19179   4.758   4.641   6.981
 4615WAT     H119180   4.713   4.573   6.949
 4615WAT     H219181   4.753   4.700   6.917
 4615WAT    EPW19182   4.750   4.640   6.967
 4616WAT      O19183   4.959   3.067   7.230
 4616WAT     H119184   4.984   2.986   7.210
 4616WAT     H219185   4.991   3.080   7.310
 4616WAT    EPW19186   4.967   3.057   7.239
 4617WAT      O19187   5.207   3.284   6.218
 4617WAT     H119188   5.259   3.353   6.229
 4617WAT     H219189   5.127   3.320   6.212
 4617WAT    EPW19190   5.203   3.300   6.219
 4618WAT      O19191   4.053   3.819   7.583
 4618WAT     H119192   4.097   3.873   7.530
 4618WAT     H219193   4.076   3.739   7.554
 4618WAT    EPW19194   4.063   3.815   7.571
 4619WAT      O19195   5.314   4.123   7.472
 4619WAT     H119196   5.343   4.203   7.454
 4619WAT     H219197   5.346   4.074   7.407
 4619WAT    EPW19198   5.323   4.127   7.460
 4620WAT      O19199   4.710   4.446   7.522
 4620WAT     H119200   4.720   4.437   7.608
 4620WAT     H219201   4.698   4.364   7.494
 4620WAT    EPW19202   4.709   4.432   7.531
 4621WAT      O19203   4.807   3.434   6.853
 4621WAT     H119204   4.873   3.492   6.854
 4621WAT     H219205   4.845   3.360   6.877
 4621WAT    EPW19206   4.823   3.432   6.857
 4622WAT      O19207   5.034   3.740   6.038
 4622WAT     H119208   5.013   3.793   5.971
 4622WAT     H219209   4.973   3.757   6.097
 4622WAT    EPW19210   5.022   3.751   6.037
 4623WAT      O19211   5.567   4.051   6.482
 4623WAT     H119212   5.580   3.998   6.549
 4623WAT     H219213   5.556   3.997   6.414
 4623WAT    EPW19214   5.567   4.036   6.482
 4624WAT      O19215   5.160   4.479   6.807
 4624WAT     H119216   5.097   4.462   6.749
 4624WAT     H219217   5.208   4.539   6.768
 4624WAT    EPW19218   5.158   4.485   6.793
 4625WAT      O19219   5.158   4.100   6.786
 4625WAT     H119220   5.085   4.131   6.821
 4625WAT     H219221   5.194   4.054   6.851
 4625WAT    EPW19222   5.152   4.098   6.801
 4626WAT      O19223   4.547   4.606   6.187
 4626WAT     H119224   4.547   4.529   6.227
 4626WAT     H219225   4.619   4.604   6.138
 4626WAT    EPW19226   4.558   4.595   6.186
 4627WAT      O19227   4.492   2.969   5.972
 4627WAT     H119228   4.488   2.945   6.056
 4627WAT     H219229   4.433   3.032   5.965
 4627WAT    EPW19230   4.483   2.975   5.983
 4628WAT      O19231   4.780   4.591   6.044
 4628WAT     H119232   4.840   4.602   6.106
 4628WAT     H219233   4.781   4.667   6.001
 4628WAT    EPW19234   4.789   4.604   6.047
 4629WAT      O19235   5.413   3.964   7.273
 4629WAT     H119236   5.382   3.983   7.194
 4629WAT     H219237   5.499   3.972   7.264
 4629WAT    EPW19238   5.421   3.968   7.260
 4630WAT      O19239   5.615   2.934   7.535
 4630WAT     H119240   5.556   2.922   7.472
 4630WAT     H219241   5.568   2.954   7.605
 4630WAT    EPW19242   5.599   2.935   7.536
 4631WAT      O19243   4.319   3.834   6.091
 4631WAT     H119244   4.281   3.756   6.103
 4631WAT     H219245   4.401   3.820   6.117
 4631WAT    EPW19246   4.326   3.820   6.096
 4632WAT      O19247   5.048   3.937   7.130
 4632WAT     H119248   4.998   3.983   7.184
 4632WAT     H219249   5.075   3.870   7.178
 4632WAT    EPW19250   5.045   3.934   7.145
 4633WAT      O19251   3.932   2.983   6.225
 4633WAT     H119252   3.941   2.927   6.159
 4633WAT     H219253   3.891   2.936   6.286
 4633WAT    EPW19254   3.927   2.968   6.225
 4634WAT      O19255   4.860   3.777   6.260
 4634WAT     H119256   4.881   3.842   6.314
 4634WAT     H219257   4.866   3.706   6.309
 4634WAT    EPW19258   4.864   3.776   6.275
 4635WAT      O19259   5.396   4.253   6.783
 4635WAT     H119260   5.411   4.267   6.698
 4635WAT     H219261   5.320   4.211   6.784
 4635WAT    EPW19262   5.387   4.249   6.771
 4636WAT      O19263   4.321   3.185   5.908
 4636WAT     H119264   4.267   3.184   5.840
 4636WAT     H219265   4.392   3.226   5.877
 4636WAT    EPW19266   4.324   3.191   5.894
 4637WAT      O19267   4.792   4.008   6.678
 4637WAT     H119268   4.709   3.985   6.691
 4637WAT     H219269   4.834   3.971   6.745
 4637WAT    EPW19270   4.786   3.999   6.690
 4638WAT      O19271   4.495   4.585   5.830
 4638WAT     H119272   4.497   4.512   5.878
 4638WAT     H219273   4.493   4.649   5.890
 4638WAT    EPW19274   4.495   4.584   5.846
 4639WAT      O19275   4.149   3.890   6.931
 4639WAT     H119276   4.194   3.965   6.930
 4639WAT     H219277   4.090   3.900   6.868
 4639WAT    EPW19278   4.147   3.903   6.922
 4640WAT      O19279   4.445   3.458   6.590
 4640WAT     H119280   4.529   3.434   6.590
 4640WAT     H219281   4.402   3.382   6.588
 4640WAT    EPW19282   4.451   3.443   6.590
 4641WAT      O19283   5.768   4.620   6.021
 4641WAT     H119284   5.836   4.572   5.993
 4641WAT     H219285   5.722   4.563   6.069
 4641WAT    EPW19286   5.771   4.604   6.024
 4642WAT      O19287   4.002   3.520   6.263
 4642WAT     H119288   4.027   3.510   6.346
 4642WAT     H219289   4.075   3.544   6.222
 4642WAT    EPW19290   4.016   3.522   6.269
 4643WAT      O19291   5.528   3.903   6.962
 4643WAT     H119292   5.533   3.833   7.013
 4643WAT     H219293   5.447   3.932   6.974
 4643WAT    EPW19294   5.517   3.897   6.971
 4644WAT      O19295   4.525   3.667   5.840
 4644WAT     H119296   4.510   3.621   5.913
 4644WAT     H219297   4.448   3.664   5.799
 4644WAT    EPW19298   4.511   3.660   5.845
 4645WAT      O19299   4.157   4.005   7.390
 4645WAT     H119300   4.125   3.956   7.325
 4645WAT     H219301   4.127   4.085   7.373
 4645WAT    EPW19302   4.147   4.009   7.378
 4646WAT      O19303   5.619   3.876   6.699
 4646WAT     H119304   5.594   3.890   6.781
 4646WAT     H219305   5.706   3.872   6.704
 4646WAT    EPW19306   5.629   3.877   6.712
 4647WAT      O19307   4.519   3.536   6.086
 4647WAT     H119308   4.547   3.611   6.123
 4647WAT     H219309   4.433   3.537   6.101
 4647WAT    EPW19310   4.510   3.547   6.094
 4648WAT      O19311   5.377   3.278   7.487
 4648WAT     H119312   5.316   3.249   7.542
 4648WAT     H219313   5.367   3.227   7.416
 4648WAT    EPW19314   5.366   3.266   7.484
 4649WAT      O19315   3.935   3.205   6.708
 4649WAT     H119316   3.919   3.232   6.627
 4649WAT     H219317   4.020   3.223   6.719
 4649WAT    EPW19318   3.945   3.212   6.698
 4650WAT      O19319   5.768   4.385   6.785
 4650WAT     H119320   5.797   4.438   6.722
 4650WAT     H219321   5.835   4.384   6.842
 4650WAT    EPW19322   5.782   4.392   6.784
 4651WAT      O19323   5.278   3.733   7.533
 4651WAT     H119324   5.326   3.794   7.573
 4651WAT     H219325   5.199   3.743   7.568
 4651WAT    EPW19326   5.274   3.744   7.544
 4652WAT      O19327   5.533   3.665   7.420
 4652WAT     H119328   5.574   3.737   7.447
 4652WAT     H219329   5.454   3.672   7.456
 4652WAT    EPW19330   5.528   3.677   7.429
 4653WAT      O19331   5.444   4.302   6.001
 4653WAT     H119332   5.482   4.225   6.015
 4653WAT     H219333   5.367   4.295   6.042
 4653WAT    EPW19334   5.438   4.290   6.009
 4654WAT      O19335   5.483   3.449   6.513
 4654WAT     H119336   5.416   3.402   6.541
 4654WAT     H219337   5.476   3.524   6.558
 4654WAT    EPW19338   5.472   3.453   6.523
 4655WAT      O19339   5.687   4.023   7.260
 4655WAT     H119340   5.754   3.974   7.235
 4655WAT     H219341   5.678   4.080   7.194
 4655WAT    EPW19342   5.695   4.024   7.246
 4656WAT      O19343   5.139   4.100   5.931
 4656WAT     H119344   5.216   4.060   5.920
 4656WAT     H219345   5.108   4.108   5.850
 4656WAT    EPW19346   5.146   4.095   5.918
 4657WAT      O19347   4.559   4.220   7.027
 4657WAT     H119348   4.573   4.263   7.101
 4657WAT     H219349   4.575   4.280   6.965
 4657WAT    EPW19350   4.564   4.235   7.029
 4658WAT      O19351   4.426   4.072   7.369
 4658WAT     H119352   4.348   4.038   7.389
 4658WAT     H219353   4.409   4.157   7.355
 4658WAT    EPW19354   4.412   4.080   7.370
 4659WAT      O19355   5.350   3.155   7.210
 4659WAT     H119356   5.405   3.222   7.198
 4659WAT     H219357   5.272   3.187   7.188
 4659WAT    EPW19358   5.347   3.169   7.205
 4660WAT      O19359   4.891   3.870   6.909
 4660WAT     H119360   4.946   3.895   6.971
 4660WAT     H219361   4.813   3.885   6.943
 4660WAT    EPW19362   4.888   3.876   6.923
 4661WAT      O19363   4.542   3.425   7.296
 4661WAT     H119364   4.563   3.346   7.326
 4661WAT     H219365   4.564   3.422   7.212
 4661WAT    EPW19366   4.548   3.413   7.288
 4662WAT      O19367   4.796   4.642   6.489
 4662WAT     H119368   4.797   4.728   6.504
 4662WAT     H219369   4.829   4.636   6.408
 4662WAT    EPW19370   4.801   4.654   6.479
 4663WAT      O19371   5.429   2.946   7.020
 4663WAT     H119372   5.394   3.018   7.055
 4663WAT     H219373   5.513   2.952   7.041
 4663WAT    EPW19374   5.436   2.958   7.028
 4664WAT      O19375   4.689   2.995   7.175
 4664WAT     H119376   4.770   3.027   7.182
 4664WAT     H219377   4.699   2.926   7.122
 4664WAT    EPW19378   4.703   2.989   7.168
 4665WAT      O19379   4.606   4.432   6.856
 4665WAT     H119380   4.530   4.453   6.818
 4665WAT     H219381   4.650   4.392   6.792
 4665WAT    EPW19382   4.601   4.429   6.841
 4666WAT      O19383   5.047   4.081   7.525
 4666WAT     H119384   5.132   4.086   7.506
 4666WAT     H219385   5.008   4.085   7.447
 4666WAT    EPW19386   5.054   4.082   7.511
 4667WAT      O19387   5.359   4.398   7.413
 4667WAT     H119388   5.358   4.467   7.466
 4667WAT     H219389   5.415   4.421   7.350
 4667WAT    EPW19390   5.367   4.411   7.412
 4668WAT      O19391   5.642   3.618   5.904
 4668WAT     H119392   5.686   3.677   5.857
 4668WAT     H219393   5.560   3.648   5.902
 4668WAT    EPW19394   5.637   3.631   5.897
 4669WAT      O19395   4.683   3.888   5.893
 4669WAT     H119396   4.631   3.826   5.859
 4669WAT     H219397   4.644   3.962   5.870
 4669WAT    EPW19398   4.670   3.890   5.884
 4670WAT      O19399   4.392   3.538   6.848
 4670WAT     H119400   4.413   3.509   6.769
 4670WAT     H219401   4.453   3.503   6.900
 4670WAT    EPW19402   4.404   3.529   6.844
 4671WAT      O19403   5.107   3.400   7.418
 4671WAT     H119404   5.053   3.467   7.431
 4671WAT     H219405   5.185   3.432   7.440
 4671WAT    EPW19406   5.111   3.415   7.423
 4672WAT      O19407   5.173   3.557   7.044
 4672WAT     H119408   5.173   3.606   7.116
 4672WAT     H219409   5.156   3.477   7.074
 4672WAT    EPW19410   5.171   3.552   7.059
 4673WAT      O19411   4.878   4.659   7.434
 4673WAT     H119412   4.898   4.649   7.349
 4673WAT     H219413   4.843   4.583   7.456
 4673WAT    EPW19414   4.876   4.647   7.425
 4674WAT      O19415   5.379   3.506   6.263
 4674WAT     H119416   5.404   3.485   6.344
 4674WAT     H219417   5.453   3.534   6.225
 4674WAT    EPW19418   5.394   3.507   6.269
 4675WAT      O19419   4.718   3.005   6.815
 4675WAT     H119420   4.634   2.985   6.823
 4675WAT     H219421   4.725   3.036   6.733
 4675WAT    EPW19422   4.707   3.006   6.804
 4676WAT      O19423   5.511   3.077   6.434
 4676WAT     H119424   5.434   3.038   6.446
 4676WAT     H219425   5.512   3.094   6.349
 4676WAT    EPW19426   5.500   3.074   6.423
 4677WAT      O19427   5.521   3.891   6.251
 4677WAT     H119428   5.563   3.815   6.238
 4677WAT     H219429   5.437   3.871   6.239
 4677WAT    EPW19430   5.515   3.877   6.248
 4678WAT      O19431   4.894   4.111   7.290
 4678WAT     H119432   4.821   4.109   7.337
 4678WAT     H219433   4.902   4.195   7.268
 4678WAT    EPW19434   4.885   4.123   7.294
 4679WAT      O19435   3.955   3.081   7.481
 4679WAT     H119436   3.925   3.142   7.426
 4679WAT     H219437   3.882   3.041   7.509
 4679WAT    EPW19438   3.939   3.084   7.477
 4680WAT      O19439   4.455   4.745   6.883
 4680WAT     H119440   4.461   4.715   6.965
 4680WAT     H219441   4.438   4.674   6.836
 4680WAT    EPW19442   4.454   4.730   6.888
 4681WAT      O19443   4.214   3.276   6.152
 4681WAT     H119444   4.247   3.242   6.079
 4681WAT     H219445   4.278   3.266   6.210
 4681WAT    EPW19446   4.228   3.269   6.150
 4682WAT      O19447   5.172   4.071   6.510
 4682WAT     H119448   5.164   4.080   6.596
 4682WAT     H219449   5.203   3.990   6.500
 4682WAT    EPW19450   5.175   4.060   6.521
 4683WAT      O19451   4.914   3.999   6.428
 4683WAT     H119452   4.875   3.996   6.506
 4683WAT     H219453   4.995   4.025   6.446
 4683WAT    EPW19454   4.920   4.002   6.442
 4684WAT      O19455   4.902   4.388   7.249
 4684WAT     H119456   4.953   4.386   7.319
 4684WAT     H219457   4.928   4.459   7.206
 4684WAT    EPW19458   4.913   4.398   7.253
 4685WAT      O19459   5.732   3.468   7.467
 4685WAT     H119460   5.677   3.535   7.453
 4685WAT     H219461   5.810   3.506   7.469
 4685WAT    EPW19462   5.735   3.484   7.465
 4686WAT      O19463   5.151   3.723   7.271
 4686WAT     H119464   5.085   3.692   7.320
 4686WAT     H219465   5.213   3.742   7.330
 4686WAT    EPW19466   5.150   3.721   7.287
 4687WAT      O19467   4.085   4.714   7.411
 4687WAT     H119468   4.039   4.640   7.413
 4687WAT     H219469   4.025   4.777   7.421
 4687WAT    EPW19470   4.070   4.712   7.413
 4688WAT      O19471   5.025   3.824   7.631
 4688WAT     H119472   5.029   3.906   7.601
 4688WAT     H219473   5.012   3.833   7.716
 4688WAT    EPW19474   5.023   3.837   7.639
 4689WAT      O19475   5.300   4.720   6.753
 4689WAT     H119476   5.242   4.780   6.777
 4689WAT     H219477   5.364   4.729   6.812
 4689WAT    EPW19478   5.301   4.730   6.765
 4690WAT      O19479   4.953   4.207   6.944
 4690WAT     H119480   4.892   4.183   7.002
 4690WAT     H219481   5.013   4.248   6.992
 4690WAT    EPW19482   4.952   4.209   6.960
 4691WAT      O19483   4.278   3.519   7.261
 4691WAT     H119484   4.295   3.586   7.208
 4691WAT     H219485   4.357   3.487   7.281
 4691WAT    EPW19486   4.292   3.524   7.256
 4692WAT      O19487   4.084   3.360   7.141
 4692WAT     H119488   4.098   3.373   7.056
 4692WAT     H219489   4.146   3.409   7.179
 4692WAT    EPW19490   4.095   3.370   7.134
 4693WAT      O19491   5.612   3.637   6.182
 4693WAT     H119492   5.630   3.635   6.097
 4693WAT     H219493   5.686   3.610   6.219
 4693WAT    EPW19494   5.626   3.633   6.175
 4694WAT      O19495   4.315   3.095   7.409
 4694WAT     H119496   4.275   3.020   7.428
 4694WAT     H219497   4.293   3.110   7.326
 4694WAT    EPW19498   4.306   3.086   7.400
 4695WAT      O19499   5.000   4.352   6.337
 4695WAT     H119500   4.985   4.432   6.307
 4695WAT     H219501   4.927   4.308   6.317
 4695WAT    EPW19502   4.987   4.357   6.329
 4696WAT      O19503   5.538   3.672   7.138
 4696WAT     H119504   5.514   3.589   7.126
 4696WAT     H219505   5.530   3.683   7.224
 4696WAT    EPW19506   5.533   3.661   7.149
 4697WAT      O19507   4.032   3.866   7.187
 4697WAT     H119508   4.056   3.879   7.105
 4697WAT     H219509   4.005   3.783   7.188
 4697WAT    EPW19510   4.032   3.856   7.175
 4698WAT      O19511   4.124   3.444   5.829
 4698WAT     H119512   4.050   3.425   5.869
 4698WAT     H219513   4.132   3.381   5.769
 4698WAT    EPW19514   4.114   3.432   5.826
 4699WAT      O19515   5.074   3.132   7.483
 4699WAT     H119516   5.076   3.218   7.469
 4699WAT     H219517   4.995   3.120   7.519
 4699WAT    EPW19518   5.062   3.143   7.486
 4700WAT      O19519   5.046   3.138   6.576
 4700WAT     H119520   4.960   3.149   6.583
 4700WAT     H219521   5.054   3.082   6.510
 4700WAT    EPW19522   5.034   3.132   6.567
 4701WAT      O19523   4.479   4.344   5.988
 4701WAT     H119524   4.512   4.347   6.069
 4701WAT     H219525   4.398   4.315   6.000
 4701WAT    EPW19526   4.472   4.340   6.002
 4702WAT      O19527   5.359   3.254   6.846
 4702WAT     H119528   5.440   3.222   6.856
 4702WAT     H219529   5.367   3.338   6.868
 4702WAT    EPW19530   5.372   3.262   6.851
 4703WAT      O19531   4.530   3.848   7.228
 4703WAT     H119532   4.493   3.914   7.271
 4703WAT     H219533   4.463   3.809   7.189
 4703WAT    EPW19534   4.515   3.852   7.229
 4704WAT      O19535   5.425   3.685   6.650
 4704WAT     H119536   5.490   3.742   6.662
 4704WAT     H219537   5.370   3.727   6.598
 4704WAT    EPW19538   5.427   3.700   6.644
 4705WAT      O19539   5.438   4.521   6.387
 4705WAT     H119540   5.421   4.444   6.425
 4705WAT     H219541   5.478   4.499   6.313
 4705WAT    EPW19542   5.441   4.506   6.382
 4706WAT      O19543   4.225   4.240   6.036
 4706WAT     H119544   4.141   4.258   6.052
 4706WAT     H219545   4.221   4.173   5.981
 4706WAT    EPW19546   4.212   4.233   6.031
 4707WAT      O19547   4.537   4.115   5.818
 4707WAT     H119548   4.456   4.085   5.826
 4707WAT     H219549   4.537   4.189   5.864
 4707WAT    EPW19550   4.525   4.121   5.826
 4708WAT      O19551   4.506   3.175   7.049
 4708WAT     H119552   4.425   3.150   7.071
 4708WAT     H219553   4.555   3.108   7.074
 4708WAT    EPW19554   4.501   3.162   7.056
 4709WAT      O19555   5.689   3.032   7.120
 4709WAT     H119556   5.705   3.095   7.178
 4709WAT     H219557   5.766   2.990   7.114
 4709WAT    EPW19558   5.703   3.035   7.128
 4710WAT      O19559   4.904   3.186   6.925
 4710WAT     H119560   4.843   3.129   6.899
 4710WAT     H219561   4.979   3.147   6.905
 4710WAT    EPW19562   4.906   3.172   6.918
 4711WAT      O19563   5.204   4.307   7.034
 4711WAT     H119564   5.222   4.376   7.084
 4711WAT     H219565   5.205   4.340   6.953
 4711WAT    EPW19566   5.207   4.322   7.029
 4712WAT      O19567   5.173   4.713   7.466
 4712WAT     H119568   5.100   4.666   7.471
 4712WAT     H219569   5.146   4.795   7.479
 4712WAT    EPW19570   5.158   4.718   7.469
 4713WAT      O19571   4.691   3.656   7.360
 4713WAT     H119572   4.644   3.583   7.349
 4713WAT     H219573   4.643   3.717   7.321
 4713WAT    EPW19574   4.677   3.654   7.353
 4714WAT      O19575   4.764   2.982   5.919
 4714WAT     H119576   4.771   3.002   5.835
 4714WAT     H219577   4.679   2.990   5.936
 4714WAT    EPW19578   4.753   2.986   5.909
 4715WAT      O19579   5.655   4.157   7.018
 4715WAT     H119580   5.620   4.086   6.982
 4715WAT     H219581   5.604   4.222   6.988
 4715WAT    EPW19582   5.642   4.156   7.008
 4716WAT      O19583   4.538   4.654   7.416
 4716WAT     H119584   4.580   4.728   7.433
 4716WAT     H219585   4.594   4.592   7.443
 4716WAT    EPW19586   4.553   4.656   7.422
 4717WAT      O19587   5.543   4.417   6.956
 4717WAT     H119588   5.612   4.424   6.903
 4717WAT     H219589   5.483   4.379   6.905
 4717WAT    EPW19590   5.544   4.412   6.940
 4718WAT      O19591   4.244   3.129   7.146
 4718WAT     H119592   4.192   3.064   7.120
 4718WAT     H219593   4.195   3.200   7.136
 4718WAT    EPW19594   4.229   3.130   7.141
 4719WAT      O19595   5.142   3.075   6.829
 4719WAT     H119596   5.206   3.132   6.842
 4719WAT     H219597   5.113   3.094   6.749
 4719WAT    EPW19598   5.147   3.086   6.819
 4720WAT      O19599   4.299   4.551   7.511
 4720WAT     H119600   4.372   4.596   7.495
 4720WAT     H219601   4.235   4.606   7.489
 4720WAT    EPW19602   4.300   4.566   7.505
 4721WAT      O19603   5.100   3.578   6.574
 4721WAT     H119604   5.149   3.506   6.584
 4721WAT     H219605   5.071   3.595   6.654
 4721WAT    EPW19606   5.103   3.570   6.587
 4722WAT      O19607   4.090   3.475   6.522
 4722WAT     H119608   4.050   3.506   6.593
 4722WAT     H219609   4.132   3.404   6.552
 4722WAT    EPW19610   4.090   3.469   6.537
 4723WAT      O19611   4.103   4.272   7.290
 4723WAT     H119612   4.058   4.333   7.334
 4723WAT     H219613   4.186   4.299   7.298
 4723WAT    EPW19614   4.109   4.285   7.298
 4724WAT      O19615   5.270   3.751   6.194
 4724WAT     H119616   5.289   3.668   6.213
 4724WAT     H219617   5.194   3.746   6.152
 4724WAT    EPW19618   5.261   3.738   6.191
 4725WAT      O19619   4.271   4.608   6.144
 4725WAT     H119620   4.236   4.596   6.065
 4725WAT     H219621   4.357   4.602   6.129
 4725WAT    EPW19622   4.279   4.606   6.130
 4726WAT      O19623   4.608   3.801   6.146
 4726WAT     H119624   4.632   3.832   6.068
 4726WAT     H219625   4.683   3.789   6.188
 4726WAT    EPW19626   4.622   3.804   6.140
 4727WAT      O19627   5.540   4.646   5.862
 4727WAT     H119628   5.616   4.634   5.904
 4727WAT     H219629   5.528   4.570   5.819
 4727WAT    EPW19630   5.549   4.633   5.862
 4728WAT      O19631   5.662   3.894   7.511
 4728WAT     H119632   5.742   3.872   7.537
 4728WAT     H219633   5.677   3.946   7.442
 4728WAT    EPW19634   5.676   3.899   7.505
 4729WAT      O19635   5.197   4.297   6.128
 4729WAT     H119636   5.147   4.292   6.200
 4729WAT     H219637   5.163   4.237   6.075
 4729WAT    EPW19638   5.184   4.287   6.131
 4730WAT      O19639   5.607   3.301   7.661
 4730WAT     H119640   5.659   3.356   7.617
 4730WAT     H219641   5.536   3.294   7.610
 4730WAT    EPW19642   5.604   3.308   7.647
 4731WAT      O19643   5.675   3.478   6.914
 4731WAT     H119644   5.592   3.504   6.906
 4731WAT     H219645   5.670   3.391   6.914
 4731WAT    EPW19646   5.662   3.469   6.913
 4732WAT      O19647   4.591   3.152   7.387
 4732WAT     H119648   4.609   3.110   7.313
 4732WAT     H219649   4.507   3.132   7.402
 4732WAT    EPW19650   4.581   3.143   7.378
 4733WAT      O19651   5.423   3.934   7.651
 4733WAT     H119652   5.505   3.927   7.621
 4733WAT     H219653   5.392   4.004   7.609
 4733WAT    EPW19654   5.431   3.944   7.640
 4734WAT      O19655   4.331   4.497   6.784
 4734WAT     H119656   4.298   4.420   6.759
 4734WAT     H219657   4.290   4.554   6.732
 4734WAT    EPW19658   4.320   4.494   6.772
 4735WAT      O19659   4.880   4.172   6.023
 4735WAT     H119660   4.954   4.135   5.997
 4735WAT     H219661   4.867   4.236   5.965
 4735WAT    EPW19662   4.889   4.176   6.011
 4736WAT      O19663   4.091   4.755   7.133
 4736WAT     H119664   4.095   4.732   7.217
 4736WAT     H219665   4.122   4.684   7.092
 4736WAT    EPW19666   4.096   4.741   7.140
 4737WAT      O19667   4.975   3.623   4.912
 4737WAT     H119668   4.935   3.696   4.938
 4737WAT     H219669   5.026   3.602   4.979
 4737WAT    EPW19670   4.977   3.630   4.925
 4738WAT      O19671   5.591   4.476   4.235
 4738WAT     H119672   5.648   4.413   4.255
 4738WAT     H219673   5.532   4.436   4.185
 4738WAT    EPW19674   5.591   4.461   4.230
 4739WAT      O19675   5.255   3.782   4.582
 4739WAT     H119676   5.262   3.770   4.496
 4739WAT     H219677   5.199   3.720   4.607
 4739WAT    EPW19678   5.248   3.771   4.573
 4740WAT      O19679   4.530   3.072   4.438
 4740WAT     H119680   4.491   3.147   4.459
 4740WAT     H219681   4.464   3.016   4.428
 4740WAT    EPW19682   4.515   3.075   4.440
 4741WAT      O19683   4.222   4.471   3.957
 4741WAT     H119684   4.168   4.403   3.955
 4741WAT     H219685   4.171   4.537   3.980
 4741WAT    EPW19686   4.206   4.471   3.960
 4742WAT      O19687   4.637   4.141   5.553
 4742WAT     H119688   4.609   4.130   5.635
 4742WAT     H219689   4.563   4.143   5.506
 4742WAT    EPW19690   4.622   4.140   5.558
 4743WAT      O19691   4.559   3.339   4.968
 4743WAT     H119692   4.635   3.368   4.935
 4743WAT     H219693   4.519   3.303   4.899
 4743WAT    EPW19694   4.564   3.338   4.953
 4744WAT      O19695   4.631   4.596   5.384
 4744WAT     H119696   4.625   4.567   5.302
 4744WAT     H219697   4.652   4.525   5.430
 4744WAT    EPW19698   4.633   4.581   5.379
 4745WAT      O19699   4.845   4.199   4.857
 4745WAT     H119700   4.805   4.136   4.811
 4745WAT     H219701   4.855   4.264   4.799
 4745WAT    EPW19702   4.840   4.199   4.842
 4746WAT      O19703   4.695   4.142   4.419
 4746WAT     H119704   4.751   4.081   4.449
 4746WAT     H219705   4.618   4.112   4.445
 4746WAT    EPW19706   4.692   4.128   4.428
 4747WAT      O19707   4.946   3.671   5.578
 4747WAT     H119708   4.866   3.658   5.544
 4747WAT     H219709   4.932   3.728   5.642
 4747WAT    EPW19710   4.932   3.677   5.582
 4748WAT      O19711   5.409   2.903   5.436
 4748WAT     H119712   5.384   2.969   5.385
 4748WAT     H219713   5.335   2.880   5.477
 4748WAT    EPW19714   5.394   2.909   5.435
 4749WAT      O19715   4.700   3.056   4.657
 4749WAT     H119716   4.748   3.128   4.645
 4749WAT     H219717   4.642   3.059   4.592
 4749WAT    EPW19718   4.699   3.067   4.646
 4750WAT      O19719   5.110   3.276   3.922
 4750WAT     H119720   5.060   3.346   3.934
 4750WAT     H219721   5.106   3.234   3.999
 4750WAT    EPW19722   5.102   3.280   3.935
 4751WAT      O19723   5.190   4.564   4.167
 4751WAT     H119724   5.248   4.630   4.168
 4751WAT     H219725   5.133   4.586   4.229
 4751WAT    EPW19726   5.190   4.577   4.176
 4752WAT      O19727   4.977   4.566   4.359
 4752WAT     H119728   4.980   4.636   4.410
 4752WAT     H219729   4.905   4.578   4.311
 4752WAT    EPW19730   4.967   4.578   4.359
 4753WAT      O19731   4.566   3.278   5.802
 4753WAT     H119732   4.550   3.244   5.723
 4753WAT     H219733   4.618   3.345   5.784
 4753WAT    EPW19734   4.571   3.283   5.788
 4754WAT      O19735   5.736   3.279   4.586
 4754WAT     H119736   5.688   3.351   4.589
 4754WAT     H219737   5.677   3.216   4.572
 4754WAT    EPW19738   5.720   3.280   4.584
 4755WAT      O19739   5.148   4.575   5.137
 4755WAT     H119740   5.216   4.630   5.136
 4755WAT     H219741   5.144   4.546   5.055
 4755WAT    EPW19742   5.158   4.579   5.125
 4756WAT      O19743   4.134   3.218   5.660
 4756WAT     H119744   4.053   3.191   5.641
 4756WAT     H219745   4.173   3.221   5.582
 4756WAT    EPW19746   4.127   3.215   5.646
 4757WAT      O19747   4.789   3.032   5.639
 4757WAT     H119748   4.815   2.954   5.611
 4757WAT     H219749   4.775   3.077   5.566
 4757WAT    EPW19750   4.791   3.027   5.624
 4758WAT      O19751   4.887   3.508   4.476
 4758WAT     H119752   4.912   3.474   4.399
 4758WAT     H219753   4.963   3.520   4.518
 4758WAT    EPW19754   4.902   3.504   4.471
 4759WAT      O19755   4.940   3.505   3.945
 4759WAT     H119756   4.954   3.589   3.925
 4759WAT     H219757   4.867   3.486   3.901
 4759WAT    EPW19758   4.931   3.515   3.936
 4760WAT      O19759   5.389   4.765   4.116
 4760WAT     H119760   5.438   4.740   4.049
 4760WAT     H219761   5.444   4.811   4.166
 4760WAT    EPW19762   5.405   4.768   4.114
 4761WAT      O19763   5.633   3.202   5.033
 4761WAT     H119764   5.696   3.202   4.973
 4761WAT     H219765   5.655   3.135   5.085
 4761WAT    EPW19766   5.646   3.192   5.032
 4762WAT      O19767   5.100   4.359   5.590
 4762WAT     H119768   5.100   4.416   5.656
 4762WAT     H219769   5.184   4.359   5.564
 4762WAT    EPW19770   5.113   4.367   5.596
 4763WAT      O19771   4.890   4.356   4.050
 4763WAT     H119772   4.837   4.410   4.094
 4763WAT     H219773   4.843   4.334   3.980
 4763WAT    EPW19774   4.875   4.360   4.046
 4764WAT      O19775   5.124   3.111   4.152
 4764WAT     H119776   5.188   3.052   4.150
 4764WAT     H219777   5.143   3.160   4.222
 4764WAT    EPW19778   5.136   3.110   4.162
 4765WAT      O19779   4.940   3.404   4.216
 4765WAT     H119780   4.870   3.355   4.201
 4765WAT     H219781   4.947   3.454   4.145
 4765WAT    EPW19782   4.931   3.404   4.204
 4766WAT      O19783   4.918   4.643   5.259
 4766WAT     H119784   4.990   4.623   5.214
 4766WAT     H219785   4.853   4.620   5.205
 4766WAT    EPW19786   4.919   4.637   5.244
 4767WAT      O19787   4.851   3.031   4.207
 4767WAT     H119788   4.807   3.103   4.187
 4767WAT     H219789   4.934   3.051   4.185
 4767WAT    EPW19790   4.857   3.045   4.201
 4768WAT      O19791   5.662   4.677   4.529
 4768WAT     H119792   5.617   4.751   4.541
 4768WAT     H219793   5.600   4.617   4.518
 4768WAT    EPW19794   5.646   4.679   4.529
 4769WAT      O19795   4.850   3.291   4.649
 4769WAT     H119796   4.841   3.356   4.590
 4769WAT     H219797   4.835   3.331   4.725
 4769WAT    EPW19798   4.847   3.307   4.651
 4770WAT      O19799   4.255   4.366   5.442
 4770WAT     H119800   4.208   4.388   5.371
 4770WAT     H219801   4.231   4.425   5.501
 4770WAT    EPW19802   4.244   4.378   5.440
 4771WAT      O19803   5.118   3.298   5.277
 4771WAT     H119804   5.120   3.344   5.351
 4771WAT     H219805   5.048   3.247   5.287
 4771WAT    EPW19806   5.108   3.297   5.290
 4772WAT      O19807   4.658   3.927   5.201
 4772WAT     H119808   4.590   3.950   5.150
 4772WAT     H219809   4.620   3.883   5.266
 4772WAT    EPW19810   4.642   3.924   5.203
 4773WAT      O19811   5.250   4.001   5.115
 4773WAT     H119812   5.190   3.979   5.175
 4773WAT     H219813   5.258   4.087   5.124
 4773WAT    EPW19814   5.242   4.010   5.125
 4774WAT      O19815   5.349   2.905   4.567
 4774WAT     H119816   5.336   2.893   4.652
 4774WAT     H219817   5.362   2.824   4.536
 4774WAT    EPW19818   5.349   2.891   4.575
 4775WAT      O19819   3.988   4.251   5.828
 4775WAT     H119820   3.995   4.337   5.842
 4775WAT     H219821   3.975   4.245   5.742
 4775WAT    EPW19822   3.987   4.263   5.817
 4776WAT      O19823   5.502   3.365   5.376
 4776WAT     H119824   5.588   3.352   5.386
 4776WAT     H219825   5.470   3.353   5.455
 4776WAT    EPW19826   5.510   3.361   5.389
 4777WAT      O19827   5.531   4.077   4.095
 4777WAT     H119828   5.519   4.030   4.168
 4777WAT     H219829   5.618   4.081   4.088
 4777WAT    EPW19830   5.542   4.071   4.105
 4778WAT      O19831   5.825   4.482   5.501
 4778WAT     H119832   5.754   4.492   5.452
 4778WAT     H219833   5.796   4.438   5.571
 4778WAT    EPW19834   5.810   4.477   5.504
 4779WAT      O19835   5.338   3.720   4.033
 4779WAT     H119836   5.338   3.801   4.000
 4779WAT     H219837   5.299   3.730   4.110
 4779WAT    EPW19838   5.332   3.733   4.040
 4780WAT      O19839   5.747   3.221   3.962
 4780WAT     H119840   5.709   3.177   4.027
 4780WAT     H219841   5.776   3.294   4.000
 4780WAT    EPW19842   5.746   3.225   3.977
 4781WAT      O19843   4.732   3.502   5.762
 4781WAT     H119844   4.671   3.556   5.792
 4781WAT     H219845   4.735   3.519   5.676
 4781WAT    EPW19846   4.724   3.512   5.754
 4782WAT      O19847   5.808   3.618   5.264
 4782WAT     H119848   5.870   3.557   5.256
 4782WAT     H219849   5.743   3.588   5.214
 4782WAT    EPW19850   5.808   3.604   5.256
 4783WAT      O19851   5.650   3.148   4.225
 4783WAT     H119852   5.697   3.079   4.249
 4783WAT     H219853   5.697   3.216   4.253
 4783WAT    EPW19854   5.664   3.148   4.233
 4784WAT      O19855   4.903   4.428   4.708
 4784WAT     H119856   4.833   4.480   4.702
 4784WAT     H219857   4.910   4.394   4.628
 4784WAT    EPW19858   4.894   4.431   4.695
 4785WAT      O19859   4.410   4.143   4.879
 4785WAT     H119860   4.406   4.098   4.805
 4785WAT     H219861   4.326   4.154   4.901
 4785WAT    EPW19862   4.397   4.138   4.872
 4786WAT      O19863   5.270   3.361   4.720
 4786WAT     H119864   5.302   3.324   4.792
 4786WAT     H219865   5.219   3.299   4.686
 4786WAT    EPW19866   5.267   3.346   4.726
 4787WAT      O19867   4.707   3.254   4.123
 4787WAT     H119868   4.677   3.260   4.041
 4787WAT     H219869   4.651   3.304   4.168
 4787WAT    EPW19870   4.694   3.262   4.117
 4788WAT      O19871   4.273   3.655   5.722
 4788WAT     H119872   4.224   3.587   5.745
 4788WAT     H219873   4.271   3.654   5.635
 4788WAT    EPW19874   4.265   3.645   5.713
 4789WAT      O19875   4.356   3.764   5.214
 4789WAT     H119876   4.373   3.709   5.148
 4789WAT     H219877   4.293   3.815   5.182
 4789WAT    EPW19878   4.349   3.763   5.200
 4790WAT      O19879   5.382   3.519   4.994
 4790WAT     H119880   5.304   3.538   5.027
 4790WAT     H219881   5.386   3.568   4.922
 4790WAT    EPW19882   5.371   3.529   4.988
 4791WAT      O19883   4.700   4.560   5.099
 4791WAT     H119884   4.671   4.486   5.064
 4791WAT     H219885   4.671   4.621   5.043
 4791WAT    EPW19886   4.691   4.558   5.085
 4792WAT      O19887   4.913   3.115   5.361
 4792WAT     H119888   4.935   3.037   5.327
 4792WAT     H219889   4.962   3.121   5.432
 4792WAT    EPW19890   4.924   3.104   5.366
 4793WAT      O19891   5.159   3.295   4.360
 4793WAT     H119892   5.223   3.355   4.358
 4793WAT     H219893   5.093   3.334   4.318
 4793WAT    EPW19894   5.159   3.310   4.353
 4794WAT      O19895   4.085   3.861   5.731
 4794WAT     H119896   4.059   3.862   5.648
 4794WAT     H219897   4.142   3.795   5.734
 4794WAT    EPW19898   4.089   3.851   5.719
 4795WAT      O19899   5.272   4.072   5.514
 4795WAT     H119900   5.304   4.154   5.511
 4795WAT     H219901   5.333   4.025   5.473
 4795WAT    EPW19902   5.285   4.077   5.508
 4796WAT      O19903   4.734   4.407   5.592
 4796WAT     H119904   4.755   4.401   5.676
 4796WAT     H219905   4.705   4.327   5.572
 4796WAT    EPW19906   4.733   4.394   5.601
 4797WAT      O19907   4.823   3.391   4.906
 4797WAT     H119908   4.869   3.465   4.911
 4797WAT     H219909   4.876   3.332   4.943
 4797WAT    EPW19910   4.838   3.393   4.912
 4798WAT      O19911   5.434   4.174   4.493
 4798WAT     H119912   5.453   4.151   4.575
 4798WAT     H219913   5.458   4.105   4.447
 4798WAT    EPW19914   5.440   4.161   4.499
 4799WAT      O19915   5.134   4.455   4.884
 4799WAT     H119916   5.067   4.455   4.829
 4799WAT     H219917   5.189   4.514   4.850
 4799WAT    EPW19918   5.132   4.464   4.871
 4800WAT      O19919   5.155   4.098   4.865
 4800WAT     H119920   5.075   4.128   4.882
 4800WAT     H219921   5.174   4.050   4.935
 4800WAT    EPW19922   5.146   4.095   4.878
 4801WAT      O19923   4.752   4.551   4.192
 4801WAT     H119924   4.668   4.538   4.213
 4801WAT     H219925   4.751   4.629   4.153
 4801WAT    EPW19926   4.739   4.561   4.190
 4802WAT      O19927   5.459   3.939   5.368
 4802WAT     H119928   5.461   3.919   5.283
 4802WAT     H219929   5.533   3.983   5.381
 4802WAT    EPW19930   5.470   3.943   5.357
 4803WAT      O19931   5.089   4.537   5.805
 4803WAT     H119932   5.118   4.551   5.886
 4803WAT     H219933   5.115   4.608   5.762
 4803WAT    EPW19934   5.097   4.550   5.811
 4804WAT      O19935   5.538   3.039   5.641
 4804WAT     H119936   5.501   2.994   5.577
 4804WAT     H219937   5.539   2.983   5.708
 4804WAT    EPW19938   5.533   3.024   5.641
 4805WAT      O19939   5.076   3.963   5.345
 4805WAT     H119940   5.135   4.002   5.396
 4805WAT     H219941   5.098   3.878   5.349
 4805WAT    EPW19942   5.088   3.956   5.353
 4806WAT      O19943   4.967   3.753   4.365
 4806WAT     H119944   4.932   3.820   4.409
 4806WAT     H219945   4.922   3.684   4.395
 4806WAT    EPW19946   4.955   3.753   4.376
 4807WAT      O19947   5.438   4.189   4.900
 4807WAT     H119948   5.446   4.274   4.915
 4807WAT     H219949   5.352   4.177   4.892
 4807WAT    EPW19950   5.427   4.200   4.901
 4808WAT      O19951   4.734   3.961   4.756
 4808WAT     H119952   4.658   3.933   4.725
 4808WAT     H219953   4.749   3.909   4.824
 4808WAT    EPW19954   4.725   3.949   4.762
 4809WAT      O19955   4.486   4.771   4.088
 4809WAT     H119956   4.459   4.690   4.104
 4809WAT     H219957   4.412   4.816   4.082
 4809WAT    EPW19958   4.471   4.766   4.090
 4810WAT      O19959   4.163   3.946   5.128
 4810WAT     H119960   4.135   3.991   5.059
 4810WAT     H219961   4.089   3.915   5.163
 4810WAT    EPW19962   4.148   3.948   5.123
 4811WAT      O19963   5.778   4.637   4.106
 4811WAT     H119964   5.844   4.585   4.083
 4811WAT     H219965   5.723   4.584   4.147
 4811WAT    EPW19966   5.780   4.622   4.109
 4812WAT      O19967   5.504   3.865   5.101
 4812WAT     H119968   5.489   3.786   5.133
 4812WAT     H219969   5.424   3.895   5.084
 4812WAT    EPW19970   5.490   3.858   5.103
 4813WAT      O19971   5.657   3.817   4.859
 4813WAT     H119972   5.626   3.846   4.935
 4813WAT     H219973   5.734   3.858   4.852
 4813WAT    EPW19974   5.664   3.828   4.869
 4814WAT      O19975   4.546   3.418   4.271
 4814WAT     H119976   4.558   3.417   4.357
 4814WAT     H219977   4.460   3.409   4.262
 4814WAT    EPW19978   4.535   3.416   4.282
 4815WAT      O19979   5.411   3.295   5.632
 4815WAT     H119980   5.338   3.299   5.679
 4815WAT     H219981   5.436   3.211   5.640
 4815WAT    EPW19982   5.404   3.283   5.640
 4816WAT      O19983   5.765   4.376   4.864
 4816WAT     H119984   5.804   4.434   4.813
 4816WAT     H219985   5.815   4.374   4.936
 4816WAT    EPW19986   5.778   4.384   4.867
 4817WAT      O19987   5.256   3.643   5.693
 4817WAT     H119988   5.283   3.654   5.775
 4817WAT     H219989   5.178   3.683   5.692
 4817WAT    EPW19990   5.248   3.650   5.705
 4818WAT      O19991   5.495   3.700   5.559
 4818WAT     H119992   5.501   3.787   5.564
 4818WAT     H219993   5.419   3.683   5.598
 4818WAT    EPW19994   5.485   3.711   5.566
 4819WAT      O19995   5.417   4.327   4.083
 4819WAT     H119996   5.445   4.245   4.089
 4819WAT     H219997   5.331   4.321   4.098
 4819WAT    EPW19998   5.409   4.314   4.086
 4820WAT      O19999   5.503   3.453   4.605
 4820WAT     H120000   5.437   3.408   4.641
 4820WAT     H220001   5.505   3.527   4.651
 4820WAT    EPW20002   5.493   3.457   4.617
 4821WAT      O20003   5.785   3.785   5.734
 4821WAT     H120004   5.789   3.727   5.668
 4821WAT     H220005   5.865   3.820   5.735
 4821WAT    EPW20006   5.798   3.781   5.724
 4822WAT      O20007   5.694   4.075   5.397
 4822WAT     H120008   5.751   4.021   5.358
 4822WAT     H220009   5.680   4.136   5.337
 4822WAT    EPW20010   5.701   4.076   5.382
 4823WAT      O20011   5.091   4.055   3.965
 4823WAT     H120012   5.171   4.021   3.953
 4823WAT     H220013   5.057   4.055   3.884
 4823WAT    EPW20014   5.098   4.050   3.951
 4824WAT      O20015   4.610   4.254   5.261
 4824WAT     H120016   4.531   4.224   5.283
 4824WAT     H220017   4.604   4.270   5.176
 4824WAT    EPW20018   4.598   4.252   5.252
 4825WAT      O20019   4.391   4.126   5.399
 4825WAT     H120020   4.334   4.079   5.353
 4825WAT     H220021   4.346   4.198   5.420
 4825WAT    EPW20022   4.376   4.129   5.395
 4826WAT      O20023   5.354   3.141   5.286
 4826WAT     H120024   5.409   3.207   5.302
 4826WAT     H220025   5.277   3.181   5.276
 4826WAT    EPW20026   5.351   3.157   5.287
 4827WAT      O20027   4.853   3.859   5.008
 4827WAT     H120028   4.900   3.929   5.030
 4827WAT     H220029   4.787   3.859   5.066
 4827WAT    EPW20030   4.850   3.869   5.019
 4828WAT      O20031   4.574   3.365   5.357
 4828WAT     H120032   4.544   3.309   5.418
 4828WAT     H220033   4.501   3.398   5.323
 4828WAT    EPW20034   4.559   3.361   5.361
 4829WAT      O20035   5.424   2.934   5.103
 4829WAT     H120036   5.398   3.008   5.140
 4829WAT     H220037   5.509   2.929   5.124
 4829WAT    EPW20038   5.433   2.944   5.111
 4830WAT      O20039   4.617   4.305   4.988
 4830WAT     H120040   4.548   4.268   4.951
 4830WAT     H220041   4.685   4.270   4.945
 4830WAT    EPW20042   4.617   4.295   4.976
 4831WAT      O20043   5.044   4.096   5.673
 4831WAT     H120044   5.115   4.071   5.630
 4831WAT     H220045   5.036   4.180   5.653
 4831WAT    EPW20046   5.053   4.105   5.663
 4832WAT      O20047   5.368   4.339   5.514
 4832WAT     H120048   5.415   4.358   5.585
 4832WAT     H220049   5.406   4.384   5.450
 4832WAT    EPW20050   5.380   4.348   5.515
 4833WAT      O20051   5.589   3.608   4.000
 4833WAT     H120052   5.638   3.671   3.965
 4833WAT     H220053   5.509   3.642   4.001
 4833WAT    EPW20054   5.584   3.622   3.995
 4834WAT      O20055   4.701   3.751   3.804
 4834WAT     H120056   4.678   3.667   3.799
 4834WAT     H220057   4.662   3.787   3.734
 4834WAT    EPW20058   4.692   3.744   3.793
 4835WAT      O20059   4.429   3.585   5.014
 4835WAT     H120060   4.394   3.605   4.936
 4835WAT     H220061   4.465   3.507   5.000
 4835WAT    EPW20062   4.429   3.577   5.000
 4836WAT      O20063   5.125   3.478   5.494
 4836WAT     H120064   5.057   3.525   5.522
 4836WAT     H220065   5.184   3.487   5.557
 4836WAT    EPW20066   5.124   3.486   5.507
 4837WAT      O20067   5.134   3.533   5.119
 4837WAT     H120068   5.142   3.590   5.185
 4837WAT     H220069   5.127   3.456   5.160
 4837WAT    EPW20070   5.134   3.530   5.135
 4838WAT      O20071   4.913   4.617   5.532
 4838WAT     H120072   4.904   4.626   5.446
 4838WAT     H220073   4.866   4.545   5.550
 4838WAT    EPW20074   4.904   4.607   5.522
 4839WAT      O20075   5.358   3.507   4.373
 4839WAT     H120076   5.394   3.486   4.450
 4839WAT     H220077   5.423   3.545   4.330
 4839WAT    EPW20078   5.373   3.509   4.378
 4840WAT      O20079   4.673   3.015   4.930
 4840WAT     H120080   4.605   2.961   4.938
 4840WAT     H220081   4.677   3.030   4.844
 4840WAT    EPW20082   4.663   3.010   4.919
 4841WAT      O20083   5.545   3.091   4.498
 4841WAT     H120084   5.469   3.051   4.515
 4841WAT     H220085   5.538   3.113   4.414
 4841WAT    EPW20086   5.533   3.088   4.488
 4842WAT      O20087   5.455   3.933   4.323
 4842WAT     H120088   5.510   3.866   4.324
 4842WAT     H220089   5.377   3.896   4.312
 4842WAT    EPW20090   5.451   3.918   4.321
 4843WAT      O20091   4.320   4.802   5.070
 4843WAT     H120092   4.269   4.778   5.137
 4843WAT     H220093   4.269   4.792   5.000
 4843WAT    EPW20094   4.305   4.797   5.070
 4844WAT      O20095   5.143   4.031   4.600
 4844WAT     H120096   5.148   4.052   4.684
 4844WAT     H220097   5.180   3.952   4.596
 4844WAT    EPW20098   5.149   4.022   4.612
 4845WAT      O20099   4.883   3.965   4.524
 4845WAT     H120100   4.835   3.950   4.595
 4845WAT     H220101   4.961   3.988   4.555
 4845WAT    EPW20102   4.887   3.966   4.539
 4846WAT      O20103   4.961   4.344   5.348
 4846WAT     H120104   5.003   4.358   5.423
 4846WAT     H220105   4.944   4.425   5.318
 4846WAT    EPW20106   4.965   4.358   5.355
 4847WAT      O20107   5.751   3.595   5.533
 4847WAT     H120108   5.666   3.614   5.540
 4847WAT     H220109   5.769   3.611   5.449
 4847WAT    EPW20110   5.741   3.600   5.522
 4848WAT      O20111   5.184   3.702   5.332
 4848WAT     H120112   5.165   3.640   5.391
 4848WAT     H220113   5.270   3.691   5.319
 4848WAT    EPW20114   5.194   3.691   5.339
 4849WAT      O20115   4.941   3.856   5.791
 4849WAT     H120116   4.965   3.931   5.755
 4849WAT     H220117   4.860   3.872   5.820
 4849WAT    EPW20118   4.932   3.869   5.790
 4850WAT      O20119   5.340   4.653   4.853
 4850WAT     H120120   5.345   4.703   4.924
 4850WAT     H220121   5.399   4.591   4.868
 4850WAT    EPW20122   5.349   4.651   4.865
 4851WAT      O20123   4.950   4.117   5.095
 4851WAT     H120124   4.908   4.156   5.029
 4851WAT     H220125   5.016   4.171   5.112
 4851WAT    EPW20126   4.953   4.130   5.088
 4852WAT      O20127   5.512   4.395   5.748
 4852WAT     H120128   5.597   4.375   5.748
 4852WAT     H220129   5.483   4.359   5.822
 4852WAT    EPW20130   5.520   4.387   5.759
 4853WAT      O20131   4.239   3.661   5.448
 4853WAT     H120132   4.163   3.706   5.452
 4853WAT     H220133   4.267   3.676   5.367
 4853WAT    EPW20134   4.232   3.670   5.437
 4854WAT      O20135   5.559   3.673   4.274
 4854WAT     H120136   5.575   3.654   4.191
 4854WAT     H220137   5.633   3.653   4.315
 4854WAT    EPW20138   5.572   3.667   4.268
 4855WAT      O20139   4.220   3.147   5.393
 4855WAT     H120140   4.186   3.069   5.409
 4855WAT     H220141   4.156   3.190   5.353
 4855WAT    EPW20142   4.206   3.142   5.389
 4856WAT      O20143   4.924   4.312   4.458
 4856WAT     H120144   4.922   4.389   4.417
 4856WAT     H220145   4.848   4.275   4.438
 4856WAT    EPW20146   4.913   4.318   4.449
 4857WAT      O20147   5.452   3.642   5.289
 4857WAT     H120148   5.468   3.557   5.293
 4857WAT     H220149   5.473   3.672   5.368
 4857WAT    EPW20150   5.458   3.634   5.301
 4858WAT      O20151   5.053   3.122   5.605
 4858WAT     H120152   5.087   3.187   5.654
 4858WAT     H220153   4.979   3.102   5.647
 4858WAT    EPW20154   5.047   3.129   5.619
 4859WAT      O20155   5.099   3.172   4.625
 4859WAT     H120156   5.018   3.205   4.628
 4859WAT     H220157   5.119   3.175   4.540
 4859WAT    EPW20158   5.090   3.177   4.613
 4860WAT      O20159   4.454   4.470   4.111
 4860WAT     H120160   4.428   4.493   4.191
 4860WAT     H220161   4.381   4.472   4.064
 4860WAT    EPW20162   4.440   4.474   4.116
 4861WAT      O20163   5.366   3.244   4.954
 4861WAT     H120164   5.446   3.215   4.969
 4861WAT     H220165   5.368   3.327   4.981
 4861WAT    EPW20166   5.378   3.252   4.960
 4862WAT      O20167   4.531   3.815   5.422
 4862WAT     H120168   4.496   3.882   5.466
 4862WAT     H220169   4.467   3.791   5.367
 4862WAT    EPW20170   4.516   3.821   5.420
 4863WAT      O20171   5.439   3.674   4.766
 4863WAT     H120172   5.506   3.726   4.784
 4863WAT     H220173   5.391   3.721   4.711
 4863WAT    EPW20174   5.441   3.688   4.761
 4864WAT      O20175   5.455   4.487   4.476
 4864WAT     H120176   5.466   4.404   4.501
 4864WAT     H220177   5.487   4.488   4.395
 4864WAT    EPW20178   5.462   4.475   4.468
 4865WAT      O20179   4.532   4.218   4.015
 4865WAT     H120180   4.459   4.198   3.971
 4865WAT     H220181   4.512   4.294   4.052
 4865WAT    EPW20182   4.518   4.226   4.014
 4866WAT      O20183   4.460   3.061   5.253
 4866WAT     H120184   4.381   3.091   5.273
 4866WAT     H220185   4.447   2.975   5.243
 4866WAT    EPW20186   4.446   3.052   5.255
 4867WAT      O20187   5.684   2.992   5.214
 4867WAT     H120188   5.669   3.017   5.297
 4867WAT     H220189   5.767   2.965   5.216
 4867WAT    EPW20190   5.694   2.992   5.227
 4868WAT      O20191   4.912   3.146   5.016
 4868WAT     H120192   4.858   3.095   4.970
 4868WAT     H220193   4.991   3.122   4.988
 4868WAT    EPW20194   4.916   3.135   5.005
 4869WAT      O20195   5.180   4.280   5.110
 4869WAT     H120196   5.180   4.343   5.170
 4869WAT     H220197   5.176   4.323   5.034
 4869WAT    EPW20198   5.179   4.296   5.108
 4870WAT      O20199   5.156   4.737   5.617
 4870WAT     H120200   5.100   4.686   5.573
 4870WAT     H220201   5.114   4.814   5.620
 4870WAT    EPW20202   5.141   4.741   5.611
 4871WAT      O20203   4.688   3.590   5.496
 4871WAT     H120204   4.657   3.525   5.446
 4871WAT     H220205   4.635   3.657   5.477
 4871WAT    EPW20206   4.676   3.590   5.486
 4872WAT      O20207   5.646   4.124   5.098
 4872WAT     H120208   5.624   4.040   5.107
 4872WAT     H220209   5.590   4.154   5.039
 4872WAT    EPW20210   5.635   4.116   5.090
 4873WAT      O20211   4.504   4.735   5.596
 4873WAT     H120212   4.499   4.678   5.662
 4873WAT     H220213   4.527   4.686   5.528
 4873WAT    EPW20214   4.506   4.719   5.595
 4874WAT      O20215   5.510   4.453   4.951
 4874WAT     H120216   5.591   4.435   4.923
 4874WAT     H220217   5.521   4.467   5.037
 4874WAT    EPW20218   5.524   4.452   4.960
 4875WAT      O20219   5.150   3.077   4.888
 4875WAT     H120220   5.217   3.128   4.911
 4875WAT     H220221   5.136   3.099   4.804
 4875WAT    EPW20222   5.158   3.088   4.879
 4876WAT      O20223   4.179   4.574   5.620
 4876WAT     H120224   4.238   4.629   5.587
 4876WAT     H220225   4.105   4.597   5.581
 4876WAT    EPW20226   4.177   4.586   5.610
 4877WAT      O20227   5.095   3.572   4.661
 4877WAT     H120228   5.151   3.509   4.684
 4877WAT     H220229   5.053   3.591   4.735
 4877WAT    EPW20230   5.097   3.565   4.675
 4878WAT      O20231   5.235   3.749   4.301
 4878WAT     H120232   5.258   3.667   4.321
 4878WAT     H220233   5.148   3.749   4.311
 4878WAT    EPW20234   5.226   3.737   4.305
 4879WAT      O20235   5.579   4.689   3.915
 4879WAT     H120236   5.646   4.682   3.971
 4879WAT     H220237   5.559   4.607   3.896
 4879WAT    EPW20238   5.586   4.676   3.920
 4880WAT      O20239   5.588   3.964   5.647
 4880WAT     H120240   5.654   3.916   5.678
 4880WAT     H220241   5.625   4.012   5.584
 4880WAT    EPW20242   5.603   3.964   5.643
 4881WAT      O20243   5.152   4.254   4.146
 4881WAT     H120244   5.096   4.318   4.126
 4881WAT     H220245   5.132   4.191   4.090
 4881WAT    EPW20246   5.141   4.254   4.135
 4882WAT      O20247   5.645   3.376   5.755
 4882WAT     H120248   5.635   3.458   5.784
 4882WAT     H220249   5.569   3.360   5.715
 4882WAT    EPW20250   5.632   3.386   5.753
 4883WAT      O20251   5.635   3.474   5.096
 4883WAT     H120252   5.554   3.494   5.070
 4883WAT     H220253   5.639   3.387   5.085
 4883WAT    EPW20254   5.624   3.464   5.090
 4884WAT      O20255   4.480   3.170   5.544
 4884WAT     H120256   4.510   3.089   5.534
 4884WAT     H220257   4.401   3.167   5.507
 4884WAT    EPW20258   4.473   3.157   5.537
 4885WAT      O20259   5.385   3.983   5.849
 4885WAT     H120260   5.447   4.009   5.905
 4885WAT     H220261   5.424   3.988   5.772
 4885WAT    EPW20262   5.400   3.988   5.846
 4886WAT      O20263   4.849   4.078   4.124
 4886WAT     H120264   4.916   4.043   4.081
 4886WAT     H220265   4.861   4.164   4.114
 4886WAT    EPW20266   4.861   4.085   4.116
 4887WAT      O20267   4.951   3.682   2.998
 4887WAT     H120268   4.867   3.689   3.018
 4887WAT     H220269   4.988   3.658   3.073
 4887WAT    EPW20270   4.944   3.679   3.012
 4888WAT      O20271   5.587   4.480   2.330
 4888WAT     H120272   5.652   4.429   2.359
 4888WAT     H220273   5.541   4.427   2.279
 4888WAT    EPW20274   5.590   4.464   2.327
 4889WAT      O20275   5.222   3.820   2.696
 4889WAT     H120276   5.244   3.809   2.612
 4889WAT     H220277   5.170   3.752   2.713
 4889WAT    EPW20278   5.218   3.808   2.686
 4890WAT      O20279   4.106   4.432   2.097
 4890WAT     H120280   4.151   4.459   2.028
 4890WAT     H220281   4.156   4.369   2.131
 4890WAT    EPW20282   4.120   4.427   2.092
 4891WAT      O20283   4.759   4.133   2.431
 4891WAT     H120284   4.802   4.091   2.495
 4891WAT     H220285   4.732   4.069   2.379
 4891WAT    EPW20286   4.762   4.117   2.433
 4892WAT      O20287   5.388   2.824   3.533
 4892WAT     H120288   5.392   2.858   3.452
 4892WAT     H220289   5.302   2.816   3.547
 4892WAT    EPW20290   5.376   2.828   3.523
 4893WAT      O20291   5.194   3.287   1.961
 4893WAT     H120292   5.185   3.372   1.978
 4893WAT     H220293   5.195   3.250   2.040
 4893WAT    EPW20294   5.193   3.294   1.975
 4894WAT      O20295   4.565   4.335   2.479
 4894WAT     H120296   4.526   4.323   2.556
 4894WAT     H220297   4.623   4.269   2.476
 4894WAT    EPW20298   4.568   4.323   2.490
 4895WAT      O20299   5.184   4.575   2.254
 4895WAT     H120300   5.257   4.622   2.263
 4895WAT     H220301   5.210   4.494   2.271
 4895WAT    EPW20302   5.199   4.570   2.257
 4896WAT      O20303   4.973   4.593   2.432
 4896WAT     H120304   4.989   4.658   2.489
 4896WAT     H220305   5.043   4.595   2.380
 4896WAT    EPW20306   4.986   4.603   2.433
 4897WAT      O20307   5.741   3.292   2.719
 4897WAT     H120308   5.779   3.262   2.792
 4897WAT     H220309   5.681   3.230   2.701
 4897WAT    EPW20310   5.738   3.278   2.727
 4898WAT      O20311   5.318   4.633   3.310
 4898WAT     H120312   5.360   4.700   3.272
 4898WAT     H220313   5.360   4.563   3.280
 4898WAT    EPW20314   5.331   4.632   3.300
 4899WAT      O20315   4.920   3.523   2.556
 4899WAT     H120316   4.847   3.497   2.596
 4899WAT     H220317   4.973   3.544   2.621
 4899WAT    EPW20318   4.917   3.523   2.571
 4900WAT      O20319   5.395   4.765   2.240
 4900WAT     H120320   5.443   4.739   2.172
 4900WAT     H220321   5.453   4.804   2.292
 4900WAT    EPW20322   5.411   4.767   2.238
 4901WAT      O20323   4.377   4.650   3.303
 4901WAT     H120324   4.391   4.595   3.369
 4901WAT     H220325   4.334   4.602   3.244
 4901WAT    EPW20326   4.372   4.635   3.304
 4902WAT      O20327   5.654   3.227   3.154
 4902WAT     H120328   5.715   3.211   3.093
 4902WAT     H220329   5.676   3.173   3.219
 4902WAT    EPW20330   5.666   3.217   3.154
 4903WAT      O20331   5.156   4.392   3.611
 4903WAT     H120332   5.122   4.320   3.647
 4903WAT     H220333   5.242   4.375   3.609
 4903WAT    EPW20334   5.164   4.379   3.616
 4904WAT      O20335   5.205   3.158   2.210
 4904WAT     H120336   5.262   3.092   2.220
 4904WAT     H220337   5.223   3.211   2.277
 4904WAT    EPW20338   5.216   3.156   2.222
 4905WAT      O20339   5.047   4.699   3.331
 4905WAT     H120340   5.130   4.679   3.315
 4905WAT     H220341   5.012   4.707   3.251
 4905WAT    EPW20342   5.054   4.697   3.317
 4906WAT      O20343   4.988   3.076   2.369
 4906WAT     H120344   4.914   3.072   2.323
 4906WAT     H220345   5.050   3.088   2.308
 4906WAT    EPW20346   4.986   3.077   2.353
 4907WAT      O20347   5.677   4.666   2.635
 4907WAT     H120348   5.637   4.742   2.649
 4907WAT     H220349   5.611   4.611   2.619
 4907WAT    EPW20350   5.661   4.669   2.635
 4908WAT      O20351   5.374   4.266   2.675
 4908WAT     H120352   5.436   4.205   2.677
 4908WAT     H220353   5.300   4.220   2.678
 4908WAT    EPW20354   5.372   4.250   2.676
 4909WAT      O20355   5.065   3.310   3.486
 4909WAT     H120356   5.038   3.389   3.511
 4909WAT     H220357   5.011   3.256   3.529
 4909WAT    EPW20358   5.053   3.314   3.496
 4910WAT      O20359   5.194   4.027   3.203
 4910WAT     H120360   5.142   4.006   3.270
 4910WAT     H220361   5.140   4.066   3.146
 4910WAT    EPW20362   5.178   4.029   3.204
 4911WAT      O20363   5.384   2.929   2.685
 4911WAT     H120364   5.366   2.911   2.768
 4911WAT     H220365   5.369   2.854   2.643
 4911WAT    EPW20366   5.379   2.915   2.691
 4912WAT      O20367   5.499   3.445   3.487
 4912WAT     H120368   5.572   3.404   3.509
 4912WAT     H220369   5.489   3.505   3.549
 4912WAT    EPW20370   5.508   3.448   3.499
 4913WAT      O20371   5.832   4.476   3.628
 4913WAT     H120372   5.759   4.473   3.581
 4913WAT     H220373   5.812   4.428   3.699
 4913WAT    EPW20374   5.818   4.468   3.632
 4914WAT      O20375   5.379   3.701   2.144
 4914WAT     H120376   5.364   3.780   2.110
 4914WAT     H220377   5.357   3.710   2.228
 4914WAT    EPW20378   5.373   3.714   2.151
 4915WAT      O20379   5.732   3.213   2.170
 4915WAT     H120380   5.780   3.146   2.142
 4915WAT     H220381   5.706   3.252   2.096
 4915WAT    EPW20382   5.735   3.209   2.155
 4916WAT      O20383   4.710   3.457   3.776
 4916WAT     H120384   4.650   3.400   3.805
 4916WAT     H220385   4.715   3.440   3.691
 4916WAT    EPW20386   4.702   3.446   3.768
 4917WAT      O20387   5.788   3.653   3.412
 4917WAT     H120388   5.826   3.579   3.385
 4917WAT     H220389   5.710   3.653   3.373
 4917WAT    EPW20390   5.782   3.642   3.402
 4918WAT      O20391   5.566   3.111   2.374
 4918WAT     H120392   5.635   3.065   2.400
 4918WAT     H220393   5.599   3.165   2.314
 4918WAT    EPW20394   5.581   3.112   2.369
 4919WAT      O20395   5.252   3.385   2.875
 4919WAT     H120396   5.270   3.426   2.950
 4919WAT     H220397   5.229   3.305   2.900
 4919WAT    EPW20398   5.251   3.379   2.890
 4920WAT      O20399   3.958   4.086   2.141
 4920WAT     H120400   3.991   4.006   2.136
 4920WAT     H220401   4.019   4.131   2.184
 4920WAT    EPW20402   3.972   4.081   2.147
 4921WAT      O20403   5.600   4.492   3.466
 4921WAT     H120404   5.580   4.576   3.478
 4921WAT     H220405   5.587   4.480   3.381
 4921WAT    EPW20406   5.595   4.503   3.456
 4922WAT      O20407   5.323   3.552   3.083
 4922WAT     H120408   5.251   3.565   3.130
 4922WAT     H220409   5.323   3.618   3.026
 4922WAT    EPW20410   5.313   3.564   3.082
 4923WAT      O20411   5.117   3.329   2.447
 4923WAT     H120412   5.057   3.389   2.469
 4923WAT     H220413   5.073   3.254   2.451
 4923WAT    EPW20414   5.101   3.327   2.451
 4924WAT      O20415   5.313   4.070   3.637
 4924WAT     H120416   5.355   4.146   3.630
 4924WAT     H220417   5.350   4.021   3.574
 4924WAT    EPW20418   5.325   4.074   3.626
 4925WAT      O20419   4.738   4.284   3.826
 4925WAT     H120420   4.668   4.268   3.875
 4925WAT     H220421   4.741   4.215   3.772
 4925WAT    EPW20422   4.728   4.271   3.825
 4926WAT      O20423   5.081   3.761   2.252
 4926WAT     H120424   5.058   3.776   2.169
 4926WAT     H220425   5.006   3.772   2.296
 4926WAT    EPW20426   5.066   3.765   2.246
 4927WAT      O20427   5.577   4.069   2.682
 4927WAT     H120428   5.580   4.018   2.752
 4927WAT     H220429   5.556   4.014   2.617
 4927WAT    EPW20430   5.574   4.053   2.683
 4928WAT      O20431   4.566   4.606   2.396
 4928WAT     H120432   4.575   4.534   2.444
 4928WAT     H220433   4.634   4.604   2.341
 4928WAT    EPW20434   4.577   4.595   2.395
 4929WAT      O20435   4.789   4.604   2.227
 4929WAT     H120436   4.846   4.601   2.293
 4929WAT     H220437   4.792   4.687   2.201
 4929WAT    EPW20438   4.798   4.616   2.233
 4930WAT      O20439   5.442   3.921   3.437
 4930WAT     H120440   5.435   3.936   3.351
 4930WAT     H220441   5.521   3.953   3.457
 4930WAT    EPW20442   5.453   3.928   3.427
 4931WAT      O20443   5.036   4.570   3.938
 4931WAT     H120444   5.090   4.578   4.007
 4931WAT     H220445   4.981   4.507   3.962
 4931WAT    EPW20446   5.036   4.562   3.952
 4932WAT      O20447   5.484   3.008   3.725
 4932WAT     H120448   5.456   2.948   3.669
 4932WAT     H220449   5.498   2.962   3.798
 4932WAT    EPW20450   5.482   2.992   3.728
 4933WAT      O20451   4.947   3.961   3.433
 4933WAT     H120452   4.861   3.953   3.438
 4933WAT     H220453   4.975   3.878   3.431
 4933WAT    EPW20454   4.939   3.948   3.433
 4934WAT      O20455   4.866   3.779   2.432
 4934WAT     H120456   4.885   3.836   2.496
 4934WAT     H220457   4.878   3.701   2.470
 4934WAT    EPW20458   4.871   3.776   2.447
 4935WAT      O20459   5.397   4.213   3.128
 4935WAT     H120460   5.368   4.226   3.046
 4935WAT     H220461   5.338   4.160   3.163
 4935WAT    EPW20462   5.384   4.207   3.121
 4936WAT      O20463   4.440   4.609   2.064
 4936WAT     H120464   4.470   4.541   2.111
 4936WAT     H220465   4.465   4.678   2.111
 4936WAT    EPW20466   4.448   4.609   2.078
 4937WAT      O20467   5.785   4.632   2.212
 4937WAT     H120468   5.845   4.578   2.181
 4937WAT     H220469   5.726   4.579   2.247
 4937WAT    EPW20470   5.785   4.616   2.213
 4938WAT      O20471   5.448   3.885   3.151
 4938WAT     H120472   5.457   3.805   3.186
 4938WAT     H220473   5.362   3.899   3.152
 4938WAT    EPW20474   5.437   3.875   3.156
 4939WAT      O20475   5.593   3.895   2.907
 4939WAT     H120476   5.558   3.901   2.987
 4939WAT     H220477   5.678   3.884   2.922
 4939WAT    EPW20478   5.600   3.894   2.921
 4940WAT      O20479   5.736   4.416   3.014
 4940WAT     H120480   5.777   4.458   2.950
 4940WAT     H220481   5.796   4.411   3.077
 4940WAT    EPW20482   5.751   4.422   3.014
 4941WAT      O20483   5.237   3.653   3.783
 4941WAT     H120484   5.257   3.661   3.867
 4941WAT     H220485   5.153   3.678   3.779
 4941WAT    EPW20486   5.227   3.658   3.795
 4942WAT      O20487   5.478   3.671   3.654
 4942WAT     H120488   5.500   3.754   3.668
 4942WAT     H220489   5.401   3.663   3.694
 4942WAT    EPW20490   5.470   3.682   3.662
 4943WAT      O20491   5.449   4.305   2.173
 4943WAT     H120492   5.491   4.228   2.179
 4943WAT     H220493   5.372   4.289   2.212
 4943WAT    EPW20494   5.444   4.291   2.180
 4944WAT      O20495   5.774   3.781   3.876
 4944WAT     H120496   5.786   3.719   3.816
 4944WAT     H220497   5.852   3.819   3.883
 4944WAT    EPW20498   5.787   3.778   3.868
 4945WAT      O20499   5.686   4.045   3.483
 4945WAT     H120500   5.757   4.000   3.462
 4945WAT     H220501   5.673   4.096   3.413
 4945WAT    EPW20502   5.695   4.046   3.469
 4946WAT      O20503   5.093   4.102   2.105
 4946WAT     H120504   5.161   4.049   2.113
 4946WAT     H220505   5.072   4.096   2.020
 4946WAT    EPW20506   5.100   4.094   2.093
 4947WAT      O20507   5.325   3.235   3.466
 4947WAT     H120508   5.371   3.309   3.467
 4947WAT     H220509   5.243   3.262   3.462
 4947WAT    EPW20510   5.320   3.250   3.466
 4948WAT      O20511   5.454   2.915   3.276
 4948WAT     H120512   5.420   2.992   3.253
 4948WAT     H220513   5.538   2.935   3.293
 4948WAT    EPW20514   5.462   2.929   3.275
 4949WAT      O20515   5.042   4.022   3.689
 4949WAT     H120516   5.126   4.033   3.667
 4949WAT     H220517   5.002   4.011   3.612
 4949WAT    EPW20518   5.049   4.022   3.674
 4950WAT      O20519   5.427   4.330   3.618
 4950WAT     H120520   5.457   4.356   3.696
 4950WAT     H220521   5.479   4.371   3.561
 4950WAT    EPW20522   5.439   4.340   3.621
 4951WAT      O20523   5.631   3.588   2.118
 4951WAT     H120524   5.687   3.642   2.079
 4951WAT     H220525   5.557   3.635   2.122
 4951WAT    EPW20526   5.628   3.603   2.113
 4952WAT      O20527   4.733   3.839   1.974
 4952WAT     H120528   4.703   3.777   1.920
 4952WAT     H220529   4.702   3.913   1.939
 4952WAT    EPW20530   4.724   3.841   1.961
 4953WAT      O20531   4.997   3.564   3.583
 4953WAT     H120532   4.930   3.568   3.527
 4953WAT     H220533   4.961   3.589   3.658
 4953WAT    EPW20534   4.982   3.568   3.586
 4954WAT      O20535   5.071   3.593   3.233
 4954WAT     H120536   5.098   3.646   3.297
 4954WAT     H220537   4.998   3.558   3.266
 4954WAT    EPW20538   5.064   3.596   3.247
 4955WAT      O20539   4.823   4.504   3.657
 4955WAT     H120540   4.838   4.469   3.579
 4955WAT     H220541   4.790   4.438   3.703
 4955WAT    EPW20542   4.820   4.490   3.652
 4956WAT      O20543   5.341   3.491   2.523
 4956WAT     H120544   5.284   3.430   2.499
 4956WAT     H220545   5.409   3.479   2.470
 4956WAT    EPW20546   5.342   3.480   2.512
 4957WAT      O20547   5.496   3.180   2.634
 4957WAT     H120548   5.450   3.110   2.656
 4957WAT     H220549   5.512   3.170   2.549
 4957WAT    EPW20550   5.492   3.168   2.625
 4958WAT      O20551   5.529   3.902   2.470
 4958WAT     H120552   5.561   3.927   2.393
 4958WAT     H220553   5.458   3.855   2.450
 4958WAT    EPW20554   5.524   3.899   2.456
 4959WAT      O20555   5.143   4.092   2.736
 4959WAT     H120556   5.134   4.116   2.820
 4959WAT     H220557   5.176   4.011   2.742
 4959WAT    EPW20558   5.147   4.084   2.749
 4960WAT      O20559   4.901   3.991   2.626
 4960WAT     H120560   4.865   3.974   2.703
 4960WAT     H220561   4.977   4.028   2.647
 4960WAT    EPW20562   4.907   3.994   2.640
 4961WAT      O20563   4.957   4.447   3.418
 4961WAT     H120564   5.029   4.417   3.457
 4961WAT     H220565   4.983   4.522   3.382
 4961WAT    EPW20566   4.971   4.454   3.419
 4962WAT      O20567   5.746   3.590   3.679
 4962WAT     H120568   5.660   3.604   3.683
 4962WAT     H220569   5.768   3.617   3.599
 4962WAT    EPW20570   5.737   3.596   3.668
 4963WAT      O20571   5.153   3.748   3.451
 4963WAT     H120572   5.111   3.691   3.503
 4963WAT     H220573   5.224   3.769   3.497
 4963WAT    EPW20574   5.157   3.743   3.466
 4964WAT      O20575   4.175   4.815   3.770
 4964WAT     H120576   4.092   4.792   3.752
 4964WAT     H220577   4.169   4.851   3.849
 4964WAT    EPW20578   4.162   4.817   3.779
 4965WAT      O20579   4.974   3.765   3.806
 4965WAT     H120580   4.996   3.843   3.773
 4965WAT     H220581   4.887   3.767   3.808
 4965WAT    EPW20582   4.964   3.777   3.801
 4966WAT      O20583   5.314   4.701   2.930
 4966WAT     H120584   5.259   4.750   2.975
 4966WAT     H220585   5.380   4.687   2.986
 4966WAT    EPW20586   5.316   4.706   2.945
 4967WAT      O20587   5.536   4.424   3.855
 4967WAT     H120588   5.616   4.390   3.865
 4967WAT     H220589   5.492   4.393   3.924
 4967WAT    EPW20590   5.541   4.415   3.867
 4968WAT      O20591   5.580   3.491   2.385
 4968WAT     H120592   5.589   3.518   2.302
 4968WAT     H220593   5.654   3.517   2.423
 4968WAT    EPW20594   5.592   3.499   2.378
 4969WAT      O20595   4.995   4.316   2.476
 4969WAT     H120596   4.980   4.402   2.478
 4969WAT     H220597   4.915   4.281   2.477
 4969WAT    EPW20598   4.981   4.324   2.477
 4970WAT      O20599   5.525   3.673   3.324
 4970WAT     H120600   5.500   3.595   3.355
 4970WAT     H220601   5.497   3.728   3.385
 4970WAT    EPW20602   5.517   3.669   3.337
 4971WAT      O20603   5.044   3.097   3.707
 4971WAT     H120604   5.026   3.142   3.779
 4971WAT     H220605   4.969   3.055   3.690
 4971WAT    EPW20606   5.030   3.098   3.715
 4972WAT      O20607   4.501   4.373   2.201
 4972WAT     H120608   4.526   4.377   2.285
 4972WAT     H220609   4.421   4.340   2.205
 4972WAT    EPW20610   4.493   4.369   2.214
 4973WAT      O20611   5.378   3.170   3.203
 4973WAT     H120612   5.460   3.197   3.188
 4973WAT     H220613   5.364   3.195   3.285
 4973WAT    EPW20614   5.388   3.178   3.213
 4974WAT      O20615   5.418   3.688   2.842
 4974WAT     H120616   5.478   3.748   2.858
 4974WAT     H220617   5.359   3.730   2.794
 4974WAT    EPW20618   5.418   3.703   2.837
 4975WAT      O20619   5.451   4.516   2.570
 4975WAT     H120620   5.424   4.439   2.603
 4975WAT     H220621   5.480   4.495   2.491
 4975WAT    EPW20622   5.451   4.501   2.563
 4976WAT      O20623   4.260   4.221   2.215
 4976WAT     H120624   4.263   4.204   2.300
 4976WAT     H220625   4.314   4.162   2.180
 4976WAT    EPW20626   4.268   4.210   2.222
 4977WAT      O20627   4.505   4.097   2.132
 4977WAT     H120628   4.554   4.039   2.176
 4977WAT     H220629   4.542   4.173   2.150
 4977WAT    EPW20630   4.517   4.099   2.141
 4978WAT      O20631   5.704   3.027   3.346
 4978WAT     H120632   5.709   3.042   3.432
 4978WAT     H220633   5.772   2.975   3.331
 4978WAT    EPW20634   5.715   3.022   3.356
 4979WAT      O20635   5.662   4.153   3.223
 4979WAT     H120636   5.701   4.107   3.160
 4979WAT     H220637   5.582   4.167   3.191
 4979WAT    EPW20638   5.656   4.149   3.209
 4980WAT      O20639   4.632   4.709   3.639
 4980WAT     H120640   4.553   4.685   3.668
 4980WAT     H220641   4.678   4.635   3.641
 4980WAT    EPW20642   4.627   4.695   3.644
 4981WAT      O20643   5.515   4.455   3.198
 4981WAT     H120644   5.578   4.458   3.138
 4981WAT     H220645   5.473   4.380   3.180
 4981WAT    EPW20646   5.518   4.444   3.186
 4982WAT      O20647   5.196   3.139   3.000
 4982WAT     H120648   5.248   3.155   3.069
 4982WAT     H220649   5.117   3.128   3.036
 4982WAT    EPW20650   5.192   3.139   3.015
 4983WAT      O20651   4.380   4.623   3.741
 4983WAT     H120652   4.347   4.560   3.791
 4983WAT     H220653   4.320   4.686   3.745
 4983WAT    EPW20654   4.366   4.623   3.749
 4984WAT      O20655   5.081   3.589   2.770
 4984WAT     H120656   5.130   3.522   2.798
 4984WAT     H220657   5.038   3.614   2.842
 4984WAT    EPW20658   5.082   3.583   2.785
 4985WAT      O20659   5.295   3.748   2.426
 4985WAT     H120660   5.299   3.665   2.453
 4985WAT     H220661   5.221   3.750   2.378
 4985WAT    EPW20662   5.285   3.736   2.423
 4986WAT      O20663   4.292   4.604   2.338
 4986WAT     H120664   4.290   4.606   2.250
 4986WAT     H220665   4.377   4.605   2.357
 4986WAT    EPW20666   4.304   4.605   2.328
 4987WAT      O20667   4.698   3.921   2.249
 4987WAT     H120668   4.711   3.886   2.170
 4987WAT     H220669   4.734   3.862   2.303
 4987WAT    EPW20670   4.705   3.907   2.245
 4988WAT      O20671   5.572   4.694   2.037
 4988WAT     H120672   5.643   4.681   2.086
 4988WAT     H220673   5.554   4.615   2.005
 4988WAT    EPW20674   5.580   4.680   2.040
 4989WAT      O20675   5.587   3.920   3.723
 4989WAT     H120676   5.650   3.893   3.776
 4989WAT     H220677   5.628   3.972   3.666
 4989WAT    EPW20678   5.602   3.924   3.723
 4990WAT      O20679   5.195   4.294   2.283
 4990WAT     H120680   5.143   4.291   2.353
 4990WAT     H220681   5.158   4.239   2.227
 4990WAT    EPW20682   5.182   4.286   2.285
 4991WAT      O20683   5.527   3.357   3.839
 4991WAT     H120684   5.537   3.431   3.884
 4991WAT     H220685   5.593   3.307   3.867
 4991WAT    EPW20686   5.538   3.361   3.850
 4992WAT      O20687   5.595   3.469   3.011
 4992WAT     H120688   5.524   3.502   3.049
 4992WAT     H220689   5.615   3.400   3.060
 4992WAT    EPW20690   5.588   3.464   3.024
 4993WAT      O20691   5.350   3.969   3.917
 4993WAT     H120692   5.416   4.005   3.961
 4993WAT     H220693   5.372   3.981   3.833
 4993WAT    EPW20694   5.363   3.976   3.911
 4994WAT      O20695   4.853   4.226   2.178
 4994WAT     H120696   4.922   4.175   2.162
 4994WAT     H220697   4.832   4.206   2.261
 4994WAT    EPW20698   4.860   4.215   2.188
 4995WAT      O20699   5.073   2.981   0.655
 4995WAT     H120700   5.089   3.013   0.575
 4995WAT     H220701   5.148   2.943   0.678
 4995WAT    EPW20702   5.086   2.980   0.646
 4996WAT      O20703   4.981   3.617   1.143
 4996WAT     H120704   4.947   3.694   1.168
 4996WAT     H220705   5.044   3.602   1.201
 4996WAT    EPW20706   4.985   3.626   1.155
 4997WAT      O20707   3.968   4.101   0.670
 4997WAT     H120708   3.960   4.106   0.757
 4997WAT     H220709   3.966   4.016   0.654
 4997WAT    EPW20710   3.967   4.089   0.681
 4998WAT      O20711   5.597   4.454   0.456
 4998WAT     H120712   5.660   4.397   0.474
 4998WAT     H220713   5.547   4.413   0.399
 4998WAT    EPW20714   5.599   4.440   0.451
 4999WAT      O20715   3.984   3.453   0.325
 4999WAT     H120716   3.931   3.513   0.289
 4999WAT     H220717   3.943   3.378   0.308
 4999WAT    EPW20718   3.970   3.451   0.317
 5000WAT      O20719   4.229   3.996   0.251
 5000WAT     H120720   4.216   3.955   0.176
 5000WAT     H220721   4.237   3.931   0.309
 5000WAT    EPW20722   4.229   3.981   0.249
 5001WAT      O20723   5.240   3.810   0.807
 5001WAT     H120724   5.255   3.796   0.722
 5001WAT     H220725   5.183   3.746   0.827
 5001WAT    EPW20726   5.234   3.798   0.797
 5002WAT      O20727   4.217   4.209   0.615
 5002WAT     H120728   4.271   4.177   0.676
 5002WAT     H220729   4.141   4.170   0.632
 5002WAT    EPW20730   4.214   4.199   0.627
 5003WAT      O20731   4.725   3.102   0.610
 5003WAT     H120732   4.722   3.175   0.564
 5003WAT     H220733   4.767   3.046   0.558
 5003WAT    EPW20734   4.731   3.104   0.596
 5004WAT      O20735   4.129   4.505   0.262
 5004WAT     H120736   4.161   4.510   0.181
 5004WAT     H220737   4.154   4.425   0.288
 5004WAT    EPW20738   4.138   4.494   0.254
 5005WAT      O20739   3.994   4.301   1.317
 5005WAT     H120740   4.026   4.291   1.398
 5005WAT     H220741   3.926   4.246   1.315
 5005WAT    EPW20742   3.989   4.291   1.329
 5006WAT      O20743   4.596   4.063   1.872
 5006WAT     H120744   4.555   4.072   1.949
 5006WAT     H220745   4.530   4.064   1.814
 5006WAT    EPW20746   4.580   4.065   1.875
 5007WAT      O20747   4.170   3.859   0.818
 5007WAT     H120748   4.121   3.855   0.746
 5007WAT     H220749   4.223   3.790   0.811
 5007WAT    EPW20750   4.171   3.848   0.806
 5008WAT      O20751   4.585   3.390   1.346
 5008WAT     H120752   4.656   3.390   1.296
 5008WAT     H220753   4.565   3.305   1.354
 5008WAT    EPW20754   4.592   3.377   1.340
 5009WAT      O20755   4.666   4.377   1.565
 5009WAT     H120756   4.626   4.453   1.552
 5009WAT     H220757   4.750   4.396   1.553
 5009WAT    EPW20758   4.673   4.391   1.561
 5010WAT      O20759   4.311   3.622   0.797
 5010WAT     H120760   4.371   3.564   0.821
 5010WAT     H220761   4.236   3.578   0.801
 5010WAT    EPW20762   4.309   3.607   0.801
 5011WAT      O20763   4.740   4.275   0.953
 5011WAT     H120764   4.761   4.193   0.972
 5011WAT     H220765   4.818   4.315   0.944
 5011WAT    EPW20766   4.755   4.269   0.954
 5012WAT      O20767   4.774   4.184   0.582
 5012WAT     H120768   4.814   4.126   0.634
 5012WAT     H220769   4.808   4.169   0.504
 5012WAT    EPW20770   4.785   4.173   0.578
 5013WAT      O20771   4.940   3.648   1.734
 5013WAT     H120772   4.854   3.658   1.722
 5013WAT     H220773   4.957   3.696   1.804
 5013WAT    EPW20774   4.930   3.656   1.742
 5014WAT      O20775   4.453   3.127   0.684
 5014WAT     H120776   4.417   3.170   0.617
 5014WAT     H220777   4.535   3.114   0.658
 5014WAT    EPW20778   4.460   3.131   0.670
 5015WAT      O20779   5.396   2.867   1.643
 5015WAT     H120780   5.377   2.945   1.608
 5015WAT     H220781   5.322   2.843   1.682
 5015WAT    EPW20782   5.382   2.875   1.644
 5016WAT      O20783   4.786   3.117   0.877
 5016WAT     H120784   4.763   3.200   0.889
 5016WAT     H220785   4.770   3.103   0.793
 5016WAT    EPW20786   4.780   3.127   0.866
 5017WAT      O20787   3.954   3.604   1.066
 5017WAT     H120788   3.965   3.679   1.110
 5017WAT     H220789   3.887   3.566   1.106
 5017WAT    EPW20790   3.946   3.610   1.078
 5018WAT      O20791   3.970   4.544   0.871
 5018WAT     H120792   3.908   4.593   0.834
 5018WAT     H220793   4.011   4.509   0.803
 5018WAT    EPW20794   3.967   4.546   0.856
 5019WAT      O20795   4.591   4.397   0.578
 5019WAT     H120796   4.549   4.385   0.653
 5019WAT     H220797   4.655   4.338   0.581
 5019WAT    EPW20798   4.594   4.387   0.590
 5020WAT      O20799   5.167   4.540   0.384
 5020WAT     H120800   5.230   4.600   0.372
 5020WAT     H220801   5.210   4.473   0.419
 5020WAT    EPW20802   5.183   4.539   0.387
 5021WAT      O20803   4.961   4.609   0.552
 5021WAT     H120804   4.995   4.677   0.595
 5021WAT     H220805   5.021   4.589   0.493
 5021WAT    EPW20806   4.975   4.616   0.550
 5022WAT      O20807   4.109   4.463   0.642
 5022WAT     H120808   4.158   4.391   0.650
 5022WAT     H220809   4.159   4.518   0.597
 5022WAT    EPW20810   4.124   4.460   0.637
 5023WAT      O20811   5.703   3.258   0.807
 5023WAT     H120812   5.652   3.328   0.817
 5023WAT     H220813   5.647   3.195   0.787
 5023WAT    EPW20814   5.687   3.259   0.806
 5024WAT      O20815   5.242   4.587   1.359
 5024WAT     H120816   5.308   4.642   1.344
 5024WAT     H220817   5.220   4.559   1.279
 5024WAT    EPW20818   5.249   4.591   1.345
 5025WAT      O20819   4.247   4.263   1.014
 5025WAT     H120820   4.296   4.235   0.948
 5025WAT     H220821   4.277   4.218   1.083
 5025WAT    EPW20822   4.259   4.252   1.015
 5026WAT      O20823   4.550   4.612   0.908
 5026WAT     H120824   4.630   4.624   0.877
 5026WAT     H220825   4.499   4.652   0.850
 5026WAT    EPW20826   4.554   4.619   0.895
 5027WAT      O20827   4.821   2.981   1.862
 5027WAT     H120828   4.838   2.901   1.831
 5027WAT     H220829   4.735   2.989   1.852
 5027WAT    EPW20830   4.811   2.970   1.856
 5028WAT      O20831   4.868   3.552   0.719
 5028WAT     H120832   4.896   3.504   0.652
 5028WAT     H220833   4.939   3.563   0.768
 5028WAT    EPW20834   4.883   3.547   0.717
 5029WAT      O20835   4.974   3.570   0.262
 5029WAT     H120836   5.000   3.647   0.294
 5029WAT     H220837   4.899   3.589   0.222
 5029WAT    EPW20838   4.967   3.584   0.261
 5030WAT      O20839   5.363   4.742   0.339
 5030WAT     H120840   5.406   4.702   0.276
 5030WAT     H220841   5.422   4.797   0.374
 5030WAT    EPW20842   5.378   4.744   0.335
 5031WAT      O20843   5.623   3.183   1.248
 5031WAT     H120844   5.683   3.176   1.185
 5031WAT     H220845   5.663   3.149   1.318
 5031WAT    EPW20846   5.638   3.177   1.249
 5032WAT      O20847   5.147   4.376   1.747
 5032WAT     H120848   5.145   4.406   1.829
 5032WAT     H220849   5.233   4.365   1.732
 5032WAT    EPW20850   5.160   4.379   1.757
 5033WAT      O20851   4.950   4.424   0.240
 5033WAT     H120852   4.891   4.487   0.246
 5033WAT     H220853   5.024   4.462   0.265
 5033WAT    EPW20854   4.952   4.439   0.245
 5034WAT      O20855   5.140   3.062   0.396
 5034WAT     H120856   5.210   3.020   0.366
 5034WAT     H220857   5.172   3.140   0.420
 5034WAT    EPW20858   5.155   3.067   0.396
 5035WAT      O20859   4.041   3.183   0.673
 5035WAT     H120860   4.010   3.113   0.632
 5035WAT     H220861   3.973   3.215   0.716
 5035WAT    EPW20862   4.027   3.177   0.673
 5036WAT      O20863   4.121   4.554   1.307
 5036WAT     H120864   4.083   4.475   1.311
 5036WAT     H220865   4.189   4.542   1.254
 5036WAT    EPW20866   4.125   4.540   1.300
 5037WAT      O20867   4.945   3.414   0.488
 5037WAT     H120868   4.873   3.369   0.470
 5037WAT     H220869   4.959   3.461   0.417
 5037WAT    EPW20870   4.937   3.414   0.475
 5038WAT      O20871   5.002   4.660   1.466
 5038WAT     H120872   5.079   4.644   1.429
 5038WAT     H220873   4.945   4.651   1.401
 5038WAT    EPW20874   5.005   4.656   1.451
 5039WAT      O20875   4.866   3.054   0.353
 5039WAT     H120876   4.842   3.133   0.328
 5039WAT     H220877   4.953   3.059   0.357
 5039WAT    EPW20878   4.876   3.066   0.350
 5040WAT      O20879   5.665   4.684   0.728
 5040WAT     H120880   5.624   4.760   0.742
 5040WAT     H220881   5.600   4.627   0.718
 5040WAT    EPW20882   5.649   4.687   0.728
 5041WAT      O20883   4.716   3.384   0.896
 5041WAT     H120884   4.759   3.440   0.845
 5041WAT     H220885   4.745   3.402   0.976
 5041WAT    EPW20886   4.727   3.395   0.901
 5042WAT      O20887   5.359   4.245   0.724
 5042WAT     H120888   5.426   4.194   0.744
 5042WAT     H220889   5.290   4.204   0.759
 5042WAT    EPW20890   5.358   4.231   0.732
 5043WAT      O20891   4.335   4.383   1.652
 5043WAT     H120892   4.370   4.448   1.606
 5043WAT     H220893   4.313   4.420   1.728
 5043WAT    EPW20894   4.337   4.398   1.656
 5044WAT      O20895   4.336   2.888   0.755
 5044WAT     H120896   4.377   2.961   0.730
 5044WAT     H220897   4.309   2.852   0.680
 5044WAT    EPW20898   4.338   2.893   0.740
 5045WAT      O20899   4.541   3.943   1.086
 5045WAT     H120900   4.567   3.924   1.167
 5045WAT     H220901   4.484   3.879   1.068
 5045WAT    EPW20902   4.536   3.931   1.096
 5046WAT      O20903   5.159   3.304   1.456
 5046WAT     H120904   5.156   3.349   1.530
 5046WAT     H220905   5.094   3.247   1.463
 5046WAT    EPW20906   5.149   3.302   1.468
 5047WAT      O20907   4.642   3.936   1.343
 5047WAT     H120908   4.639   4.023   1.352
 5047WAT     H220909   4.600   3.906   1.413
 5047WAT    EPW20910   4.636   3.945   1.354
 5048WAT      O20911   5.278   4.033   1.345
 5048WAT     H120912   5.202   4.002   1.376
 5048WAT     H220913   5.269   4.120   1.354
 5048WAT    EPW20914   5.265   4.041   1.351
 5049WAT      O20915   5.314   2.880   0.733
 5049WAT     H120916   5.313   2.855   0.817
 5049WAT     H220917   5.346   2.810   0.692
 5049WAT    EPW20918   5.319   2.866   0.739
 5050WAT      O20919   3.895   4.316   1.953
 5050WAT     H120920   3.957   4.358   1.997
 5050WAT     H220921   3.901   4.234   1.982
 5050WAT    EPW20922   3.905   4.310   1.964
 5051WAT      O20923   5.511   3.356   1.556
 5051WAT     H120924   5.596   3.344   1.571
 5051WAT     H220925   5.475   3.354   1.636
 5051WAT    EPW20926   5.518   3.354   1.570
 5052WAT      O20927   4.258   3.211   0.862
 5052WAT     H120928   4.322   3.179   0.812
 5052WAT     H220929   4.187   3.199   0.814
 5052WAT    EPW20930   4.257   3.204   0.848
 5053WAT      O20931   5.562   4.087   0.334
 5053WAT     H120932   5.558   4.035   0.404
 5053WAT     H220933   5.647   4.084   0.311
 5053WAT    EPW20934   5.574   4.079   0.341
 5054WAT      O20935   4.343   4.077   0.820
 5054WAT     H120936   4.415   4.051   0.777
 5054WAT     H220937   4.295   4.004   0.825
 5054WAT    EPW20938   4.347   4.062   0.814
 5055WAT      O20939   4.191   4.690   0.951
 5055WAT     H120940   4.117   4.650   0.928
 5055WAT     H220941   4.235   4.696   0.876
 5055WAT    EPW20942   4.186   4.685   0.937
 5056WAT      O20943   4.136   3.401   1.118
 5056WAT     H120944   4.206   3.428   1.162
 5056WAT     H220945   4.083   3.470   1.117
 5056WAT    EPW20946   4.138   3.415   1.124
 5057WAT      O20947   5.817   4.501   1.679
 5057WAT     H120948   5.741   4.501   1.636
 5057WAT     H220949   5.799   4.457   1.752
 5057WAT    EPW20950   5.803   4.495   1.683
 5058WAT      O20951   5.395   3.684   0.268
 5058WAT     H120952   5.320   3.648   0.241
 5058WAT     H220953   5.372   3.724   0.343
 5058WAT    EPW20954   5.380   3.685   0.275
 5059WAT      O20955   4.549   4.010   0.645
 5059WAT     H120956   4.607   4.068   0.617
 5059WAT     H220957   4.560   3.942   0.591
 5059WAT    EPW20958   4.559   4.008   0.633
 5060WAT      O20959   5.693   3.243   0.219
 5060WAT     H120960   5.712   3.170   0.175
 5060WAT     H220961   5.650   3.292   0.160
 5060WAT    EPW20962   5.689   3.240   0.204
 5061WAT      O20963   3.993   4.166   0.950
 5061WAT     H120964   3.939   4.225   0.983
 5061WAT     H220965   4.072   4.198   0.966
 5061WAT    EPW20966   3.996   4.179   0.957
 5062WAT      O20967   5.797   3.632   1.468
 5062WAT     H120968   5.829   3.560   1.429
 5062WAT     H220969   5.713   3.631   1.445
 5062WAT    EPW20970   5.789   3.621   1.459
 5063WAT      O20971   4.031   3.835   0.584
 5063WAT     H120972   4.005   3.752   0.588
 5063WAT     H220973   4.102   3.832   0.534
 5063WAT    EPW20974   4.038   3.822   0.577
 5064WAT      O20975   5.563   3.096   0.434
 5064WAT     H120976   5.637   3.056   0.455
 5064WAT     H220977   5.588   3.158   0.378
 5064WAT    EPW20978   5.578   3.099   0.429
 5065WAT      O20979   4.973   4.425   0.909
 5065WAT     H120980   4.928   4.497   0.891
 5065WAT     H220981   4.995   4.394   0.830
 5065WAT    EPW20982   4.970   4.431   0.895
 5066WAT      O20983   3.932   4.307   0.492
 5066WAT     H120984   3.987   4.363   0.532
 5066WAT     H220985   3.926   4.241   0.548
 5066WAT    EPW20986   3.940   4.306   0.506
 5067WAT      O20987   4.372   4.119   1.215
 5067WAT     H120988   4.430   4.158   1.268
 5067WAT     H220989   4.422   4.069   1.164
 5067WAT    EPW20990   4.388   4.117   1.215
 5068WAT      O20991   5.236   3.358   0.940
 5068WAT     H120992   5.256   3.347   1.024
 5068WAT     H220993   5.186   3.289   0.921
 5068WAT    EPW20994   5.232   3.346   0.949
 5069WAT      O20995   3.954   4.107   0.290
 5069WAT     H120996   4.035   4.074   0.284
 5069WAT     H220997   3.963   4.176   0.343
 5069WAT    EPW20998   3.967   4.112   0.297
 5070WAT      O20999   4.022   3.908   1.051
 5070WAT     H121000   4.072   3.879   0.986
 5070WAT     H221001   4.011   3.993   1.033
 5070WAT    EPW21002   4.028   3.916   1.039
 5071WAT      O21003   4.695   3.299   0.411
 5071WAT     H121004   4.638   3.237   0.390
 5071WAT     H221005   4.650   3.373   0.400
 5071WAT    EPW21006   4.680   3.301   0.406
 5072WAT      O21007   5.564   4.511   1.540
 5072WAT     H121008   5.520   4.585   1.552
 5072WAT     H221009   5.559   4.497   1.454
 5072WAT    EPW21010   5.557   4.520   1.529
 5073WAT      O21011   4.494   4.354   0.832
 5073WAT     H121012   4.502   4.435   0.863
 5073WAT     H221013   4.563   4.312   0.865
 5073WAT    EPW21014   4.505   4.360   0.841
 5074WAT      O21015   4.256   3.516   0.387
 5074WAT     H121016   4.264   3.452   0.446
 5074WAT     H221017   4.177   3.502   0.353
 5074WAT    EPW21018   4.245   3.504   0.390
 5075WAT      O21019   4.359   3.742   1.048
 5075WAT     H121020   4.346   3.705   0.970
 5075WAT     H221021   4.367   3.673   1.102
 5075WAT    EPW21022   4.358   3.726   1.045
 5076WAT      O21023   4.307   3.695   1.413
 5076WAT     H121024   4.334   3.643   1.349
 5076WAT     H221025   4.263   3.758   1.372
 5076WAT    EPW21026   4.304   3.697   1.398
 5077WAT      O21027   5.406   3.502   1.162
 5077WAT     H121028   5.341   3.528   1.213
 5077WAT     H221029   5.409   3.562   1.099
 5077WAT    EPW21030   5.397   3.514   1.160
 5078WAT      O21031   4.821   4.608   1.263
 5078WAT     H121032   4.767   4.546   1.236
 5078WAT     H221033   4.793   4.680   1.222
 5078WAT    EPW21034   4.809   4.609   1.253
 5079WAT      O21035   5.020   3.065   1.522
 5079WAT     H121036   5.020   2.979   1.507
 5079WAT     H221037   5.030   3.071   1.609
 5079WAT    EPW21038   5.022   3.053   1.533
 5080WAT      O21039   5.208   3.306   0.500
 5080WAT     H121040   5.265   3.369   0.519
 5080WAT     H221041   5.131   3.346   0.506
 5080WAT    EPW21042   5.205   3.321   0.504
 5081WAT      O21043   5.324   4.079   1.786
 5081WAT     H121044   5.358   4.157   1.765
 5081WAT     H221045   5.353   4.026   1.722
 5081WAT    EPW21046   5.333   4.083   1.773
 5082WAT      O21047   4.742   4.290   1.822
 5082WAT     H121048   4.695   4.220   1.843
 5082WAT     H221049   4.700   4.323   1.752
 5082WAT    EPW21050   4.729   4.285   1.815
 5083WAT      O21051   4.801   3.403   1.161
 5083WAT     H121052   4.857   3.470   1.164
 5083WAT     H221053   4.852   3.334   1.176
 5083WAT    EPW21054   4.817   3.403   1.163
 5084WAT      O21055   5.061   3.798   0.393
 5084WAT     H121056   5.080   3.880   0.369
 5084WAT     H221057   4.993   3.808   0.447
 5084WAT    EPW21058   5.054   3.811   0.397
 5085WAT      O21059   5.553   4.064   0.799
 5085WAT     H121060   5.572   4.009   0.864
 5085WAT     H221061   5.558   4.013   0.728
 5085WAT    EPW21062   5.557   4.048   0.798
 5086WAT      O21063   5.176   4.455   1.113
 5086WAT     H121064   5.108   4.441   1.059
 5086WAT     H221065   5.219   4.521   1.075
 5086WAT    EPW21066   5.172   4.463   1.099
 5087WAT      O21067   5.157   4.122   1.102
 5087WAT     H121068   5.081   4.150   1.135
 5087WAT     H221069   5.191   4.074   1.167
 5087WAT    EPW21070   5.151   4.119   1.117
 5088WAT      O21071   4.541   4.639   0.439
 5088WAT     H121072   4.554   4.571   0.491
 5088WAT     H221073   4.612   4.641   0.388
 5088WAT    EPW21074   4.554   4.629   0.439
 5089WAT      O21075   4.517   3.087   0.373
 5089WAT     H121076   4.517   3.004   0.397
 5089WAT     H221077   4.442   3.096   0.329
 5089WAT    EPW21078   4.506   3.076   0.370
 5090WAT      O21079   4.794   4.643   0.329
 5090WAT     H121080   4.833   4.625   0.405
 5090WAT     H221081   4.811   4.727   0.316
 5090WAT    EPW21082   4.802   4.653   0.338
 5091WAT      O21083   5.406   3.927   1.571
 5091WAT     H121084   5.373   3.969   1.502
 5091WAT     H221085   5.489   3.952   1.572
 5091WAT    EPW21086   5.413   3.937   1.561
 5092WAT      O21087   5.117   4.520   1.990
 5092WAT     H121088   5.144   4.540   2.070
 5092WAT     H221089   5.147   4.586   1.941
 5092WAT    EPW21090   5.125   4.533   1.994
 5093WAT      O21091   5.548   3.017   1.826
 5093WAT     H121092   5.504   2.964   1.772
 5093WAT     H221093   5.548   2.973   1.901
 5093WAT    EPW21094   5.541   3.003   1.829
 5094WAT      O21095   4.270   3.794   0.439
 5094WAT     H121096   4.266   3.708   0.426
 5094WAT     H221097   4.349   3.805   0.476
 5094WAT    EPW21098   4.281   3.783   0.443
 5095WAT      O21099   5.042   3.938   1.446
 5095WAT     H121100   4.995   3.984   1.503
 5095WAT     H221101   5.069   3.869   1.492
 5095WAT    EPW21102   5.039   3.935   1.461
 5096WAT      O21103   3.914   2.964   0.535
 5096WAT     H121104   3.920   2.911   0.466
 5096WAT     H221105   3.879   2.913   0.597
 5096WAT    EPW21106   3.910   2.948   0.534
 5097WAT      O21107   4.846   3.793   0.571
 5097WAT     H121108   4.862   3.856   0.629
 5097WAT     H221109   4.846   3.720   0.619
 5097WAT    EPW21110   4.849   3.791   0.586
 5098WAT      O21111   5.431   4.233   1.120
 5098WAT     H121112   5.468   4.230   1.041
 5098WAT     H221113   5.347   4.220   1.104
 5098WAT    EPW21114   5.424   4.231   1.106
 5099WAT      O21115   4.284   3.198   0.248
 5099WAT     H121116   4.237   3.170   0.180
 5099WAT     H221117   4.316   3.275   0.221
 5099WAT    EPW21118   4.282   3.205   0.234
 5100WAT      O21119   4.795   4.004   0.996
 5100WAT     H121120   4.712   3.980   1.010
 5100WAT     H221121   4.838   3.970   1.064
 5100WAT    EPW21122   4.789   3.995   1.008
 5101WAT      O21123   4.184   3.920   1.286
 5101WAT     H121124   4.240   3.985   1.268
 5101WAT     H221125   4.139   3.912   1.212
 5101WAT    EPW21126   4.186   3.929   1.272
 5102WAT      O21127   4.443   3.420   0.935
 5102WAT     H121128   4.526   3.401   0.916
 5102WAT     H221129   4.399   3.350   0.908
 5102WAT    EPW21130   4.449   3.407   0.928
 5103WAT      O21131   5.761   4.620   0.309
 5103WAT     H121132   5.835   4.576   0.295
 5103WAT     H221133   5.715   4.566   0.361
 5103WAT    EPW21134   5.765   4.605   0.315
 5104WAT      O21135   3.973   3.561   0.592
 5104WAT     H121136   4.003   3.520   0.663
 5104WAT     H221137   3.991   3.506   0.527
 5104WAT    EPW21138   3.980   3.547   0.593
 5105WAT      O21139   5.518   3.885   1.275
 5105WAT     H121140   5.516   3.815   1.326
 5105WAT     H221141   5.439   3.920   1.285
 5105WAT    EPW21142   5.506   3.880   1.284
 5106WAT      O21143   4.119   4.052   1.711
 5106WAT     H121144   4.092   3.992   1.654
 5106WAT     H221145   4.094   4.127   1.673
 5106WAT    EPW21146   4.111   4.054   1.697
 5107WAT      O21147   5.619   3.888   1.012
 5107WAT     H121148   5.592   3.892   1.095
 5107WAT     H221149   5.706   3.882   1.020
 5107WAT    EPW21150   5.628   3.888   1.025
 5108WAT      O21151   4.544   3.533   0.371
 5108WAT     H121152   4.561   3.613   0.400
 5108WAT     H221153   4.456   3.530   0.367
 5108WAT    EPW21154   4.533   3.544   0.375
 5109WAT      O21155   5.431   3.275   1.814
 5109WAT     H121156   5.356   3.275   1.859
 5109WAT     H221157   5.457   3.192   1.819
 5109WAT    EPW21158   5.424   3.263   1.821
 5110WAT      O21159   3.941   3.195   1.076
 5110WAT     H121160   3.898   3.210   1.001
 5110WAT     H221161   3.975   3.273   1.095
 5110WAT    EPW21162   3.939   3.209   1.068
 5111WAT      O21163   5.753   4.375   1.076
 5111WAT     H121164   5.788   4.432   1.020
 5111WAT     H221165   5.813   4.371   1.140
 5111WAT    EPW21166   5.767   4.383   1.077
 5112WAT      O21167   5.230   3.587   1.938
 5112WAT     H121168   5.277   3.610   2.007
 5112WAT     H221169   5.161   3.640   1.942
 5112WAT    EPW21170   5.227   3.598   1.949
 5113WAT      O21171   5.474   3.667   1.750
 5113WAT     H121172   5.504   3.744   1.779
 5113WAT     H221173   5.410   3.647   1.807
 5113WAT    EPW21174   5.469   3.676   1.763
 5114WAT      O21175   5.435   4.326   0.277
 5114WAT     H121176   5.475   4.249   0.282
 5114WAT     H221177   5.360   4.313   0.321
 5114WAT    EPW21178   5.430   4.313   0.284
 5115WAT      O21179   5.481   3.440   0.824
 5115WAT     H121180   5.411   3.401   0.858
 5115WAT     H221181   5.482   3.518   0.863
 5115WAT    EPW21182   5.471   3.446   0.835
 5116WAT      O21183   5.842   3.692   1.976
 5116WAT     H121184   5.822   3.662   1.896
 5116WAT     H221185   5.877   3.770   1.961
 5116WAT    EPW21186   5.844   3.699   1.962
 5117WAT      O21187   5.662   4.036   1.579
 5117WAT     H121188   5.731   3.990   1.552
 5117WAT     H221189   5.651   4.095   1.515
 5117WAT    EPW21190   5.671   4.038   1.565
 5118WAT      O21191   5.163   4.051   0.319
 5118WAT     H121192   5.190   4.113   0.374
 5118WAT     H221193   5.225   4.049   0.257
 5118WAT    EPW21194   5.176   4.059   0.318
 5119WAT      O21195   4.624   4.219   1.340
 5119WAT     H121196   4.628   4.262   1.416
 5119WAT     H221197   4.621   4.282   1.281
 5119WAT    EPW21198   4.624   4.234   1.343
 5120WAT      O21199   4.392   4.097   1.682
 5120WAT     H121200   4.309   4.077   1.699
 5120WAT     H221201   4.389   4.182   1.663
 5120WAT    EPW21202   4.379   4.107   1.681
 5121WAT      O21203   5.367   3.116   1.522
 5121WAT     H121204   5.420   3.186   1.530
 5121WAT     H221205   5.287   3.152   1.515
 5121WAT    EPW21206   5.363   3.132   1.522
 5122WAT      O21207   4.885   3.865   1.228
 5122WAT     H121208   4.941   3.894   1.289
 5122WAT     H221209   4.807   3.874   1.265
 5122WAT    EPW21210   4.882   3.871   1.242
 5123WAT      O21211   4.606   3.453   1.622
 5123WAT     H121212   4.568   3.384   1.659
 5123WAT     H221213   4.600   3.436   1.537
 5123WAT    EPW21214   4.599   3.440   1.615
 5124WAT      O21215   4.816   4.647   0.818
 5124WAT     H121216   4.833   4.729   0.840
 5124WAT     H221217   4.832   4.645   0.732
 5124WAT    EPW21218   4.821   4.658   0.808
 5125WAT      O21219   4.746   3.017   1.463
 5125WAT     H121220   4.827   3.040   1.483
 5125WAT     H221221   4.744   2.931   1.478
 5125WAT    EPW21222   4.758   3.008   1.468
 5126WAT      O21223   4.629   4.425   1.158
 5126WAT     H121224   4.563   4.469   1.123
 5126WAT     H221225   4.664   4.383   1.089
 5126WAT    EPW21226   4.625   4.425   1.142
 5127WAT      O21227   5.056   4.037   1.838
 5127WAT     H121228   5.137   4.057   1.813
 5127WAT     H221229   5.007   4.064   1.771
 5127WAT    EPW21230   5.061   4.044   1.824
 5128WAT      O21231   5.421   4.338   1.714
 5128WAT     H121232   5.455   4.370   1.788
 5128WAT     H221233   5.463   4.380   1.651
 5128WAT    EPW21234   5.432   4.349   1.716
 5129WAT      O21235   5.667   3.643   0.225
 5129WAT     H121236   5.692   3.706   0.171
 5129WAT     H221237   5.580   3.648   0.225
 5129WAT    EPW21238   5.658   3.653   0.217
 5130WAT      O21239   4.387   3.505   1.195
 5130WAT     H121240   4.412   3.476   1.116
 5130WAT     H221241   4.447   3.471   1.249
 5130WAT    EPW21242   4.400   3.496   1.191
 5131WAT      O21243   5.154   3.484   1.673
 5131WAT     H121244   5.075   3.520   1.686
 5131WAT     H221245   5.191   3.488   1.752
 5131WAT    EPW21246   5.148   3.490   1.687
 5132WAT      O21247   5.184   3.554   1.321
 5132WAT     H121248   5.194   3.612   1.385
 5132WAT     H221249   5.167   3.480   1.363
 5132WAT    EPW21250   5.183   3.552   1.337
 5133WAT      O21251   4.888   4.590   1.782
 5133WAT     H121252   4.903   4.535   1.716
 5133WAT     H221253   4.801   4.590   1.790
 5133WAT    EPW21254   4.877   4.582   1.774
 5134WAT      O21255   5.390   3.510   0.573
 5134WAT     H121256   5.413   3.483   0.652
 5134WAT     H221257   5.464   3.542   0.539
 5134WAT    EPW21258   5.404   3.511   0.579
 5135WAT      O21259   4.701   3.017   1.125
 5135WAT     H121260   4.616   3.003   1.132
 5135WAT     H221261   4.712   3.041   1.042
 5135WAT    EPW21262   4.690   3.018   1.114
 5136WAT      O21263   5.514   3.074   0.711
 5136WAT     H121264   5.439   3.030   0.721
 5136WAT     H221265   5.514   3.096   0.627
 5136WAT    EPW21266   5.503   3.070   0.700
 5137WAT      O21267   5.535   3.914   0.558
 5137WAT     H121268   5.582   3.842   0.546
 5137WAT     H221269   5.453   3.885   0.555
 5137WAT    EPW21270   5.530   3.899   0.556
 5138WAT      O21271   4.898   4.113   1.619
 5138WAT     H121272   4.819   4.107   1.655
 5138WAT     H221273   4.910   4.199   1.609
 5138WAT    EPW21274   4.888   4.125   1.623
 5139WAT      O21275   4.456   4.743   1.215
 5139WAT     H121276   4.463   4.719   1.299
 5139WAT     H221277   4.426   4.671   1.176
 5139WAT    EPW21278   4.453   4.729   1.222
 5140WAT      O21279   4.264   3.272   0.522
 5140WAT     H121280   4.257   3.234   0.444
 5140WAT     H221281   4.192   3.247   0.564
 5140WAT    EPW21282   4.253   3.262   0.517
 5141WAT      O21283   5.161   4.076   0.829
 5141WAT     H121284   5.155   4.093   0.914
 5141WAT     H221285   5.193   3.995   0.826
 5141WAT    EPW21286   5.165   4.066   0.841
 5142WAT      O21287   4.907   4.004   0.743
 5142WAT     H121288   4.866   3.997   0.820
 5142WAT     H221289   4.987   4.030   0.764
 5142WAT    EPW21290   4.913   4.007   0.757
 5143WAT      O21291   4.944   4.408   1.569
 5143WAT     H121292   5.014   4.392   1.618
 5143WAT     H221293   4.966   4.479   1.524
 5143WAT    EPW21294   4.957   4.416   1.570
 5144WAT      O21295   5.746   3.580   1.736
 5144WAT     H121296   5.662   3.601   1.743
 5144WAT     H221297   5.767   3.605   1.655
 5144WAT    EPW21298   5.737   3.587   1.725
 5145WAT      O21299   5.204   3.728   1.538
 5145WAT     H121300   5.196   3.662   1.595
 5145WAT     H221301   5.276   3.769   1.564
 5145WAT    EPW21302   5.214   3.724   1.550
 5146WAT      O21303   4.075   4.699   1.735
 5146WAT     H121304   4.014   4.637   1.732
 5146WAT     H221305   4.033   4.768   1.768
 5146WAT    EPW21306   4.060   4.700   1.739
 5147WAT      O21307   5.008   3.790   1.967
 5147WAT     H121308   5.035   3.865   1.931
 5147WAT     H221309   4.923   3.803   1.979
 5147WAT    EPW21310   5.000   3.803   1.964
 5148WAT      O21311   5.308   4.696   1.055
 5148WAT     H121312   5.252   4.759   1.077
 5148WAT     H221313   5.373   4.706   1.113
 5148WAT    EPW21314   5.310   4.707   1.067
 5149WAT      O21315   4.933   4.210   1.253
 5149WAT     H121316   4.850   4.207   1.281
 5149WAT     H221317   4.976   4.247   1.319
 5149WAT    EPW21318   4.927   4.215   1.267
 5150WAT      O21319   5.533   4.436   1.947
 5150WAT     H121320   5.615   4.408   1.943
 5150WAT     H221321   5.499   4.391   2.014
 5150WAT    EPW21322   5.540   4.425   1.956
 5151WAT      O21323   4.123   3.461   1.521
 5151WAT     H121324   4.182   3.525   1.512
 5151WAT     H221325   4.107   3.461   1.607
 5151WAT    EPW21326   4.130   3.471   1.532
 5152WAT      O21327   5.621   3.651   0.502
 5152WAT     H121328   5.642   3.652   0.417
 5152WAT     H221329   5.691   3.615   0.540
 5152WAT    EPW21330   5.634   3.646   0.495
 5153WAT      O21331   4.389   3.044   1.638
 5153WAT     H121332   4.443   3.001   1.692
 5153WAT     H221333   4.337   3.089   1.692
 5153WAT    EPW21334   4.389   3.044   1.654
 5154WAT      O21335   4.999   4.347   0.636
 5154WAT     H121336   4.978   4.428   0.611
 5154WAT     H221337   4.927   4.301   0.620
 5154WAT    EPW21338   4.985   4.352   0.630
 5155WAT      O21339   5.517   3.640   1.465
 5155WAT     H121340   5.503   3.554   1.466
 5155WAT     H221341   5.497   3.665   1.546
 5155WAT    EPW21342   5.512   3.631   1.477
 5156WAT      O21343   4.015   3.893   1.504
 5156WAT     H121344   4.067   3.914   1.437
 5156WAT     H221345   3.989   3.811   1.485
 5156WAT    EPW21346   4.019   3.884   1.491
 5157WAT      O21347   5.066   3.092   1.796
 5157WAT     H121348   5.096   3.157   1.846
 5157WAT     H221349   4.986   3.076   1.829
 5157WAT    EPW21350   5.058   3.099   1.808
 5158WAT      O21351   5.067   3.137   0.885
 5158WAT     H121352   4.981   3.142   0.898
 5158WAT     H221353   5.074   3.097   0.808
 5158WAT    EPW21354   5.056   3.132   0.875
 5159WAT      O21355   4.518   4.277   0.333
 5159WAT     H121356   4.542   4.318   0.407
 5159WAT     H221357   4.431   4.284   0.334
 5159WAT    EPW21358   4.509   4.284   0.344
 5160WAT      O21359   5.317   3.220   1.227
 5160WAT     H121360   5.388   3.270   1.220
 5160WAT     H221361   5.274   3.254   1.295
 5160WAT    EPW21362   5.321   3.233   1.236
 5161WAT      O21363   4.496   3.854   1.563
 5161WAT     H121364   4.453   3.922   1.595
 5161WAT     H221365   4.434   3.803   1.530
 5161WAT    EPW21366   4.481   3.856   1.563
 5162WAT      O21367   5.442   3.684   0.951
 5162WAT     H121368   5.503   3.745   0.967
 5162WAT     H221369   5.379   3.728   0.909
 5162WAT    EPW21370   5.442   3.700   0.947
 5163WAT      O21371   5.446   4.510   0.678
 5163WAT     H121372   5.418   4.432   0.705
 5163WAT     H221373   5.488   4.493   0.604
 5163WAT    EPW21374   5.448   4.496   0.671
 5164WAT      O21375   4.241   4.262   0.345
 5164WAT     H121376   4.236   4.246   0.431
 5164WAT     H221377   4.239   4.183   0.309
 5164WAT    EPW21378   4.240   4.248   0.352
 5165WAT      O21379   4.525   4.002   0.279
 5165WAT     H121380   4.440   4.003   0.259
 5165WAT     H221381   4.544   4.086   0.293
 5165WAT    EPW21382   4.515   4.014   0.278
 5166WAT      O21383   4.507   3.127   1.392
 5166WAT     H121384   4.461   3.116   1.466
 5166WAT     H221385   4.585   3.093   1.412
 5166WAT    EPW21386   4.512   3.120   1.406
 5167WAT      O21387   5.685   3.017   1.465
 5167WAT     H121388   5.684   3.054   1.544
 5167WAT     H221389   5.766   2.984   1.460
 5167WAT    EPW21390   5.697   3.017   1.476
 5168WAT      O21391   4.935   3.160   1.197
 5168WAT     H121392   4.862   3.112   1.195
 5168WAT     H221393   4.999   3.100   1.192
 5168WAT    EPW21394   4.934   3.144   1.196
 5169WAT      O21395   5.203   4.303   1.353
 5169WAT     H121396   5.230   4.375   1.395
 5169WAT     H221397   5.192   4.330   1.271
 5169WAT    EPW21398   5.205   4.317   1.347
 5170WAT      O21399   5.196   4.698   1.778
 5170WAT     H121400   5.131   4.662   1.733
 5170WAT     H221401   5.170   4.781   1.789
 5170WAT    EPW21402   5.182   4.705   1.773
 5171WAT      O21403   4.662   3.697   1.736
 5171WAT     H121404   4.640   3.618   1.708
 5171WAT     H221405   4.613   3.750   1.686
 5171WAT    EPW21406   4.651   3.693   1.725
 5172WAT      O21407   5.633   4.145   1.316
 5172WAT     H121408   5.614   4.061   1.301
 5172WAT     H221409   5.576   4.187   1.266
 5172WAT    EPW21410   5.622   4.138   1.307
 5173WAT      O21411   4.626   4.595   1.857
 5173WAT     H121412   4.566   4.603   1.920
 5173WAT     H221413   4.583   4.617   1.785
 5173WAT    EPW21414   4.611   4.599   1.856
 5174WAT      O21415   5.544   4.457   1.258
 5174WAT     H121416   5.613   4.449   1.205
 5174WAT     H221417   5.485   4.402   1.224
 5174WAT    EPW21418   5.546   4.448   1.245
 5175WAT      O21419   4.161   3.206   1.378
 5175WAT     H121420   4.139   3.143   1.434
 5175WAT     H221421   4.149   3.279   1.424
 5175WAT    EPW21422   4.156   3.208   1.393
 5176WAT      O21423   5.181   3.015   1.107
 5176WAT     H121424   5.220   3.086   1.140
 5176WAT     H221425   5.143   3.045   1.034
 5176WAT    EPW21426   5.181   3.030   1.101
 5177WAT      O21427   4.247   4.526   1.877
 5177WAT     H121428   4.308   4.567   1.924
 5177WAT     H221429   4.206   4.591   1.835
 5177WAT    EPW21430   4.250   4.542   1.878
 5178WAT      O21431   5.087   3.590   0.887
 5178WAT     H121432   5.136   3.519   0.898
 5178WAT     H221433   5.052   3.604   0.965
 5178WAT    EPW21434   5.089   3.582   0.900
 5179WAT      O21435   4.077   3.483   0.841
 5179WAT     H121436   4.030   3.529   0.898
 5179WAT     H221437   4.114   3.422   0.890
 5179WAT    EPW21438   4.075   3.481   0.857
 5180WAT      O21439   4.079   4.299   1.581
 5180WAT     H121440   4.029   4.359   1.620
 5180WAT     H221441   4.161   4.329   1.594
 5180WAT    EPW21442   4.084   4.313   1.589
 5181WAT      O21443   5.294   3.766   0.535
 5181WAT     H121444   5.310   3.681   0.547
 5181WAT     H221445   5.216   3.767   0.496
 5181WAT    EPW21446   5.285   3.754   0.531
 5182WAT      O21447   4.267   4.625   0.477
 5182WAT     H121448   4.225   4.599   0.405
 5182WAT     H221449   4.351   4.627   0.452
 5182WAT    EPW21450   4.273   4.621   0.462
 5183WAT      O21451   4.587   3.800   0.459
 5183WAT     H121452   4.584   3.859   0.395
 5183WAT     H221453   4.670   3.800   0.484
 5183WAT    EPW21454   4.599   3.809   0.453
 5184WAT      O21455   5.515   4.591   0.162
 5184WAT     H121456   5.596   4.597   0.193
 5184WAT     H221457   5.494   4.508   0.176
 5184WAT    EPW21458   5.524   4.580   0.168
 5185WAT      O21459   5.603   3.898   1.833
 5185WAT     H121460   5.618   3.931   1.913
 5185WAT     H221461   5.631   3.960   1.779
 5185WAT    EPW21462   5.610   3.912   1.837
 5186WAT      O21463   5.227   4.276   0.480
 5186WAT     H121464   5.280   4.262   0.548
 5186WAT     H221465   5.149   4.289   0.518
 5186WAT    EPW21466   5.223   4.276   0.496
 5187WAT      O21467   5.656   3.358   1.952
 5187WAT     H121468   5.642   3.436   1.989
 5187WAT     H221469   5.582   3.342   1.910
 5187WAT    EPW21470   5.643   3.367   1.951
 5188WAT      O21471   5.675   3.467   1.227
 5188WAT     H121472   5.592   3.488   1.211
 5188WAT     H221473   5.673   3.380   1.235
 5188WAT    EPW21474   5.663   3.457   1.226
 5189WAT      O21475   5.325   3.954   2.039
 5189WAT     H121476   5.400   3.978   2.075
 5189WAT     H221477   5.329   3.987   1.958
 5189WAT    EPW21478   5.336   3.962   2.032
 5190WAT      O21479   4.323   4.512   1.113
 5190WAT     H121480   4.305   4.433   1.082
 5190WAT     H221481   4.284   4.566   1.057
 5190WAT    EPW21482   4.315   4.508   1.100
 5191WAT      O21483   4.907   4.168   0.343
 5191WAT     H121484   4.981   4.128   0.320
 5191WAT     H221485   4.911   4.245   0.303
 5191WAT    EPW21486   4.918   4.173   0.334
 5192WAT      O21487   4.048   4.772   1.463
 5192WAT     H121488   4.070   4.744   1.543
 5192WAT     H221489   4.074   4.708   1.410
 5192WAT    EPW21490   4.055   4.759   1.467
 5193WAT      O21491   5.044   1.147   6.388
 5193WAT     H121492   5.045   1.194   6.315
 5193WAT     H221493   5.129   1.132   6.404
 5193WAT    EPW21494   5.057   1.152   6.380
 5194WAT      O21495   5.001   1.769   6.835
 5194WAT     H121496   4.966   1.846   6.855
 5194WAT     H221497   5.056   1.753   6.901
 5194WAT    EPW21498   5.004   1.778   6.848
 5195WAT      O21499   3.962   2.250   6.366
 5195WAT     H121500   3.961   2.256   6.453
 5195WAT     H221501   3.958   2.164   6.351
 5195WAT    EPW21502   3.961   2.238   6.376
 5196WAT      O21503   5.600   2.620   6.154
 5196WAT     H121504   5.663   2.563   6.173
 5196WAT     H221505   5.548   2.575   6.100
 5196WAT    EPW21506   5.601   2.605   6.149
 5197WAT      O21507   3.947   1.572   6.007
 5197WAT     H121508   3.881   1.626   5.989
 5197WAT     H221509   3.912   1.493   5.997
 5197WAT    EPW21510   3.932   1.569   6.003
 5198WAT      O21511   4.194   2.193   5.920
 5198WAT     H121512   4.182   2.151   5.845
 5198WAT     H221513   4.208   2.129   5.978
 5198WAT    EPW21514   4.194   2.177   5.918
 5199WAT      O21515   5.246   1.953   6.480
 5199WAT     H121516   5.255   1.938   6.394
 5199WAT     H221517   5.191   1.890   6.506
 5199WAT    EPW21518   5.239   1.941   6.471
 5200WAT      O21519   4.208   2.371   6.307
 5200WAT     H121520   4.263   2.330   6.361
 5200WAT     H221521   4.132   2.329   6.320
 5200WAT    EPW21522   4.205   2.359   6.317
 5201WAT      O21523   4.684   1.278   6.251
 5201WAT     H121524   4.676   1.350   6.202
 5201WAT     H221525   4.763   1.247   6.228
 5201WAT    EPW21526   4.695   1.284   6.240
 5202WAT      O21527   4.116   2.650   5.911
 5202WAT     H121528   4.154   2.665   5.834
 5202WAT     H221529   4.161   2.583   5.944
 5202WAT    EPW21530   4.128   2.642   5.905
 5203WAT      O21531   4.005   2.465   7.040
 5203WAT     H121532   4.031   2.443   7.120
 5203WAT     H221533   3.936   2.413   7.026
 5203WAT    EPW21534   3.998   2.454   7.049
 5204WAT      O21535   4.670   2.306   7.469
 5204WAT     H121536   4.681   2.259   7.542
 5204WAT     H221537   4.591   2.280   7.440
 5204WAT    EPW21538   4.660   2.295   7.476
 5205WAT      O21539   4.159   1.990   6.497
 5205WAT     H121540   4.108   1.987   6.426
 5205WAT     H221541   4.216   1.926   6.485
 5205WAT    EPW21542   4.160   1.980   6.485
 5206WAT      O21543   4.599   1.578   7.035
 5206WAT     H121544   4.668   1.584   6.983
 5206WAT     H221545   4.574   1.494   7.028
 5206WAT    EPW21546   4.605   1.566   7.026
 5207WAT      O21547   4.607   2.544   7.220
 5207WAT     H121548   4.585   2.619   7.181
 5207WAT     H221549   4.693   2.552   7.232
 5207WAT    EPW21550   4.616   2.556   7.216
 5208WAT      O21551   4.336   1.778   6.482
 5208WAT     H121552   4.403   1.726   6.503
 5208WAT     H221553   4.268   1.724   6.483
 5208WAT    EPW21554   4.336   1.762   6.486
 5209WAT      O21555   4.757   2.420   6.652
 5209WAT     H121556   4.781   2.337   6.664
 5209WAT     H221557   4.831   2.459   6.629
 5209WAT    EPW21558   4.771   2.413   6.650
 5210WAT      O21559   4.809   2.332   6.256
 5210WAT     H121560   4.839   2.265   6.303
 5210WAT     H221561   4.822   2.307   6.173
 5210WAT    EPW21562   4.815   2.319   6.251
 5211WAT      O21563   4.954   1.778   7.440
 5211WAT     H121564   4.870   1.785   7.416
 5211WAT     H221565   4.960   1.836   7.506
 5211WAT    EPW21566   4.942   1.788   7.446
 5212WAT      O21567   4.411   1.290   6.344
 5212WAT     H121568   4.372   1.348   6.293
 5212WAT     H221569   4.495   1.294   6.321
 5212WAT    EPW21570   4.418   1.299   6.333
 5213WAT      O21571   5.432   1.068   7.335
 5213WAT     H121572   5.413   1.138   7.286
 5213WAT     H221573   5.356   1.048   7.372
 5213WAT    EPW21574   5.418   1.076   7.334
 5214WAT      O21575   4.726   1.215   6.524
 5214WAT     H121576   4.738   1.298   6.550
 5214WAT     H221577   4.704   1.223   6.440
 5214WAT    EPW21578   4.724   1.229   6.515
 5215WAT      O21579   5.167   1.439   5.778
 5215WAT     H121580   5.119   1.507   5.806
 5215WAT     H221581   5.177   1.391   5.851
 5215WAT    EPW21582   5.161   1.442   5.793
 5216WAT      O21583   3.984   1.742   6.743
 5216WAT     H121584   3.984   1.829   6.755
 5216WAT     H221585   3.916   1.715   6.791
 5216WAT    EPW21586   3.974   1.751   6.752
 5217WAT      O21587   3.950   2.709   6.573
 5217WAT     H121588   3.889   2.757   6.534
 5217WAT     H221589   3.992   2.672   6.505
 5217WAT    EPW21590   3.947   2.710   6.557
 5218WAT      O21591   4.535   2.383   6.258
 5218WAT     H121592   4.516   2.421   6.335
 5218WAT     H221593   4.622   2.377   6.259
 5218WAT    EPW21594   4.545   2.388   6.270
 5219WAT      O21595   5.173   2.724   6.035
 5219WAT     H121596   5.241   2.777   6.048
 5219WAT     H221597   5.201   2.647   6.064
 5219WAT    EPW21598   5.187   2.720   6.041
 5220WAT      O21599   4.948   2.735   6.196
 5220WAT     H121600   4.960   2.803   6.248
 5220WAT     H221601   5.013   2.741   6.138
 5220WAT    EPW21602   4.959   2.746   6.195
 5221WAT      O21603   4.291   1.244   6.779
 5221WAT     H121604   4.240   1.179   6.751
 5221WAT     H221605   4.352   1.203   6.826
 5221WAT    EPW21606   4.293   1.228   6.782
 5222WAT      O21607   4.083   2.617   6.346
 5222WAT     H121608   4.140   2.551   6.347
 5222WAT     H221609   4.120   2.675   6.293
 5222WAT    EPW21610   4.097   2.616   6.338
 5223WAT      O21611   5.725   1.430   6.493
 5223WAT     H121612   5.674   1.501   6.501
 5223WAT     H221613   5.668   1.365   6.485
 5223WAT    EPW21614   5.709   1.431   6.493
 5224WAT      O21615   5.224   2.752   7.053
 5224WAT     H121616   5.291   2.807   7.044
 5224WAT     H221617   5.206   2.729   6.971
 5224WAT    EPW21618   5.231   2.756   7.039
 5225WAT      O21619   4.156   1.436   7.558
 5225WAT     H121620   4.088   1.383   7.552
 5225WAT     H221621   4.220   1.391   7.520
 5225WAT    EPW21622   4.156   1.422   7.551
 5226WAT      O21623   4.262   2.430   6.677
 5226WAT     H121624   4.323   2.423   6.616
 5226WAT     H221625   4.289   2.377   6.740
 5226WAT    EPW21626   4.275   2.421   6.677
 5227WAT      O21627   4.565   2.746   6.611
 5227WAT     H121628   4.649   2.763   6.594
 5227WAT     H221629   4.522   2.784   6.545
 5227WAT    EPW21630   4.571   2.754   6.599
 5228WAT      O21631   4.805   1.218   7.556
 5228WAT     H121632   4.814   1.139   7.518
 5228WAT     H221633   4.739   1.254   7.512
 5228WAT    EPW21634   4.796   1.211   7.544
 5229WAT      O21635   4.891   1.675   6.412
 5229WAT     H121636   4.920   1.636   6.339
 5229WAT     H221637   4.964   1.689   6.458
 5229WAT    EPW21638   4.906   1.671   6.408
 5230WAT      O21639   5.000   1.642   5.898
 5230WAT     H121640   5.025   1.722   5.925
 5230WAT     H221641   4.924   1.658   5.858
 5230WAT    EPW21642   4.993   1.656   5.896
 5231WAT      O21643   5.379   2.917   6.039
 5231WAT     H121644   5.430   2.895   5.971
 5231WAT     H221645   5.433   2.963   6.090
 5231WAT    EPW21646   5.395   2.920   6.037
 5232WAT      O21647   4.454   2.766   7.134
 5232WAT     H121648   4.460   2.790   7.218
 5232WAT     H221649   4.373   2.735   7.128
 5232WAT    EPW21650   4.443   2.765   7.146
 5233WAT      O21651   5.634   1.354   6.900
 5233WAT     H121652   5.700   1.342   6.844
 5233WAT     H221653   5.653   1.300   6.966
 5233WAT    EPW21654   5.646   1.344   6.901
 5234WAT      O21655   3.872   1.425   7.282
 5234WAT     H121656   3.868   1.487   7.343
 5234WAT     H221657   3.936   1.451   7.229
 5234WAT    EPW21658   3.881   1.438   7.283
 5235WAT      O21659   5.071   2.509   7.445
 5235WAT     H121660   5.067   2.438   7.496
 5235WAT     H221661   5.157   2.517   7.429
 5235WAT    EPW21662   5.083   2.500   7.450
 5236WAT      O21663   4.871   2.524   5.848
 5236WAT     H121664   4.833   2.585   5.898
 5236WAT     H221665   4.947   2.561   5.825
 5236WAT    EPW21666   4.877   2.539   5.852
 5237WAT      O21667   5.191   1.283   6.009
 5237WAT     H121668   5.248   1.218   6.013
 5237WAT     H221669   5.209   1.332   6.079
 5237WAT    EPW21670   5.202   1.281   6.020
 5238WAT      O21671   4.021   1.385   6.276
 5238WAT     H121672   3.994   1.304   6.256
 5238WAT     H221673   3.971   1.407   6.344
 5238WAT    EPW21674   4.009   1.376   6.283
 5239WAT      O21675   4.192   2.683   7.041
 5239WAT     H121676   4.138   2.615   7.041
 5239WAT     H221677   4.224   2.683   6.960
 5239WAT    EPW21678   4.189   2.673   7.029
 5240WAT      O21679   4.953   1.559   6.162
 5240WAT     H121680   4.877   1.519   6.147
 5240WAT     H221681   4.976   1.589   6.083
 5240WAT    EPW21682   4.945   1.558   6.148
 5241WAT      O21683   4.977   2.792   7.166
 5241WAT     H121684   5.057   2.782   7.131
 5241WAT     H221685   4.925   2.796   7.096
 5241WAT    EPW21686   4.981   2.791   7.150
 5242WAT      O21687   4.944   1.225   6.127
 5242WAT     H121688   4.890   1.204   6.062
 5242WAT     H221689   5.018   1.246   6.086
 5242WAT    EPW21690   4.947   1.225   6.111
 5243WAT      O21691   5.658   2.841   6.442
 5243WAT     H121692   5.616   2.916   6.455
 5243WAT     H221693   5.594   2.784   6.427
 5243WAT    EPW21694   5.642   2.843   6.441
 5244WAT      O21695   4.776   1.485   6.586
 5244WAT     H121696   4.804   1.549   6.533
 5244WAT     H221697   4.785   1.519   6.666
 5244WAT    EPW21698   4.782   1.500   6.590
 5245WAT      O21699   5.398   2.413   6.493
 5245WAT     H121700   5.462   2.354   6.485
 5245WAT     H221701   5.325   2.366   6.486
 5245WAT    EPW21702   5.397   2.397   6.491
 5246WAT      O21703   4.357   2.498   7.341
 5246WAT     H121704   4.433   2.519   7.305
 5246WAT     H221705   4.346   2.557   7.404
 5246WAT    EPW21706   4.366   2.510   7.345
 5247WAT      O21707   4.350   1.031   6.432
 5247WAT     H121708   4.370   1.113   6.409
 5247WAT     H221709   4.322   0.995   6.358
 5247WAT    EPW21710   4.349   1.038   6.418
 5248WAT      O21711   4.552   2.094   6.761
 5248WAT     H121712   4.577   2.080   6.843
 5248WAT     H221713   4.494   2.030   6.746
 5248WAT    EPW21714   4.547   2.083   6.771
 5249WAT      O21715   5.113   1.456   7.157
 5249WAT     H121716   5.104   1.484   7.239
 5249WAT     H221717   5.050   1.397   7.148
 5249WAT    EPW21718   5.102   1.452   7.168
 5250WAT      O21719   4.654   2.099   7.017
 5250WAT     H121720   4.640   2.185   7.023
 5250WAT     H221721   4.620   2.068   7.091
 5250WAT    EPW21722   4.647   2.107   7.029
 5251WAT      O21723   5.285   2.194   7.035
 5251WAT     H121724   5.210   2.161   7.067
 5251WAT     H221725   5.273   2.280   7.040
 5251WAT    EPW21726   5.272   2.202   7.041
 5252WAT      O21727   5.303   1.073   6.470
 5252WAT     H121728   5.307   1.055   6.555
 5252WAT     H221729   5.339   1.003   6.432
 5252WAT    EPW21730   5.309   1.060   6.477
 5253WAT      O21731   5.500   1.535   7.231
 5253WAT     H121732   5.583   1.508   7.233
 5253WAT     H221733   5.481   1.546   7.315
 5253WAT    EPW21734   5.510   1.533   7.244
 5254WAT      O21735   4.292   1.420   6.569
 5254WAT     H121736   4.319   1.368   6.504
 5254WAT     H221737   4.288   1.367   6.638
 5254WAT    EPW21738   4.295   1.405   6.570
 5255WAT      O21739   5.574   2.214   6.019
 5255WAT     H121740   5.577   2.167   6.092
 5255WAT     H221741   5.658   2.225   5.998
 5255WAT    EPW21742   5.587   2.209   6.026
 5256WAT      O21743   4.342   2.199   6.480
 5256WAT     H121744   4.391   2.164   6.417
 5256WAT     H221745   4.283   2.137   6.496
 5256WAT    EPW21746   4.341   2.184   6.473
 5257WAT      O21747   4.169   2.871   6.624
 5257WAT     H121748   4.093   2.828   6.611
 5257WAT     H221749   4.182   2.912   6.548
 5257WAT    EPW21750   4.159   2.870   6.610
 5258WAT      O21751   4.144   1.549   6.859
 5258WAT     H121752   4.228   1.572   6.854
 5258WAT     H221753   4.103   1.619   6.826
 5258WAT    EPW21754   4.150   1.563   6.853
 5259WAT      O21755   5.799   2.648   7.375
 5259WAT     H121756   5.734   2.651   7.317
 5259WAT     H221757   5.759   2.644   7.452
 5259WAT    EPW21758   5.784   2.648   7.378
 5260WAT      O21759   5.393   1.873   5.936
 5260WAT     H121760   5.386   1.955   5.906
 5260WAT     H221761   5.364   1.878   6.018
 5260WAT    EPW21762   5.388   1.886   5.943
 5261WAT      O21763   4.452   2.120   6.232
 5261WAT     H121764   4.477   2.204   6.230
 5261WAT     H221765   4.525   2.077   6.210
 5261WAT    EPW21766   4.467   2.126   6.229
 5262WAT      O21767   5.720   1.349   5.940
 5262WAT     H121768   5.758   1.283   5.898
 5262WAT     H221769   5.690   1.400   5.876
 5262WAT    EPW21770   5.721   1.347   5.925
 5263WAT      O21771   4.005   2.312   6.645
 5263WAT     H121772   3.955   2.372   6.683
 5263WAT     H221773   4.085   2.348   6.647
 5263WAT    EPW21774   4.009   2.326   6.651
 5264WAT      O21775   5.811   1.770   7.166
 5264WAT     H121776   5.830   1.698   7.122
 5264WAT     H221777   5.727   1.784   7.147
 5264WAT    EPW21778   5.801   1.762   7.157
 5265WAT      O21779   4.004   1.981   6.272
 5265WAT     H121780   3.989   1.895   6.269
 5265WAT     H221781   4.069   1.993   6.216
 5265WAT    EPW21782   4.011   1.970   6.263
 5266WAT      O21783   5.575   1.239   6.157
 5266WAT     H121784   5.649   1.197   6.179
 5266WAT     H221785   5.600   1.291   6.092
 5266WAT    EPW21786   5.590   1.240   6.150
 5267WAT      O21787   4.977   2.578   6.583
 5267WAT     H121788   4.928   2.646   6.559
 5267WAT     H221789   5.006   2.546   6.508
 5267WAT    EPW21790   4.974   2.583   6.569
 5268WAT      O21791   3.913   2.461   6.194
 5268WAT     H121792   3.967   2.517   6.233
 5268WAT     H221793   3.908   2.394   6.250
 5268WAT    EPW21794   3.920   2.459   6.208
 5269WAT      O21795   4.360   2.261   6.874
 5269WAT     H121796   4.415   2.301   6.928
 5269WAT     H221797   4.413   2.212   6.824
 5269WAT    EPW21798   4.376   2.260   6.874
 5270WAT      O21799   5.260   1.500   6.608
 5270WAT     H121800   5.291   1.468   6.683
 5270WAT     H221801   5.195   1.446   6.587
 5270WAT    EPW21802   5.255   1.488   6.616
 5271WAT      O21803   3.938   2.305   5.962
 5271WAT     H121804   4.016   2.268   5.954
 5271WAT     H221805   3.947   2.356   6.033
 5271WAT    EPW21806   3.951   2.307   5.972
 5272WAT      O21807   4.013   2.044   6.726
 5272WAT     H121808   4.063   2.019   6.659
 5272WAT     H221809   4.008   2.130   6.716
 5272WAT    EPW21810   4.020   2.053   6.715
 5273WAT      O21811   4.683   1.492   6.076
 5273WAT     H121812   4.673   1.460   5.996
 5273WAT     H221813   4.646   1.571   6.071
 5273WAT    EPW21814   4.676   1.499   6.063
 5274WAT      O21815   5.547   2.657   7.231
 5274WAT     H121816   5.511   2.736   7.237
 5274WAT     H221817   5.541   2.637   7.146
 5274WAT    EPW21818   5.541   2.665   7.219
 5275WAT      O21819   4.507   2.482   6.524
 5275WAT     H121820   4.518   2.567   6.540
 5275WAT     H221821   4.579   2.446   6.558
 5275WAT    EPW21822   4.519   2.489   6.532
 5276WAT      O21823   4.116   1.709   7.487
 5276WAT     H121824   4.135   1.632   7.523
 5276WAT     H221825   4.162   1.708   7.412
 5276WAT    EPW21826   4.126   1.697   7.481
 5277WAT      O21827   4.294   1.727   6.067
 5277WAT     H121828   4.282   1.658   6.120
 5277WAT     H221829   4.251   1.704   5.994
 5277WAT    EPW21830   4.286   1.713   6.064
 5278WAT      O21831   4.360   1.900   6.733
 5278WAT     H121832   4.351   1.874   6.651
 5278WAT     H221833   4.374   1.826   6.777
 5278WAT    EPW21834   4.361   1.886   6.727
 5279WAT      O21835   4.342   1.873   7.072
 5279WAT     H121836   4.368   1.824   7.005
 5279WAT     H221837   4.288   1.931   7.035
 5279WAT    EPW21838   4.338   1.875   7.057
 5280WAT      O21839   5.403   1.682   6.889
 5280WAT     H121840   5.333   1.704   6.937
 5280WAT     H221841   5.399   1.736   6.821
 5280WAT    EPW21842   5.392   1.693   6.886
 5281WAT      O21843   4.771   2.792   6.983
 5281WAT     H121844   4.733   2.723   6.944
 5281WAT     H221845   4.766   2.855   6.923
 5281WAT    EPW21846   4.765   2.791   6.968
 5282WAT      O21847   4.957   1.229   7.231
 5282WAT     H121848   4.980   1.148   7.209
 5282WAT     H221849   4.988   1.238   7.312
 5282WAT    EPW21850   4.965   1.219   7.240
 5283WAT      O21851   5.198   1.436   6.236
 5283WAT     H121852   5.257   1.500   6.245
 5283WAT     H221853   5.123   1.479   6.221
 5283WAT    EPW21854   5.196   1.452   6.235
 5284WAT      O21855   4.033   1.971   7.575
 5284WAT     H121856   4.079   2.028   7.529
 5284WAT     H221857   4.066   1.894   7.551
 5284WAT    EPW21858   4.045   1.968   7.565
 5285WAT      O21859   5.314   2.272   7.479
 5285WAT     H121860   5.341   2.353   7.460
 5285WAT     H221861   5.344   2.224   7.413
 5285WAT    EPW21862   5.322   2.277   7.466
 5286WAT      O21863   4.708   2.594   7.515
 5286WAT     H121864   4.712   2.588   7.602
 5286WAT     H221865   4.696   2.512   7.489
 5286WAT    EPW21866   4.707   2.581   7.524
 5287WAT      O21867   4.804   1.574   6.845
 5287WAT     H121868   4.867   1.634   6.848
 5287WAT     H221869   4.842   1.502   6.878
 5287WAT    EPW21870   4.819   1.572   6.850
 5288WAT      O21871   5.064   1.880   6.039
 5288WAT     H121872   5.048   1.939   5.977
 5288WAT     H221873   5.004   1.897   6.100
 5288WAT    EPW21874   5.053   1.891   6.039
 5289WAT      O21875   5.585   2.206   6.477
 5289WAT     H121876   5.591   2.154   6.546
 5289WAT     H221877   5.569   2.152   6.411
 5289WAT    EPW21878   5.584   2.190   6.478
 5290WAT      O21879   5.156   2.632   6.802
 5290WAT     H121880   5.098   2.610   6.740
 5290WAT     H221881   5.207   2.690   6.763
 5290WAT    EPW21882   5.155   2.637   6.787
 5291WAT      O21883   5.154   2.253   6.789
 5291WAT     H121884   5.080   2.283   6.824
 5291WAT     H221885   5.193   2.210   6.855
 5291WAT    EPW21886   5.149   2.251   6.804
 5292WAT      O21887   4.483   1.140   6.002
 5292WAT     H121888   4.486   1.140   6.089
 5292WAT     H221889   4.436   1.211   5.984
 5292WAT    EPW21890   4.476   1.151   6.012
 5293WAT      O21891   4.744   2.710   6.002
 5293WAT     H121892   4.790   2.715   6.077
 5293WAT     H221893   4.748   2.791   5.970
 5293WAT    EPW21894   4.751   2.723   6.009
 5294WAT      O21895   5.406   2.113   7.277
 5294WAT     H121896   5.376   2.136   7.199
 5294WAT     H221897   5.493   2.120   7.269
 5294WAT    EPW21898   5.415   2.118   7.264
 5295WAT      O21899   5.637   1.052   7.525
 5295WAT     H121900   5.574   1.061   7.465
 5295WAT     H221901   5.593   1.053   7.600
 5295WAT    EPW21902   5.621   1.053   7.527
 5296WAT      O21903   4.232   1.999   6.115
 5296WAT     H121904   4.255   1.915   6.105
 5296WAT     H221905   4.300   2.034   6.157
 5296WAT    EPW21906   4.245   1.992   6.120
 5297WAT      O21907   5.053   2.089   7.133
 5297WAT     H121908   4.997   2.133   7.184
 5297WAT     H221909   5.077   2.022   7.182
 5297WAT    EPW21910   5.048   2.086   7.148
 5298WAT      O21911   3.917   1.126   6.215
 5298WAT     H121912   3.921   1.067   6.151
 5298WAT     H221913   3.886   1.082   6.283
 5298WAT    EPW21914   3.913   1.111   6.215
 5299WAT      O21915   4.902   1.916   6.267
 5299WAT     H121916   4.915   1.983   6.322
 5299WAT     H221917   4.892   1.847   6.320
 5299WAT    EPW21918   4.903   1.916   6.283
 5300WAT      O21919   5.391   2.408   6.775
 5300WAT     H121920   5.405   2.419   6.690
 5300WAT     H221921   5.314   2.366   6.778
 5300WAT    EPW21922   5.382   2.403   6.763
 5301WAT      O21923   4.351   1.376   5.927
 5301WAT     H121924   4.293   1.380   5.862
 5301WAT     H221925   4.423   1.409   5.892
 5301WAT    EPW21926   4.353   1.382   5.913
 5302WAT      O21927   4.810   2.146   6.675
 5302WAT     H121928   4.727   2.126   6.689
 5302WAT     H221929   4.851   2.113   6.744
 5302WAT    EPW21930   4.804   2.138   6.687
 5303WAT      O21931   4.454   2.766   5.788
 5303WAT     H121932   4.480   2.694   5.829
 5303WAT     H221933   4.468   2.829   5.846
 5303WAT    EPW21934   4.460   2.765   5.803
 5304WAT      O21935   4.174   2.068   6.959
 5304WAT     H121936   4.228   2.133   6.938
 5304WAT     H221937   4.131   2.052   6.885
 5304WAT    EPW21938   4.176   2.075   6.945
 5305WAT      O21939   4.505   1.589   6.608
 5305WAT     H121940   4.582   1.550   6.597
 5305WAT     H221941   4.448   1.525   6.594
 5305WAT    EPW21942   4.508   1.574   6.604
 5306WAT      O21943   5.771   2.790   6.018
 5306WAT     H121944   5.838   2.741   5.992
 5306WAT     H221945   5.720   2.733   6.060
 5306WAT    EPW21946   5.773   2.774   6.021
 5307WAT      O21947   3.973   1.701   6.272
 5307WAT     H121948   4.010   1.668   6.344
 5307WAT     H221949   3.983   1.637   6.213
 5307WAT    EPW21950   3.980   1.686   6.274
 5308WAT      O21951   5.528   2.064   6.963
 5308WAT     H121952   5.533   1.994   7.015
 5308WAT     H221953   5.447   2.094   6.976
 5308WAT    EPW21954   5.517   2.058   6.973
 5309WAT      O21955   4.494   1.960   5.824
 5309WAT     H121956   4.500   1.896   5.883
 5309WAT     H221957   4.450   1.922   5.758
 5309WAT    EPW21958   4.488   1.945   5.823
 5310WAT      O21959   4.141   2.164   7.397
 5310WAT     H121960   4.109   2.118   7.330
 5310WAT     H221961   4.113   2.245   7.383
 5310WAT    EPW21962   4.132   2.169   7.385
 5311WAT      O21963   5.621   2.035   6.700
 5311WAT     H121964   5.595   2.051   6.782
 5311WAT     H221965   5.708   2.030   6.707
 5311WAT    EPW21966   5.630   2.036   6.714
 5312WAT      O21967   4.562   1.748   6.014
 5312WAT     H121968   4.591   1.811   6.067
 5312WAT     H221969   4.479   1.738   6.038
 5312WAT    EPW21970   4.554   1.756   6.025
 5313WAT      O21971   5.384   1.468   7.504
 5313WAT     H121972   5.340   1.484   7.578
 5313WAT     H221973   5.349   1.394   7.474
 5313WAT    EPW21974   5.373   1.460   7.510
 5314WAT      O21975   3.964   1.349   6.735
 5314WAT     H121976   3.942   1.383   6.658
 5314WAT     H221977   4.032   1.398   6.760
 5314WAT    EPW21978   3.971   1.362   6.727
 5315WAT      O21979   5.772   2.540   6.791
 5315WAT     H121980   5.800   2.592   6.727
 5315WAT     H221981   5.838   2.539   6.848
 5315WAT    EPW21982   5.786   2.547   6.790
 5316WAT      O21983   5.278   1.875   7.540
 5316WAT     H121984   5.325   1.936   7.580
 5316WAT     H221985   5.197   1.888   7.572
 5316WAT    EPW21986   5.273   1.886   7.551
 5317WAT      O21987   5.533   1.817   7.421
 5317WAT     H121988   5.573   1.889   7.450
 5317WAT     H221989   5.454   1.821   7.457
 5317WAT    EPW21990   5.527   1.829   7.431
 5318WAT      O21991   5.450   2.460   5.990
 5318WAT     H121992   5.487   2.382   6.001
 5318WAT     H221993   5.372   2.453   6.028
 5318WAT    EPW21994   5.444   2.448   5.997
 5319WAT      O21995   5.501   1.607   6.517
 5319WAT     H121996   5.434   1.559   6.545
 5319WAT     H221997   5.493   1.682   6.560
 5319WAT    EPW21998   5.490   1.611   6.527
 5320WAT      O21999   5.682   2.167   7.264
 5320WAT     H122000   5.751   2.120   7.238
 5320WAT     H222001   5.675   2.228   7.202
 5320WAT    EPW22002   5.691   2.169   7.251
 5321WAT      O22003   5.120   2.251   5.925
 5321WAT     H122004   5.197   2.211   5.918
 5321WAT     H222005   5.095   2.261   5.842
 5321WAT    EPW22006   5.128   2.247   5.912
 5322WAT      O22007   4.584   2.372   7.008
 5322WAT     H122008   4.585   2.416   7.083
 5322WAT     H222009   4.596   2.433   6.947
 5322WAT    EPW22010   4.586   2.387   7.010
 5323WAT      O22011   4.413   2.227   7.374
 5323WAT     H122012   4.334   2.194   7.393
 5323WAT     H222013   4.396   2.311   7.358
 5323WAT    EPW22014   4.399   2.235   7.374
 5324WAT      O22015   5.349   1.305   7.190
 5324WAT     H122016   5.402   1.374   7.192
 5324WAT     H222017   5.271   1.339   7.173
 5324WAT    EPW22018   5.346   1.320   7.188
 5325WAT      O22019   4.898   2.016   6.912
 5325WAT     H122020   4.953   2.046   6.973
 5325WAT     H222021   4.819   2.033   6.946
 5325WAT    EPW22022   4.894   2.023   6.926
 5326WAT      O22023   4.536   1.580   7.306
 5326WAT     H122024   4.559   1.502   7.338
 5326WAT     H222025   4.564   1.578   7.224
 5326WAT    EPW22026   4.543   1.568   7.299
 5327WAT      O22027   4.815   2.789   6.485
 5327WAT     H122028   4.872   2.851   6.464
 5327WAT     H222029   4.761   2.788   6.416
 5327WAT    EPW22030   4.815   2.798   6.471
 5328WAT      O22031   5.433   1.102   7.010
 5328WAT     H122032   5.400   1.173   7.049
 5328WAT     H222033   5.517   1.104   7.033
 5328WAT    EPW22034   5.441   1.113   7.019
 5329WAT      O22035   4.688   1.166   7.169
 5329WAT     H122036   4.770   1.196   7.177
 5329WAT     H222037   4.698   1.091   7.126
 5329WAT    EPW22038   4.702   1.160   7.164
 5330WAT      O22039   4.643   2.585   6.839
 5330WAT     H122040   4.592   2.635   6.788
 5330WAT     H222041   4.686   2.535   6.782
 5330WAT    EPW22042   4.642   2.585   6.823
 5331WAT      O22043   5.046   2.230   7.530
 5331WAT     H122044   5.131   2.236   7.511
 5331WAT     H222045   5.007   2.234   7.452
 5331WAT    EPW22046   5.053   2.231   7.516
 5332WAT      O22047   5.356   2.546   7.412
 5332WAT     H122048   5.358   2.614   7.466
 5332WAT     H222049   5.413   2.567   7.350
 5332WAT    EPW22050   5.365   2.559   7.411
 5333WAT      O22051   5.646   1.766   5.906
 5333WAT     H122052   5.693   1.823   5.860
 5333WAT     H222053   5.566   1.800   5.905
 5333WAT    EPW22054   5.641   1.780   5.899
 5334WAT      O22055   4.760   2.036   5.884
 5334WAT     H122056   4.682   2.032   5.846
 5334WAT     H222057   4.771   2.121   5.900
 5334WAT    EPW22058   4.750   2.048   5.880
 5335WAT      O22059   4.407   1.660   6.859
 5335WAT     H122060   4.443   1.634   6.784
 5335WAT     H222061   4.465   1.634   6.919
 5335WAT    EPW22062   4.421   1.652   6.857
 5336WAT      O22063   5.108   1.547   7.421
 5336WAT     H122064   5.052   1.613   7.432
 5336WAT     H222065   5.186   1.583   7.431
 5336WAT    EPW22066   5.111   1.562   7.424
 5337WAT      O22067   5.173   1.708   7.044
 5337WAT     H122068   5.172   1.758   7.115
 5337WAT     H222069   5.154   1.628   7.075
 5337WAT    EPW22070   5.170   1.703   7.059
 5338WAT      O22071   4.880   2.809   7.433
 5338WAT     H122072   4.903   2.798   7.350
 5338WAT     H222073   4.846   2.732   7.456
 5338WAT    EPW22074   4.879   2.796   7.424
 5339WAT      O22075   5.388   1.648   6.267
 5339WAT     H122076   5.415   1.632   6.348
 5339WAT     H222077   5.460   1.676   6.227
 5339WAT    EPW22078   5.403   1.650   6.273
 5340WAT      O22079   4.712   1.155   6.802
 5340WAT     H122080   4.630   1.138   6.824
 5340WAT     H222081   4.709   1.163   6.715
 5340WAT    EPW22082   4.700   1.154   6.792
 5341WAT      O22083   5.528   1.239   6.434
 5341WAT     H122084   5.450   1.204   6.450
 5341WAT     H222085   5.526   1.255   6.348
 5341WAT    EPW22086   5.516   1.236   6.423
 5342WAT      O22087   5.533   2.048   6.246
 5342WAT     H122088   5.575   1.972   6.234
 5342WAT     H222089   5.449   2.027   6.237
 5342WAT    EPW22090   5.527   2.034   6.243
 5343WAT      O22091   4.892   2.255   7.298
 5343WAT     H122092   4.817   2.258   7.342
 5343WAT     H222093   4.897   2.334   7.262
 5343WAT    EPW22094   4.882   2.267   7.299
 5344WAT      O22095   3.958   1.244   7.479
 5344WAT     H122096   3.929   1.297   7.416
 5344WAT     H222097   3.887   1.203   7.507
 5344WAT    EPW22098   3.943   1.246   7.474
 5345WAT      O22099   4.466   2.895   6.884
 5345WAT     H122100   4.467   2.861   6.964
 5345WAT     H222101   4.435   2.830   6.834
 5345WAT    EPW22102   4.462   2.880   6.888
 5346WAT      O22103   4.272   1.469   6.183
 5346WAT     H122104   4.281   1.435   6.103
 5346WAT     H222105   4.191   1.445   6.206
 5346WAT    EPW22106   4.261   1.461   6.175
 5347WAT      O22107   5.182   2.223   6.513
 5347WAT     H122108   5.168   2.233   6.599
 5347WAT     H222109   5.211   2.141   6.506
 5347WAT    EPW22110   5.184   2.212   6.525
 5348WAT      O22111   4.929   2.143   6.424
 5348WAT     H122112   4.888   2.140   6.500
 5348WAT     H222113   5.008   2.174   6.444
 5348WAT    EPW22114   4.935   2.147   6.438
 5349WAT      O22115   4.894   2.535   7.237
 5349WAT     H122116   4.945   2.528   7.308
 5349WAT     H222117   4.922   2.608   7.198
 5349WAT    EPW22118   4.906   2.545   7.242
 5350WAT      O22119   5.734   1.624   7.470
 5350WAT     H122120   5.678   1.688   7.453
 5350WAT     H222121   5.812   1.664   7.470
 5350WAT    EPW22122   5.737   1.639   7.467
 5351WAT      O22123   5.153   1.871   7.272
 5351WAT     H122124   5.087   1.841   7.322
 5351WAT     H222125   5.214   1.891   7.331
 5351WAT    EPW22126   5.152   1.870   7.288
 5352WAT      O22127   4.103   2.863   7.401
 5352WAT     H122128   4.045   2.798   7.394
 5352WAT     H222129   4.056   2.930   7.432
 5352WAT    EPW22130   4.087   2.863   7.405
 5353WAT      O22131   5.024   1.970   7.631
 5353WAT     H122132   5.029   2.053   7.602
 5353WAT     H222133   5.005   1.979   7.715
 5353WAT    EPW22134   5.022   1.984   7.639
 5354WAT      O22135   5.305   2.866   6.747
 5354WAT     H122136   5.249   2.926   6.777
 5354WAT     H222137   5.374   2.875   6.800
 5354WAT    EPW22138   5.307   2.876   6.760
 5355WAT      O22139   4.950   2.357   6.951
 5355WAT     H122140   4.873   2.385   6.981
 5355WAT     H222141   5.008   2.402   6.999
 5355WAT    EPW22142   4.947   2.368   6.962
 5356WAT      O22143   4.273   1.674   7.255
 5356WAT     H122144   4.292   1.742   7.204
 5356WAT     H222145   4.351   1.643   7.278
 5356WAT    EPW22146   4.288   1.679   7.250
 5357WAT      O22147   4.083   1.518   7.125
 5357WAT     H122148   4.100   1.527   7.040
 5357WAT     H222149   4.140   1.571   7.163
 5357WAT    EPW22150   4.094   1.527   7.118
 5358WAT      O22151   5.615   1.787   6.183
 5358WAT     H122152   5.633   1.785   6.098
 5358WAT     H222153   5.689   1.760   6.220
 5358WAT    EPW22154   5.629   1.783   6.176
 5359WAT      O22155   4.319   1.248   7.411
 5359WAT     H122156   4.277   1.173   7.424
 5359WAT     H222157   4.298   1.269   7.328
 5359WAT    EPW22158   4.310   1.240   7.400
 5360WAT      O22159   5.020   2.499   6.317
 5360WAT     H122160   4.996   2.575   6.284
 5360WAT     H222161   4.951   2.447   6.303
 5360WAT    EPW22162   5.006   2.502   6.310
 5361WAT      O22163   5.537   1.829   7.139
 5361WAT     H122164   5.509   1.748   7.123
 5361WAT     H222165   5.529   1.836   7.225
 5361WAT    EPW22166   5.532   1.818   7.149
 5362WAT      O22167   4.020   2.032   7.188
 5362WAT     H122168   4.063   2.047   7.114
 5362WAT     H222169   3.998   1.947   7.182
 5362WAT    EPW22170   4.023   2.021   7.176
 5363WAT      O22171   4.148   1.654   5.836
 5363WAT     H122172   4.086   1.626   5.891
 5363WAT     H222173   4.168   1.582   5.791
 5363WAT    EPW22174   4.142   1.639   5.837
 5364WAT      O22175   5.064   1.277   7.486
 5364WAT     H122176   5.071   1.363   7.476
 5364WAT     H222177   4.986   1.267   7.524
 5364WAT    EPW22178   5.053   1.288   7.490
 5365WAT      O22179   5.031   1.341   6.588
 5365WAT     H122180   4.953   1.381   6.586
 5365WAT     H222181   5.024   1.281   6.525
 5365WAT    EPW22182   5.018   1.338   6.578
 5366WAT      O22183   4.519   2.532   5.933
 5366WAT     H122184   4.581   2.573   5.979
 5366WAT     H222185   4.458   2.514   5.993
 5366WAT    EPW22186   4.519   2.535   5.949
 5367WAT      O22187   5.361   1.408   6.850
 5367WAT     H122188   5.441   1.375   6.858
 5367WAT     H222189   5.370   1.491   6.875
 5367WAT    EPW22190   5.374   1.416   6.855
 5368WAT      O22191   4.527   2.003   7.242
 5368WAT     H122192   4.486   2.069   7.281
 5368WAT     H222193   4.463   1.964   7.196
 5368WAT    EPW22194   4.511   2.007   7.241
 5369WAT      O22195   5.433   1.838   6.656
 5369WAT     H122196   5.496   1.897   6.668
 5369WAT     H222197   5.376   1.880   6.604
 5369WAT    EPW22198   5.434   1.853   6.650
 5370WAT      O22199   5.444   2.670   6.381
 5370WAT     H122200   5.427   2.593   6.417
 5370WAT     H222201   5.483   2.651   6.306
 5370WAT    EPW22202   5.447   2.656   6.375
 5371WAT      O22203   4.262   2.443   6.036
 5371WAT     H122204   4.258   2.425   6.121
 5371WAT     H222205   4.249   2.366   5.998
 5371WAT    EPW22206   4.259   2.429   6.043
 5372WAT      O22207   4.497   2.288   5.781
 5372WAT     H122208   4.467   2.230   5.839
 5372WAT     H222209   4.504   2.361   5.827
 5372WAT    EPW22210   4.493   2.290   5.796
 5373WAT      O22211   4.505   1.325   7.028
 5373WAT     H122212   4.426   1.308   7.061
 5373WAT     H222213   4.557   1.268   7.069
 5373WAT    EPW22214   4.501   1.314   7.039
 5374WAT      O22215   5.692   1.191   7.119
 5374WAT     H122216   5.703   1.256   7.177
 5374WAT     H222217   5.770   1.152   7.116
 5374WAT    EPW22218   5.705   1.195   7.127
 5375WAT      O22219   4.895   1.328   6.927
 5375WAT     H122220   4.837   1.274   6.892
 5375WAT     H222221   4.972   1.292   6.905
 5375WAT    EPW22222   4.898   1.315   6.918
 5376WAT      O22223   5.203   2.465   7.031
 5376WAT     H122224   5.225   2.534   7.079
 5376WAT     H222225   5.201   2.496   6.950
 5376WAT    EPW22226   5.206   2.480   7.026
 5377WAT      O22227   5.171   2.867   7.465
 5377WAT     H122228   5.096   2.823   7.470
 5377WAT     H222229   5.148   2.950   7.481
 5377WAT    EPW22230   5.157   2.873   7.468
 5378WAT      O22231   4.688   1.808   7.371
 5378WAT     H122232   4.639   1.736   7.360
 5378WAT     H222233   4.641   1.871   7.333
 5378WAT    EPW22234   4.674   1.807   7.363
 5379WAT      O22235   4.756   1.150   5.941
 5379WAT     H122236   4.767   1.159   5.855
 5379WAT     H222237   4.670   1.158   5.952
 5379WAT    EPW22238   4.745   1.153   5.930
 5380WAT      O22239   5.656   2.316   7.031
 5380WAT     H122240   5.621   2.247   6.991
 5380WAT     H222241   5.608   2.383   7.004
 5380WAT    EPW22242   5.644   2.316   7.021
 5381WAT      O22243   4.545   2.803   7.404
 5381WAT     H122244   4.600   2.870   7.396
 5381WAT     H222245   4.596   2.739   7.433
 5381WAT    EPW22246   4.561   2.803   7.407
 5382WAT      O22247   5.542   2.561   6.953
 5382WAT     H122248   5.611   2.570   6.902
 5382WAT     H222249   5.482   2.523   6.901
 5382WAT    EPW22250   5.543   2.557   6.938
 5383WAT      O22251   4.251   1.295   7.148
 5383WAT     H122252   4.197   1.230   7.127
 5383WAT     H222253   4.203   1.367   7.137
 5383WAT    EPW22254   4.236   1.296   7.144
 5384WAT      O22255   5.138   1.236   6.823
 5384WAT     H122256   5.203   1.291   6.842
 5384WAT     H222257   5.106   1.268   6.748
 5384WAT    EPW22258   5.143   1.249   6.814
 5385WAT      O22259   4.308   2.706   7.516
 5385WAT     H122260   4.380   2.751   7.495
 5385WAT     H222261   4.243   2.757   7.487
 5385WAT    EPW22262   4.309   2.720   7.508
 5386WAT      O22263   5.106   1.732   6.578
 5386WAT     H122264   5.160   1.665   6.590
 5386WAT     H222265   5.074   1.748   6.657
 5386WAT    EPW22266   5.109   1.724   6.591
 5387WAT      O22267   4.106   1.628   6.509
 5387WAT     H122268   4.064   1.654   6.581
 5387WAT     H222269   4.146   1.554   6.534
 5387WAT    EPW22270   4.106   1.621   6.523
 5388WAT      O22271   4.084   2.431   7.305
 5388WAT     H122272   4.036   2.497   7.336
 5388WAT     H222273   4.166   2.460   7.311
 5388WAT    EPW22274   4.089   2.445   7.311
 5389WAT      O22275   5.288   1.898   6.205
 5389WAT     H122276   5.308   1.816   6.224
 5389WAT     H222277   5.213   1.891   6.160
 5389WAT    EPW22278   5.280   1.885   6.201
 5390WAT      O22279   4.196   2.790   6.164
 5390WAT     H122280   4.194   2.761   6.081
 5390WAT     H222281   4.281   2.794   6.182
 5390WAT    EPW22282   4.208   2.786   6.154
 5391WAT      O22283   4.667   1.970   6.136
 5391WAT     H122284   4.700   1.997   6.061
 5391WAT     H222285   4.737   1.953   6.185
 5391WAT    EPW22286   4.682   1.971   6.132
 5392WAT      O22287   5.562   2.850   5.841
 5392WAT     H122288   5.632   2.836   5.892
 5392WAT     H222289   5.544   2.771   5.809
 5392WAT    EPW22290   5.570   2.836   5.844
 5393WAT      O22291   5.660   2.044   7.517
 5393WAT     H122292   5.741   2.022   7.542
 5393WAT     H222293   5.674   2.095   7.447
 5393WAT    EPW22294   5.674   2.048   7.510
 5394WAT      O22295   5.202   2.454   6.107
 5394WAT     H122296   5.153   2.454   6.179
 5394WAT     H222297   5.162   2.394   6.056
 5394WAT    EPW22298   5.189   2.445   6.110
 5395WAT      O22299   5.621   1.447   7.660
 5395WAT     H122300   5.674   1.504   7.621
 5395WAT     H222301   5.550   1.446   7.610
 5395WAT    EPW22302   5.619   1.455   7.647
 5396WAT      O22303   5.679   1.631   6.913
 5396WAT     H122304   5.596   1.658   6.908
 5396WAT     H222305   5.673   1.544   6.912
 5396WAT    EPW22306   5.666   1.622   6.912
 5397WAT      O22307   4.592   1.308   7.391
 5397WAT     H122308   4.613   1.265   7.318
 5397WAT     H222309   4.509   1.286   7.405
 5397WAT    EPW22310   4.583   1.299   7.382
 5398WAT      O22311   5.420   2.080   7.656
 5398WAT     H122312   5.502   2.074   7.627
 5398WAT     H222313   5.389   2.150   7.614
 5398WAT    EPW22314   5.427   2.089   7.645
 5399WAT      O22315   4.297   2.684   6.784
 5399WAT     H122316   4.290   2.606   6.747
 5399WAT     H222317   4.259   2.738   6.727
 5399WAT    EPW22318   4.290   2.680   6.770
 5400WAT      O22319   4.851   2.280   5.985
 5400WAT     H122320   4.936   2.261   5.977
 5400WAT     H222321   4.843   2.355   5.942
 5400WAT    EPW22322   4.862   2.288   5.977
 5401WAT      O22323   4.063   2.915   7.131
 5401WAT     H122324   4.078   2.899   7.215
 5401WAT     H222325   4.097   2.846   7.090
 5401WAT    EPW22326   4.071   2.903   7.137
 5402WAT      O22327   5.042   1.144   4.496
 5402WAT     H122328   5.040   1.188   4.421
 5402WAT     H222329   5.127   1.131   4.510
 5402WAT    EPW22330   5.055   1.149   4.487
 5403WAT      O22331   4.985   1.769   4.942
 5403WAT     H122332   4.951   1.846   4.964
 5403WAT     H222333   5.043   1.752   5.005
 5403WAT    EPW22334   4.989   1.778   4.954
 5404WAT      O22335   3.904   2.253   4.515
 5404WAT     H122336   3.837   2.294   4.478
 5404WAT     H222337   3.926   2.193   4.455
 5404WAT    EPW22338   3.897   2.250   4.501
 5405WAT      O22339   5.578   2.610   4.236
 5405WAT     H122340   5.641   2.552   4.255
 5405WAT     H222341   5.520   2.562   4.192
 5405WAT    EPW22342   5.579   2.594   4.232
 5406WAT      O22343   5.251   1.954   4.628
 5406WAT     H122344   5.258   1.944   4.541
 5406WAT     H222345   5.193   1.893   4.651
 5406WAT    EPW22346   5.243   1.943   4.618
 5407WAT      O22347   4.697   1.275   4.361
 5407WAT     H122348   4.691   1.349   4.315
 5407WAT     H222349   4.775   1.243   4.338
 5407WAT    EPW22350   4.708   1.281   4.351
 5408WAT      O22351   3.918   2.642   5.045
 5408WAT     H122352   3.868   2.615   5.112
 5408WAT     H222353   3.867   2.698   5.003
 5408WAT    EPW22354   3.903   2.646   5.049
 5409WAT      O22355   4.668   2.317   5.555
 5409WAT     H122356   4.636   2.303   5.635
 5409WAT     H222357   4.598   2.305   5.503
 5409WAT    EPW22358   4.653   2.313   5.559
 5410WAT      O22359   4.173   2.069   4.585
 5410WAT     H122360   4.127   2.065   4.510
 5410WAT     H222361   4.215   1.993   4.587
 5410WAT    EPW22362   4.172   2.058   4.574
 5411WAT      O22363   4.586   1.590   5.140
 5411WAT     H122364   4.655   1.591   5.087
 5411WAT     H222365   4.563   1.506   5.142
 5411WAT    EPW22366   4.592   1.578   5.133
 5412WAT      O22367   4.619   2.562   5.331
 5412WAT     H122368   4.600   2.621   5.269
 5412WAT     H222369   4.706   2.560   5.331
 5412WAT    EPW22370   4.629   2.571   5.322
 5413WAT      O22371   4.312   1.824   4.609
 5413WAT     H122372   4.386   1.777   4.612
 5413WAT     H222373   4.249   1.764   4.607
 5413WAT    EPW22374   4.314   1.808   4.609
 5414WAT      O22375   4.801   2.426   4.837
 5414WAT     H122376   4.801   2.345   4.804
 5414WAT     H222377   4.851   2.471   4.782
 5414WAT    EPW22378   4.808   2.421   4.824
 5415WAT      O22379   4.798   2.326   4.374
 5415WAT     H122380   4.839   2.268   4.425
 5415WAT     H222381   4.829   2.308   4.294
 5415WAT    EPW22382   4.809   2.315   4.370
 5416WAT      O22383   4.927   1.804   5.544
 5416WAT     H122384   4.840   1.809   5.536
 5416WAT     H222385   4.944   1.859   5.610
 5416WAT    EPW22386   4.916   1.813   5.553
 5417WAT      O22387   4.426   1.285   4.454
 5417WAT     H122388   4.386   1.341   4.400
 5417WAT     H222389   4.510   1.289   4.430
 5417WAT    EPW22390   4.432   1.294   4.443
 5418WAT      O22391   5.411   1.056   5.437
 5418WAT     H122392   5.383   1.123   5.388
 5418WAT     H222393   5.340   1.032   5.480
 5418WAT    EPW22394   5.397   1.063   5.436
 5419WAT      O22395   4.729   1.219   4.638
 5419WAT     H122396   4.736   1.302   4.663
 5419WAT     H222397   4.712   1.224   4.553
 5419WAT    EPW22398   4.727   1.232   4.629
 5420WAT      O22399   5.123   1.438   3.876
 5420WAT     H122400   5.089   1.512   3.907
 5420WAT     H222401   5.145   1.394   3.949
 5420WAT    EPW22402   5.121   1.443   3.892
 5421WAT      O22403   3.946   1.725   4.824
 5421WAT     H122404   3.916   1.807   4.819
 5421WAT     H222405   3.892   1.687   4.882
 5421WAT    EPW22406   3.933   1.732   4.832
 5422WAT      O22407   5.134   2.747   4.080
 5422WAT     H122408   5.199   2.798   4.107
 5422WAT     H222409   5.150   2.671   4.120
 5422WAT    EPW22410   5.146   2.743   4.090
 5423WAT      O22411   4.931   2.769   4.278
 5423WAT     H122412   4.894   2.848   4.275
 5423WAT     H222413   4.983   2.768   4.209
 5423WAT    EPW22414   4.933   2.781   4.268
 5424WAT      O22415   4.304   1.257   4.879
 5424WAT     H122416   4.249   1.194   4.855
 5424WAT     H222417   4.361   1.216   4.931
 5424WAT    EPW22418   4.304   1.241   4.883
 5425WAT      O22419   4.595   1.447   5.804
 5425WAT     H122420   4.596   1.408   5.726
 5425WAT     H222421   4.639   1.521   5.790
 5425WAT    EPW22422   4.602   1.452   5.790
 5426WAT      O22423   5.728   1.425   4.602
 5426WAT     H122424   5.678   1.496   4.607
 5426WAT     H222425   5.671   1.360   4.591
 5426WAT    EPW22426   5.712   1.426   4.601
 5427WAT      O22427   5.204   2.764   5.154
 5427WAT     H122428   5.276   2.811   5.142
 5427WAT     H222429   5.182   2.738   5.074
 5427WAT    EPW22430   5.211   2.767   5.141
 5428WAT      O22431   4.191   1.418   5.695
 5428WAT     H122432   4.119   1.437   5.650
 5428WAT     H222433   4.231   1.359   5.645
 5428WAT    EPW22434   4.187   1.412   5.681
 5429WAT      O22435   4.333   2.497   4.666
 5429WAT     H122436   4.341   2.546   4.594
 5429WAT     H222437   4.375   2.424   4.646
 5429WAT    EPW22438   4.340   2.494   4.652
 5430WAT      O22439   4.787   1.172   5.669
 5430WAT     H122440   4.804   1.101   5.623
 5430WAT     H222441   4.722   1.210   5.626
 5430WAT    EPW22442   4.780   1.167   5.656
 5431WAT      O22443   4.896   1.680   4.506
 5431WAT     H122444   4.927   1.644   4.433
 5431WAT     H222445   4.968   1.693   4.554
 5431WAT    EPW22446   4.911   1.677   4.502
 5432WAT      O22447   4.956   1.715   3.988
 5432WAT     H122448   5.014   1.736   3.927
 5432WAT     H222449   4.881   1.709   3.944
 5432WAT    EPW22450   4.954   1.718   3.973
 5433WAT      O22451   5.338   2.920   4.154
 5433WAT     H122452   5.401   2.908   4.094
 5433WAT     H222453   5.379   2.906   4.230
 5433WAT    EPW22454   5.353   2.916   4.156
 5434WAT      O22455   4.422   2.783   5.239
 5434WAT     H122456   4.426   2.776   5.326
 5434WAT     H222457   4.344   2.752   5.219
 5434WAT    EPW22458   4.411   2.778   5.249
 5435WAT      O22459   5.638   1.350   5.019
 5435WAT     H122460   5.703   1.338   4.962
 5435WAT     H222461   5.655   1.292   5.082
 5435WAT    EPW22462   5.650   1.340   5.020
 5436WAT      O22463   3.959   1.490   5.559
 5436WAT     H122464   3.891   1.514   5.608
 5436WAT     H222465   3.935   1.511   5.478
 5436WAT    EPW22466   3.946   1.497   5.555
 5437WAT      O22467   5.112   2.536   5.517
 5437WAT     H122468   5.104   2.559   5.601
 5437WAT     H222469   5.198   2.528   5.507
 5437WAT    EPW22470   5.124   2.538   5.528
 5438WAT      O22471   4.872   2.550   4.017
 5438WAT     H122472   4.809   2.609   4.030
 5438WAT     H222473   4.914   2.580   3.947
 5438WAT    EPW22474   4.869   2.563   4.009
 5439WAT      O22475   5.187   1.292   4.106
 5439WAT     H122476   5.244   1.226   4.112
 5439WAT     H222477   5.207   1.342   4.174
 5439WAT    EPW22478   5.199   1.290   4.117
 5440WAT      O22479   4.005   1.399   4.361
 5440WAT     H122480   3.984   1.315   4.347
 5440WAT     H222481   3.970   1.415   4.439
 5440WAT    EPW22482   3.997   1.389   4.370
 5441WAT      O22483   4.195   2.703   5.082
 5441WAT     H122484   4.109   2.688   5.085
 5441WAT     H222485   4.212   2.710   4.997
 5441WAT    EPW22486   4.185   2.702   5.070
 5442WAT      O22487   4.961   1.585   4.244
 5442WAT     H122488   4.885   1.544   4.231
 5442WAT     H222489   4.971   1.632   4.171
 5442WAT    EPW22490   4.951   1.586   4.231
 5443WAT      O22491   4.970   2.849   5.272
 5443WAT     H122492   5.049   2.832   5.239
 5443WAT     H222493   4.916   2.839   5.204
 5443WAT    EPW22494   4.974   2.845   5.257
 5444WAT      O22495   4.952   1.218   4.235
 5444WAT     H122496   4.897   1.198   4.171
 5444WAT     H222497   5.024   1.244   4.193
 5444WAT    EPW22498   4.955   1.219   4.219
 5445WAT      O22499   5.665   2.837   4.525
 5445WAT     H122500   5.626   2.915   4.536
 5445WAT     H222501   5.599   2.782   4.518
 5445WAT    EPW22502   5.650   2.841   4.526
 5446WAT      O22503   4.772   1.496   4.682
 5446WAT     H122504   4.802   1.559   4.631
 5446WAT     H222505   4.778   1.529   4.762
 5446WAT    EPW22506   4.777   1.510   4.686
 5447WAT      O22507   5.410   2.408   4.606
 5447WAT     H122508   5.473   2.349   4.598
 5447WAT     H222509   5.336   2.362   4.601
 5447WAT    EPW22510   5.408   2.393   4.604
 5448WAT      O22511   4.355   2.524   5.472
 5448WAT     H122512   4.431   2.559   5.446
 5448WAT     H222513   4.326   2.581   5.531
 5448WAT    EPW22514   4.362   2.538   5.477
 5449WAT      O22515   4.354   1.029   4.538
 5449WAT     H122516   4.379   1.110   4.517
 5449WAT     H222517   4.325   0.996   4.463
 5449WAT    EPW22518   4.354   1.036   4.524
 5450WAT      O22519   4.549   2.096   4.883
 5450WAT     H122520   4.571   2.085   4.966
 5450WAT     H222521   4.488   2.035   4.869
 5450WAT    EPW22522   4.543   2.085   4.893
 5451WAT      O22523   5.135   1.463   5.278
 5451WAT     H122524   5.138   1.506   5.353
 5451WAT     H222525   5.069   1.407   5.288
 5451WAT    EPW22526   5.126   1.461   5.290
 5452WAT      O22527   4.639   2.093   5.149
 5452WAT     H122528   4.629   2.180   5.150
 5452WAT     H222529   4.622   2.069   5.231
 5452WAT    EPW22530   4.635   2.102   5.161
 5453WAT      O22531   5.276   2.203   5.154
 5453WAT     H122532   5.199   2.170   5.179
 5453WAT     H222533   5.263   2.289   5.158
 5453WAT    EPW22534   5.263   2.211   5.158
 5454WAT      O22535   5.304   1.074   4.569
 5454WAT     H122536   5.306   1.056   4.655
 5454WAT     H222537   5.340   1.004   4.532
 5454WAT    EPW22538   5.310   1.061   4.577
 5455WAT      O22539   3.899   2.515   5.781
 5455WAT     H122540   3.963   2.566   5.812
 5455WAT     H222541   3.907   2.441   5.827
 5455WAT    EPW22542   3.910   2.512   5.793
 5456WAT      O22543   5.515   1.505   5.371
 5456WAT     H122544   5.599   1.494   5.390
 5456WAT     H222545   5.476   1.501   5.448
 5456WAT    EPW22546   5.522   1.503   5.385
 5457WAT      O22547   4.294   1.428   4.662
 5457WAT     H122548   4.329   1.375   4.603
 5457WAT     H222549   4.292   1.380   4.735
 5457WAT    EPW22550   4.299   1.413   4.664
 5458WAT      O22551   5.540   2.216   4.137
 5458WAT     H122552   5.541   2.168   4.210
 5458WAT     H222553   5.624   2.224   4.116
 5458WAT    EPW22554   5.553   2.210   4.144
 5459WAT      O22555   4.390   2.240   4.576
 5459WAT     H122556   4.434   2.233   4.502
 5459WAT     H222557   4.331   2.177   4.571
 5459WAT    EPW22558   4.388   2.230   4.565
 5460WAT      O22559   4.134   1.571   4.977
 5460WAT     H122560   4.217   1.590   4.960
 5460WAT     H222561   4.090   1.635   4.939
 5460WAT    EPW22562   4.140   1.583   4.969
 5461WAT      O22563   5.808   2.646   5.502
 5461WAT     H122564   5.734   2.647   5.456
 5461WAT     H222565   5.787   2.601   5.574
 5461WAT    EPW22566   5.794   2.640   5.506
 5462WAT      O22567   5.196   1.933   4.078
 5462WAT     H122568   5.248   1.994   4.043
 5462WAT     H222569   5.226   1.925   4.159
 5462WAT    EPW22570   5.208   1.941   4.085
 5463WAT      O22571   4.533   2.230   4.330
 5463WAT     H122572   4.606   2.275   4.348
 5463WAT     H222573   4.486   2.285   4.282
 5463WAT    EPW22574   4.537   2.245   4.326
 5464WAT      O22575   5.686   1.371   4.019
 5464WAT     H122576   5.695   1.295   3.977
 5464WAT     H222577   5.662   1.427   3.957
 5464WAT    EPW22578   5.684   1.368   4.004
 5465WAT      O22579   3.897   2.439   4.853
 5465WAT     H122580   3.829   2.471   4.808
 5465WAT     H222581   3.918   2.504   4.908
 5465WAT    EPW22582   3.890   2.454   4.855
 5466WAT      O22583   4.734   1.689   5.797
 5466WAT     H122584   4.684   1.722   5.860
 5466WAT     H222585   4.711   1.734   5.726
 5466WAT    EPW22586   4.723   1.700   5.796
 5467WAT      O22587   5.792   1.787   5.263
 5467WAT     H122588   5.808   1.720   5.210
 5467WAT     H222589   5.707   1.802   5.252
 5467WAT    EPW22590   5.782   1.779   5.254
 5468WAT      O22591   4.028   2.049   4.349
 5468WAT     H122592   4.030   1.962   4.341
 5468WAT     H222593   4.073   2.077   4.279
 5468WAT    EPW22594   4.035   2.040   4.337
 5469WAT      O22595   5.568   1.254   4.252
 5469WAT     H122596   5.644   1.214   4.269
 5469WAT     H222597   5.588   1.309   4.188
 5469WAT    EPW22598   5.582   1.256   4.245
 5470WAT      O22599   4.958   2.603   4.694
 5470WAT     H122600   4.896   2.663   4.684
 5470WAT     H222601   4.979   2.581   4.612
 5470WAT    EPW22602   4.952   2.609   4.680
 5471WAT      O22603   4.352   2.279   4.977
 5471WAT     H122604   4.402   2.320   5.035
 5471WAT     H222605   4.410   2.238   4.925
 5471WAT    EPW22606   4.368   2.279   4.978
 5472WAT      O22607   5.262   1.501   4.714
 5472WAT     H122608   5.294   1.466   4.787
 5472WAT     H222609   5.197   1.448   4.692
 5472WAT    EPW22610   5.257   1.488   4.722
 5473WAT      O22611   4.697   1.494   4.192
 5473WAT     H122612   4.676   1.475   4.109
 5473WAT     H222613   4.664   1.574   4.203
 5473WAT    EPW22614   4.689   1.503   4.181
 5474WAT      O22615   5.559   2.664   5.350
 5474WAT     H122616   5.516   2.739   5.358
 5474WAT     H222617   5.555   2.647   5.264
 5474WAT    EPW22618   5.552   2.672   5.338
 5475WAT      O22619   4.302   1.828   5.654
 5475WAT     H122620   4.261   1.770   5.706
 5475WAT     H222621   4.299   1.790   5.576
 5475WAT    EPW22622   4.296   1.814   5.650
 5476WAT      O22623   4.304   1.708   4.187
 5476WAT     H122624   4.308   1.631   4.228
 5476WAT     H222625   4.254   1.692   4.117
 5476WAT    EPW22626   4.297   1.694   4.182
 5477WAT      O22627   4.337   1.912   4.870
 5477WAT     H122628   4.322   1.899   4.785
 5477WAT     H222629   4.357   1.833   4.899
 5477WAT    EPW22630   4.338   1.899   4.861
 5478WAT      O22631   4.369   1.897   5.211
 5478WAT     H122632   4.420   1.862   5.150
 5478WAT     H222633   4.317   1.951   5.166
 5478WAT    EPW22634   4.369   1.900   5.196
 5479WAT      O22635   5.412   1.676   5.004
 5479WAT     H122636   5.336   1.695   5.043
 5479WAT     H222637   5.413   1.728   4.934
 5479WAT    EPW22638   5.401   1.687   5.000
 5480WAT      O22639   4.796   2.801   5.070
 5480WAT     H122640   4.754   2.729   5.047
 5480WAT     H222641   4.767   2.861   5.014
 5480WAT    EPW22642   4.785   2.799   5.059
 5481WAT      O22643   4.966   1.250   5.351
 5481WAT     H122644   4.984   1.172   5.318
 5481WAT     H222645   4.997   1.247   5.432
 5481WAT    EPW22646   4.973   1.238   5.358
 5482WAT      O22647   5.194   1.452   4.328
 5482WAT     H122648   5.252   1.515   4.344
 5482WAT     H222649   5.121   1.496   4.306
 5482WAT    EPW22650   5.192   1.468   4.327
 5483WAT      O22651   4.137   2.050   5.684
 5483WAT     H122652   4.067   2.002   5.705
 5483WAT     H222653   4.200   1.991   5.671
 5483WAT    EPW22654   4.136   2.034   5.685
 5484WAT      O22655   5.326   2.249   5.600
 5484WAT     H122656   5.351   2.328   5.573
 5484WAT     H222657   5.353   2.196   5.536
 5484WAT    EPW22658   5.334   2.253   5.587
 5485WAT      O22659   4.739   2.586   5.612
 5485WAT     H122660   4.774   2.566   5.689
 5485WAT     H222661   4.717   2.508   5.579
 5485WAT    EPW22662   4.741   2.572   5.618
 5486WAT      O22663   4.789   1.574   4.948
 5486WAT     H122664   4.851   1.634   4.953
 5486WAT     H222665   4.827   1.502   4.979
 5486WAT    EPW22666   4.803   1.572   4.953
 5487WAT      O22667   5.596   2.201   4.584
 5487WAT     H122668   5.599   2.151   4.656
 5487WAT     H222669   5.565   2.146   4.523
 5487WAT    EPW22670   5.592   2.185   4.585
 5488WAT      O22671   5.149   2.634   4.905
 5488WAT     H122672   5.088   2.624   4.842
 5488WAT     H222673   5.207   2.688   4.868
 5488WAT    EPW22674   5.148   2.641   4.890
 5489WAT      O22675   5.160   2.263   4.906
 5489WAT     H122676   5.086   2.289   4.944
 5489WAT     H222677   5.203   2.222   4.970
 5489WAT    EPW22678   5.155   2.261   4.921
 5490WAT      O22679   4.489   1.127   4.105
 5490WAT     H122680   4.494   1.124   4.192
 5490WAT     H222681   4.443   1.200   4.090
 5490WAT    EPW22682   4.483   1.137   4.116
 5491WAT      O22683   4.623   2.745   3.990
 5491WAT     H122684   4.628   2.782   3.911
 5491WAT     H222685   4.562   2.685   3.981
 5491WAT    EPW22686   4.615   2.742   3.977
 5492WAT      O22687   5.394   2.094   5.381
 5492WAT     H122688   5.360   2.135   5.312
 5492WAT     H222689   5.480   2.110   5.374
 5492WAT    EPW22690   5.402   2.102   5.370
 5493WAT      O22691   5.108   2.661   5.774
 5493WAT     H122692   5.132   2.682   5.856
 5493WAT     H222693   5.133   2.730   5.727
 5493WAT    EPW22694   5.115   2.674   5.779
 5494WAT      O22695   5.541   1.191   5.641
 5494WAT     H122696   5.503   1.146   5.577
 5494WAT     H222697   5.540   1.135   5.709
 5494WAT    EPW22698   5.535   1.176   5.642
 5495WAT      O22699   4.189   2.127   4.131
 5495WAT     H122700   4.180   2.129   4.045
 5495WAT     H222701   4.218   2.206   4.152
 5495WAT    EPW22702   4.192   2.139   4.122
 5496WAT      O22703   5.044   2.086   5.243
 5496WAT     H122704   4.998   2.133   5.300
 5496WAT     H222705   5.074   2.019   5.291
 5496WAT    EPW22706   5.042   2.083   5.259
 5497WAT      O22707   3.922   1.132   4.306
 5497WAT     H122708   3.926   1.072   4.242
 5497WAT     H222709   3.896   1.086   4.375
 5497WAT    EPW22710   3.919   1.116   4.307
 5498WAT      O22711   4.970   1.924   4.362
 5498WAT     H122712   4.955   1.992   4.415
 5498WAT     H222713   4.927   1.858   4.400
 5498WAT    EPW22714   4.961   1.924   4.375
 5499WAT      O22715   5.399   2.415   4.890
 5499WAT     H122716   5.415   2.425   4.805
 5499WAT     H222717   5.320   2.380   4.892
 5499WAT    EPW22718   5.390   2.412   4.877
 5500WAT      O22719   4.351   1.361   4.042
 5500WAT     H122720   4.291   1.369   3.979
 5500WAT     H222721   4.421   1.401   4.009
 5500WAT    EPW22722   4.353   1.368   4.028
 5501WAT      O22723   4.807   2.149   4.781
 5501WAT     H122724   4.722   2.132   4.793
 5501WAT     H222725   4.845   2.114   4.851
 5501WAT    EPW22726   4.800   2.141   4.794
 5502WAT      O22727   4.202   2.063   5.060
 5502WAT     H122728   4.239   2.140   5.042
 5502WAT     H222729   4.222   2.015   4.990
 5502WAT    EPW22730   4.211   2.068   5.047
 5503WAT      O22731   4.498   1.612   4.692
 5503WAT     H122732   4.576   1.574   4.679
 5503WAT     H222733   4.441   1.548   4.678
 5503WAT    EPW22734   4.501   1.597   4.688
 5504WAT      O22735   5.757   2.781   4.107
 5504WAT     H122736   5.822   2.731   4.077
 5504WAT     H222737   5.704   2.724   4.147
 5504WAT    EPW22738   5.759   2.765   4.108
 5505WAT      O22739   4.076   1.765   4.344
 5505WAT     H122740   4.088   1.729   4.423
 5505WAT     H222741   4.156   1.765   4.309
 5505WAT    EPW22742   4.090   1.760   4.351
 5506WAT      O22743   5.515   2.062   5.075
 5506WAT     H122744   5.516   1.993   5.127
 5506WAT     H222745   5.436   2.097   5.089
 5506WAT    EPW22746   5.503   2.057   5.085
 5507WAT      O22747   4.457   1.856   3.939
 5507WAT     H122748   4.407   1.862   4.011
 5507WAT     H222749   4.399   1.859   3.874
 5507WAT    EPW22750   4.441   1.857   3.940
 5508WAT      O22751   5.624   2.038   4.815
 5508WAT     H122752   5.595   2.054   4.895
 5508WAT     H222753   5.711   2.037   4.824
 5508WAT    EPW22754   5.633   2.040   4.828
 5509WAT      O22755   4.586   1.747   4.216
 5509WAT     H122756   4.608   1.831   4.211
 5509WAT     H222757   4.499   1.748   4.211
 5509WAT    EPW22758   4.577   1.759   4.215
 5510WAT      O22759   5.409   1.443   5.628
 5510WAT     H122760   5.333   1.444   5.670
 5510WAT     H222761   5.436   1.361   5.635
 5510WAT    EPW22762   5.402   1.431   5.635
 5511WAT      O22763   3.977   1.358   4.842
 5511WAT     H122764   3.949   1.396   4.768
 5511WAT     H222765   4.036   1.415   4.873
 5511WAT    EPW22766   3.982   1.372   4.836
 5512WAT      O22767   5.766   2.548   4.889
 5512WAT     H122768   5.795   2.598   4.823
 5512WAT     H222769   5.831   2.550   4.947
 5512WAT    EPW22770   5.780   2.556   4.888
 5513WAT      O22771   5.248   1.802   5.707
 5513WAT     H122772   5.288   1.809   5.784
 5513WAT     H222773   5.175   1.850   5.718
 5513WAT    EPW22774   5.243   1.810   5.720
 5514WAT      O22775   5.482   1.834   5.544
 5514WAT     H122776   5.505   1.914   5.568
 5514WAT     H222777   5.410   1.818   5.590
 5514WAT    EPW22778   5.475   1.843   5.554
 5515WAT      O22779   5.397   2.455   4.097
 5515WAT     H122780   5.426   2.374   4.113
 5515WAT     H222781   5.314   2.453   4.125
 5515WAT    EPW22782   5.389   2.443   4.104
 5516WAT      O22783   5.504   1.603   4.619
 5516WAT     H122784   5.437   1.556   4.649
 5516WAT     H222785   5.500   1.677   4.667
 5516WAT    EPW22786   5.493   1.607   4.631
 5517WAT      O22787   5.799   1.923   5.739
 5517WAT     H122788   5.804   1.866   5.673
 5517WAT     H222789   5.878   1.961   5.738
 5517WAT    EPW22790   5.811   1.920   5.729
 5518WAT      O22791   5.664   2.175   5.373
 5518WAT     H122792   5.735   2.132   5.346
 5518WAT     H222793   5.653   2.236   5.311
 5518WAT    EPW22794   5.673   2.178   5.360
 5519WAT      O22795   5.098   2.220   3.951
 5519WAT     H122796   5.183   2.200   3.951
 5519WAT     H222797   5.079   2.229   3.866
 5519WAT    EPW22798   5.107   2.218   3.939
 5520WAT      O22799   4.565   2.363   5.146
 5520WAT     H122800   4.573   2.411   5.219
 5520WAT     H222801   4.593   2.418   5.083
 5520WAT    EPW22802   4.571   2.378   5.147
 5521WAT      O22803   4.377   2.253   5.522
 5521WAT     H122804   4.401   2.254   5.606
 5521WAT     H222805   4.370   2.337   5.502
 5521WAT    EPW22806   4.380   2.265   5.532
 5522WAT      O22807   5.358   1.292   5.284
 5522WAT     H122808   5.416   1.355   5.300
 5522WAT     H222809   5.283   1.335   5.275
 5522WAT    EPW22810   5.355   1.307   5.285
 5523WAT      O22811   4.881   2.017   5.024
 5523WAT     H122812   4.939   2.049   5.081
 5523WAT     H222813   4.804   2.033   5.062
 5523WAT    EPW22814   4.879   2.024   5.038
 5524WAT      O22815   4.545   1.589   5.420
 5524WAT     H122816   4.556   1.508   5.450
 5524WAT     H222817   4.571   1.585   5.337
 5524WAT    EPW22818   4.551   1.576   5.412
 5525WAT      O22819   4.739   2.774   4.657
 5525WAT     H122820   4.737   2.861   4.652
 5525WAT     H222821   4.673   2.749   4.605
 5525WAT    EPW22822   4.729   2.783   4.649
 5526WAT      O22823   5.430   1.091   5.098
 5526WAT     H122824   5.402   1.163   5.140
 5526WAT     H222825   5.514   1.086   5.121
 5526WAT    EPW22826   5.438   1.101   5.108
 5527WAT      O22827   4.692   1.195   5.334
 5527WAT     H122828   4.776   1.218   5.329
 5527WAT     H222829   4.694   1.108   5.325
 5527WAT    EPW22830   4.704   1.185   5.332
 5528WAT      O22831   4.641   2.585   4.996
 5528WAT     H122832   4.587   2.642   4.957
 5528WAT     H222833   4.682   2.547   4.928
 5528WAT    EPW22834   4.639   2.588   4.980
 5529WAT      O22835   5.059   2.216   5.652
 5529WAT     H122836   5.142   2.230   5.629
 5529WAT     H222837   5.013   2.241   5.582
 5529WAT    EPW22838   5.064   2.222   5.639
 5530WAT      O22839   5.394   2.510   5.520
 5530WAT     H122840   5.428   2.540   5.594
 5530WAT     H222841   5.443   2.548   5.458
 5530WAT    EPW22842   5.406   2.520   5.522
 5531WAT      O22843   5.684   1.785   4.031
 5531WAT     H122844   5.731   1.846   3.990
 5531WAT     H222845   5.652   1.737   3.965
 5531WAT    EPW22846   5.686   1.787   4.015
 5532WAT      O22847   4.624   2.078   3.900
 5532WAT     H122848   4.566   2.013   3.898
 5532WAT     H222849   4.579   2.146   3.868
 5532WAT    EPW22850   4.609   2.079   3.895
 5533WAT      O22851   4.400   1.659   4.949
 5533WAT     H122852   4.439   1.639   4.873
 5533WAT     H222853   4.458   1.633   5.009
 5533WAT    EPW22854   4.415   1.652   4.946
 5534WAT      O22855   5.142   1.641   5.495
 5534WAT     H122856   5.065   1.680   5.507
 5534WAT     H222857   5.184   1.656   5.570
 5534WAT    EPW22858   5.137   1.649   5.508
 5535WAT      O22859   5.171   1.704   5.135
 5535WAT     H122860   5.179   1.760   5.201
 5535WAT     H222861   5.156   1.628   5.175
 5535WAT    EPW22862   5.170   1.701   5.151
 5536WAT      O22863   4.899   2.801   5.536
 5536WAT     H122864   4.908   2.801   5.449
 5536WAT     H222865   4.855   2.727   5.552
 5536WAT    EPW22866   4.894   2.790   5.526
 5537WAT      O22867   5.372   1.665   4.383
 5537WAT     H122868   5.406   1.642   4.460
 5537WAT     H222869   5.440   1.696   4.339
 5537WAT    EPW22870   5.387   1.666   4.388
 5538WAT      O22871   4.723   1.133   4.914
 5538WAT     H122872   4.640   1.122   4.939
 5538WAT     H222873   4.716   1.150   4.829
 5538WAT    EPW22874   4.710   1.134   4.905
 5539WAT      O22875   5.529   1.240   4.532
 5539WAT     H122876   5.451   1.205   4.548
 5539WAT     H222877   5.525   1.260   4.447
 5539WAT    EPW22878   5.517   1.238   4.522
 5540WAT      O22879   5.504   2.049   4.363
 5540WAT     H122880   5.545   1.974   4.345
 5540WAT     H222881   5.420   2.028   4.360
 5540WAT    EPW22882   5.498   2.035   4.360
 5541WAT      O22883   4.908   2.265   5.419
 5541WAT     H122884   4.831   2.273   5.459
 5541WAT     H222885   4.915   2.340   5.374
 5541WAT    EPW22886   4.898   2.277   5.418
 5542WAT      O22887   3.915   1.218   5.517
 5542WAT     H122888   3.927   1.304   5.525
 5542WAT     H222889   3.848   1.202   5.571
 5542WAT    EPW22890   3.907   1.228   5.526
 5543WAT      O22891   4.482   2.816   4.957
 5543WAT     H122892   4.449   2.806   5.037
 5543WAT     H222893   4.414   2.801   4.905
 5543WAT    EPW22894   4.467   2.812   4.961
 5544WAT      O22895   4.276   1.452   4.293
 5544WAT     H122896   4.286   1.417   4.214
 5544WAT     H222897   4.194   1.431   4.315
 5544WAT    EPW22898   4.265   1.444   4.285
 5545WAT      O22899   5.189   2.226   4.633
 5545WAT     H122900   5.173   2.243   4.717
 5545WAT     H222901   5.216   2.142   4.635
 5545WAT    EPW22902   5.191   2.216   4.646
 5546WAT      O22903   4.939   2.144   4.534
 5546WAT     H122904   4.894   2.138   4.608
 5546WAT     H222905   5.016   2.179   4.558
 5546WAT    EPW22906   4.944   2.148   4.548
 5547WAT      O22907   4.911   2.552   5.326
 5547WAT     H122908   4.971   2.547   5.389
 5547WAT     H222909   4.935   2.621   5.279
 5547WAT    EPW22910   4.923   2.561   5.328
 5548WAT      O22911   5.753   1.741   5.533
 5548WAT     H122912   5.666   1.754   5.536
 5548WAT     H222913   5.773   1.758   5.450
 5548WAT    EPW22914   5.743   1.746   5.522
 5549WAT      O22915   5.201   1.879   5.350
 5549WAT     H122916   5.194   1.817   5.411
 5549WAT     H222917   5.272   1.924   5.376
 5549WAT    EPW22918   5.211   1.877   5.363
 5550WAT      O22919   4.089   2.894   5.483
 5550WAT     H122920   4.043   2.834   5.440
 5550WAT     H222921   4.032   2.958   5.496
 5550WAT    EPW22922   4.074   2.894   5.478
 5551WAT      O22923   5.001   1.967   5.761
 5551WAT     H122924   5.023   2.043   5.725
 5551WAT     H222925   4.921   1.981   5.793
 5551WAT    EPW22926   4.993   1.980   5.761
 5552WAT      O22927   5.312   2.857   4.846
 5552WAT     H122928   5.252   2.919   4.859
 5552WAT     H222929   5.370   2.870   4.909
 5552WAT    EPW22930   5.312   2.868   4.857
 5553WAT      O22931   4.944   2.343   5.061
 5553WAT     H122932   4.893   2.382   5.001
 5553WAT     H222933   4.978   2.411   5.105
 5553WAT    EPW22934   4.942   2.359   5.058
 5554WAT      O22935   5.521   2.590   5.756
 5554WAT     H122936   5.604   2.563   5.754
 5554WAT     H222937   5.487   2.548   5.824
 5554WAT    EPW22938   5.528   2.580   5.765
 5555WAT      O22939   4.295   1.706   5.398
 5555WAT     H122940   4.312   1.768   5.339
 5555WAT     H222941   4.370   1.663   5.405
 5555WAT    EPW22942   4.308   1.709   5.390
 5556WAT      O22943   4.118   1.536   5.257
 5556WAT     H122944   4.129   1.547   5.171
 5556WAT     H222945   4.178   1.589   5.292
 5556WAT    EPW22946   4.129   1.545   5.250
 5557WAT      O22947   5.598   1.798   4.292
 5557WAT     H122948   5.618   1.799   4.207
 5557WAT     H222949   5.670   1.768   4.330
 5557WAT    EPW22950   5.612   1.794   4.285
 5558WAT      O22951   4.310   1.221   5.539
 5558WAT     H122952   4.263   1.148   5.548
 5558WAT     H222953   4.292   1.246   5.458
 5558WAT    EPW22954   4.300   1.214   5.529
 5559WAT      O22955   4.982   2.536   4.422
 5559WAT     H122956   4.956   2.611   4.385
 5559WAT     H222957   4.914   2.482   4.409
 5559WAT    EPW22958   4.968   2.539   4.414
 5560WAT      O22959   5.520   1.825   5.260
 5560WAT     H122960   5.492   1.745   5.237
 5560WAT     H222961   5.498   1.831   5.344
 5560WAT    EPW22962   5.513   1.814   5.269
 5561WAT      O22963   4.036   2.009   5.275
 5561WAT     H122964   4.076   2.028   5.200
 5561WAT     H222965   4.009   1.926   5.263
 5561WAT    EPW22966   4.038   2.000   5.262
 5562WAT      O22967   4.111   1.633   3.994
 5562WAT     H122968   4.082   1.701   3.948
 5562WAT     H222969   4.131   1.574   3.934
 5562WAT    EPW22970   4.110   1.634   3.979
 5563WAT      O22971   5.054   1.238   5.615
 5563WAT     H122972   5.086   1.306   5.660
 5563WAT     H222973   4.973   1.229   5.647
 5563WAT    EPW22974   5.047   1.247   5.626
 5564WAT      O22975   5.029   1.347   4.690
 5564WAT     H122976   4.952   1.387   4.686
 5564WAT     H222977   5.022   1.284   4.629
 5564WAT    EPW22978   5.017   1.343   4.680
 5565WAT      O22979   5.366   1.404   4.953
 5565WAT     H122980   5.445   1.369   4.965
 5565WAT     H222981   5.375   1.486   4.981
 5565WAT    EPW22982   5.379   1.411   4.959
 5566WAT      O22983   4.522   2.024   5.405
 5566WAT     H122984   4.476   2.089   5.439
 5566WAT     H222985   4.467   1.986   5.349
 5566WAT    EPW22986   4.507   2.028   5.402
 5567WAT      O22987   5.450   1.829   4.773
 5567WAT     H122988   5.511   1.890   4.785
 5567WAT     H222989   5.387   1.871   4.729
 5567WAT    EPW22990   5.450   1.844   4.768
 5568WAT      O22991   5.453   2.659   4.479
 5568WAT     H122992   5.436   2.584   4.519
 5568WAT     H222993   5.484   2.635   4.402
 5568WAT    EPW22994   5.455   2.645   4.474
 5569WAT      O22995   4.507   1.334   5.174
 5569WAT     H122996   4.428   1.311   5.203
 5569WAT     H222997   4.561   1.279   5.217
 5569WAT    EPW22998   4.504   1.322   5.185
 5570WAT      O22999   5.685   1.158   5.219
 5570WAT     H123000   5.667   1.188   5.299
 5570WAT     H223001   5.768   1.133   5.224
 5570WAT    EPW23002   5.695   1.159   5.232
 5571WAT      O23003   4.888   1.329   5.027
 5571WAT     H123004   4.834   1.267   4.997
 5571WAT     H223005   4.967   1.297   5.011
 5571WAT    EPW23006   4.892   1.315   5.020
 5572WAT      O23007   5.205   2.476   5.139
 5572WAT     H123008   5.221   2.550   5.183
 5572WAT     H223009   5.197   2.503   5.056
 5572WAT    EPW23010   5.206   2.491   5.133
 5573WAT      O23011   5.169   2.867   5.587
 5573WAT     H123012   5.095   2.833   5.557
 5573WAT     H223013   5.148   2.950   5.602
 5573WAT    EPW23014   5.155   2.874   5.585
 5574WAT      O23015   4.648   1.812   5.555
 5574WAT     H123016   4.615   1.744   5.511
 5574WAT     H223017   4.612   1.881   5.515
 5574WAT    EPW23018   4.638   1.813   5.542
 5575WAT      O23019   4.764   1.142   4.049
 5575WAT     H123020   4.774   1.150   3.963
 5575WAT     H223021   4.678   1.151   4.061
 5575WAT    EPW23022   4.752   1.144   4.038
 5576WAT      O23023   5.641   2.322   5.137
 5576WAT     H123024   5.607   2.254   5.094
 5576WAT     H223025   5.596   2.390   5.107
 5576WAT    EPW23026   5.630   2.322   5.126
 5577WAT      O23027   4.525   2.778   5.518
 5577WAT     H123028   4.509   2.783   5.603
 5577WAT     H223029   4.593   2.724   5.513
 5577WAT    EPW23030   4.533   2.771   5.530
 5578WAT      O23031   5.544   2.579   5.065
 5578WAT     H123032   5.611   2.587   5.011
 5578WAT     H223033   5.482   2.543   5.015
 5578WAT    EPW23034   5.544   2.575   5.050
 5579WAT      O23035   4.252   1.294   5.283
 5579WAT     H123036   4.199   1.230   5.256
 5579WAT     H223037   4.203   1.366   5.273
 5579WAT    EPW23038   4.237   1.295   5.277
 5580WAT      O23039   5.135   1.240   4.926
 5580WAT     H123040   5.202   1.293   4.945
 5580WAT     H223041   5.103   1.274   4.852
 5580WAT    EPW23042   5.140   1.253   4.918
 5581WAT      O23043   4.222   2.702   5.654
 5581WAT     H123044   4.293   2.738   5.690
 5581WAT     H223045   4.186   2.769   5.610
 5581WAT    EPW23046   4.227   2.717   5.653
 5582WAT      O23047   5.100   1.730   4.690
 5582WAT     H123048   5.155   1.663   4.703
 5582WAT     H223049   5.063   1.742   4.768
 5582WAT    EPW23050   5.103   1.721   4.704
 5583WAT      O23051   4.109   1.639   4.598
 5583WAT     H123052   4.053   1.652   4.663
 5583WAT     H223053   4.151   1.566   4.621
 5583WAT    EPW23054   4.107   1.630   4.611
 5584WAT      O23055   4.092   2.456   5.390
 5584WAT     H123056   4.036   2.522   5.393
 5584WAT     H223057   4.170   2.495   5.395
 5584WAT    EPW23058   4.095   2.472   5.391
 5585WAT      O23059   5.249   1.912   4.354
 5585WAT     H123060   5.274   1.829   4.362
 5585WAT     H223061   5.161   1.907   4.357
 5585WAT    EPW23062   5.239   1.899   4.355
 5586WAT      O23063   4.658   2.021   4.175
 5586WAT     H123064   4.635   2.051   4.096
 5586WAT     H223065   4.620   2.077   4.230
 5586WAT    EPW23066   4.649   2.034   4.172
 5587WAT      O23067   5.530   2.856   3.957
 5587WAT     H123068   5.608   2.849   3.996
 5587WAT     H223069   5.513   2.775   3.930
 5587WAT    EPW23070   5.539   2.843   3.958
 5588WAT      O23071   5.593   2.074   5.630
 5588WAT     H123072   5.664   2.041   5.668
 5588WAT     H223073   5.624   2.119   5.563
 5588WAT    EPW23074   5.608   2.076   5.626
 5589WAT      O23075   5.129   2.491   4.186
 5589WAT     H123076   5.099   2.498   4.267
 5589WAT     H223077   5.057   2.482   4.138
 5589WAT    EPW23078   5.114   2.491   4.191
 5590WAT      O23079   5.640   1.528   5.752
 5590WAT     H123080   5.631   1.609   5.784
 5590WAT     H223081   5.564   1.513   5.713
 5590WAT    EPW23082   5.628   1.538   5.751
 5591WAT      O23083   5.688   1.628   5.030
 5591WAT     H123084   5.604   1.652   5.025
 5591WAT     H223085   5.684   1.541   5.033
 5591WAT    EPW23086   5.675   1.619   5.030
 5592WAT      O23087   4.572   1.322   5.545
 5592WAT     H123088   4.608   1.285   5.474
 5592WAT     H223089   4.493   1.285   5.549
 5592WAT    EPW23090   4.566   1.311   5.535
 5593WAT      O23091   5.364   2.134   5.858
 5593WAT     H123092   5.436   2.163   5.896
 5593WAT     H223093   5.372   2.161   5.775
 5593WAT    EPW23094   5.375   2.142   5.851
 5594WAT      O23095   4.264   2.730   4.803
 5594WAT     H123096   4.293   2.655   4.768
 5594WAT     H223097   4.225   2.770   4.736
 5594WAT    EPW23098   4.263   2.725   4.787
 5595WAT      O23099   4.889   2.285   4.114
 5595WAT     H123100   4.962   2.273   4.068
 5595WAT     H223101   4.856   2.359   4.081
 5595WAT    EPW23102   4.895   2.294   4.102
 5596WAT      O23103   5.049   1.142   2.593
 5596WAT     H123104   5.046   1.184   2.517
 5596WAT     H223105   5.133   1.120   2.602
 5596WAT    EPW23106   5.061   1.145   2.583
 5597WAT      O23107   3.946   2.265   2.535
 5597WAT     H123108   3.871   2.259   2.580
 5597WAT     H223109   3.949   2.191   2.490
 5597WAT    EPW23110   3.935   2.253   2.535
 5598WAT      O23111   5.607   2.614   2.334
 5598WAT     H123112   5.669   2.556   2.351
 5598WAT     H223113   5.549   2.569   2.287
 5598WAT    EPW23114   5.607   2.599   2.329
 5599WAT      O23115   3.975   1.620   2.232
 5599WAT     H123116   3.901   1.657   2.204
 5599WAT     H223117   3.962   1.535   2.220
 5599WAT    EPW23118   3.962   1.613   2.226
 5600WAT      O23119   4.320   2.155   2.126
 5600WAT     H123120   4.274   2.124   2.059
 5600WAT     H223121   4.306   2.095   2.189
 5600WAT    EPW23122   4.311   2.141   2.125
 5601WAT      O23123   5.219   1.963   2.686
 5601WAT     H123124   5.223   1.944   2.601
 5601WAT     H223125   5.167   1.901   2.718
 5601WAT    EPW23126   5.212   1.951   2.678
 5602WAT      O23127   4.217   2.333   2.507
 5602WAT     H123128   4.268   2.298   2.569
 5602WAT     H223129   4.136   2.316   2.535
 5602WAT    EPW23130   4.213   2.325   2.520
 5603WAT      O23131   4.697   1.261   2.472
 5603WAT     H123132   4.690   1.327   2.416
 5603WAT     H223133   4.776   1.228   2.456
 5603WAT    EPW23134   4.707   1.266   2.461
 5604WAT      O23135   4.098   2.515   2.031
 5604WAT     H123136   4.146   2.547   1.965
 5604WAT     H223137   4.156   2.504   2.095
 5604WAT    EPW23138   4.114   2.518   2.030
 5605WAT      O23139   4.182   1.960   2.584
 5605WAT     H123140   4.121   1.903   2.557
 5605WAT     H223141   4.242   1.909   2.622
 5605WAT    EPW23142   4.182   1.944   2.585
 5606WAT      O23143   4.583   1.603   3.118
 5606WAT     H123144   4.565   1.570   3.039
 5606WAT     H223145   4.562   1.539   3.173
 5606WAT    EPW23146   4.577   1.589   3.114
 5607WAT      O23147   4.363   1.812   2.721
 5607WAT     H123148   4.363   1.851   2.799
 5607WAT     H223149   4.305   1.747   2.731
 5607WAT    EPW23150   4.354   1.808   2.734
 5608WAT      O23151   4.762   2.358   2.506
 5608WAT     H123152   4.803   2.300   2.557
 5608WAT     H223153   4.789   2.338   2.426
 5608WAT    EPW23154   4.772   2.347   2.502
 5609WAT      O23155   4.923   1.780   3.663
 5609WAT     H123156   4.842   1.784   3.631
 5609WAT     H223157   4.929   1.853   3.710
 5609WAT    EPW23158   4.912   1.792   3.665
 5610WAT      O23159   4.423   1.285   2.556
 5610WAT     H123160   4.384   1.346   2.506
 5610WAT     H223161   4.506   1.288   2.530
 5610WAT    EPW23162   4.429   1.295   2.544
 5611WAT      O23163   5.406   1.070   3.583
 5611WAT     H123164   5.377   1.133   3.530
 5611WAT     H223165   5.335   1.045   3.626
 5611WAT    EPW23166   5.391   1.076   3.581
 5612WAT      O23167   4.731   1.193   2.750
 5612WAT     H123168   4.763   1.271   2.772
 5612WAT     H223169   4.702   1.204   2.669
 5612WAT    EPW23170   4.731   1.206   2.741
 5613WAT      O23171   5.162   1.445   1.975
 5613WAT     H123172   5.113   1.514   1.997
 5613WAT     H223173   5.173   1.402   2.050
 5613WAT    EPW23174   5.156   1.449   1.989
 5614WAT      O23175   3.941   1.690   2.894
 5614WAT     H123176   3.935   1.773   2.922
 5614WAT     H223177   3.873   1.681   2.840
 5614WAT    EPW23178   3.930   1.701   2.890
 5615WAT      O23179   4.566   2.595   2.443
 5615WAT     H123180   4.504   2.634   2.489
 5615WAT     H223181   4.598   2.535   2.498
 5615WAT    EPW23182   4.562   2.592   2.458
 5616WAT      O23183   5.186   2.729   2.240
 5616WAT     H123184   5.254   2.781   2.259
 5616WAT     H223185   5.209   2.653   2.276
 5616WAT    EPW23186   5.199   2.726   2.248
 5617WAT      O23187   4.980   2.788   2.417
 5617WAT     H123188   4.985   2.874   2.430
 5617WAT     H223189   5.044   2.773   2.359
 5617WAT    EPW23190   4.990   2.798   2.410
 5618WAT      O23191   4.223   1.249   2.982
 5618WAT     H123192   4.203   1.174   2.943
 5618WAT     H223193   4.285   1.227   3.039
 5618WAT    EPW23194   4.229   1.235   2.984
 5619WAT      O23195   4.590   1.453   3.925
 5619WAT     H123196   4.601   1.411   3.849
 5619WAT     H223197   4.619   1.534   3.908
 5619WAT    EPW23198   4.596   1.459   3.911
 5620WAT      O23199   5.714   1.425   2.694
 5620WAT     H123200   5.664   1.496   2.707
 5620WAT     H223201   5.656   1.361   2.683
 5620WAT    EPW23202   5.698   1.426   2.694
 5621WAT      O23203   4.169   1.400   3.833
 5621WAT     H123204   4.090   1.368   3.811
 5621WAT     H223205   4.221   1.372   3.769
 5621WAT    EPW23206   4.165   1.391   3.820
 5622WAT      O23207   4.781   1.160   3.776
 5622WAT     H123208   4.794   1.091   3.725
 5622WAT     H223209   4.714   1.201   3.738
 5622WAT    EPW23210   4.773   1.156   3.763
 5623WAT      O23211   4.983   1.594   2.612
 5623WAT     H123212   4.956   1.599   2.529
 5623WAT     H223213   5.048   1.536   2.608
 5623WAT    EPW23214   4.988   1.586   2.599
 5624WAT      O23215   4.992   1.660   2.079
 5624WAT     H123216   5.012   1.740   2.107
 5624WAT     H223217   4.913   1.670   2.042
 5624WAT    EPW23218   4.983   1.673   2.077
 5625WAT      O23219   5.382   2.942   2.248
 5625WAT     H123220   5.433   2.917   2.182
 5625WAT     H223221   5.437   2.986   2.301
 5625WAT    EPW23222   5.398   2.945   2.246
 5626WAT      O23223   5.617   1.373   3.127
 5626WAT     H123224   5.679   1.367   3.066
 5626WAT     H223225   5.642   1.315   3.187
 5626WAT    EPW23226   5.630   1.364   3.127
 5627WAT      O23227   3.892   1.524   3.566
 5627WAT     H123228   3.894   1.605   3.597
 5627WAT     H223229   3.954   1.524   3.504
 5627WAT    EPW23230   3.901   1.536   3.561
 5628WAT      O23231   5.113   2.489   3.606
 5628WAT     H123232   5.086   2.541   3.671
 5628WAT     H223233   5.200   2.488   3.616
 5628WAT    EPW23234   5.122   2.497   3.617
 5629WAT      O23235   4.853   2.531   2.088
 5629WAT     H123236   4.820   2.593   2.140
 5629WAT     H223237   4.927   2.566   2.059
 5629WAT    EPW23238   4.859   2.545   2.092
 5630WAT      O23239   5.196   1.298   2.212
 5630WAT     H123240   5.251   1.230   2.215
 5630WAT     H223241   5.213   1.341   2.286
 5630WAT    EPW23242   5.206   1.294   2.223
 5631WAT      O23243   4.024   1.383   2.476
 5631WAT     H123244   3.983   1.314   2.442
 5631WAT     H223245   3.976   1.401   2.547
 5631WAT    EPW23246   4.011   1.375   2.482
 5632WAT      O23247   4.951   1.562   2.335
 5632WAT     H123248   4.878   1.517   2.321
 5632WAT     H223249   4.968   1.598   2.257
 5632WAT    EPW23250   4.943   1.561   2.321
 5633WAT      O23251   4.957   1.218   2.335
 5633WAT     H123252   4.899   1.201   2.273
 5633WAT     H223253   5.028   1.245   2.290
 5633WAT    EPW23254   4.959   1.220   2.319
 5634WAT      O23255   5.643   2.834   2.621
 5634WAT     H123256   5.590   2.889   2.664
 5634WAT     H223257   5.588   2.773   2.589
 5634WAT    EPW23258   5.627   2.833   2.623
 5635WAT      O23259   4.822   1.454   2.794
 5635WAT     H123260   4.858   1.506   2.734
 5635WAT     H223261   4.826   1.500   2.867
 5635WAT    EPW23262   4.828   1.468   2.796
 5636WAT      O23263   5.383   2.417   2.660
 5636WAT     H123264   5.446   2.358   2.652
 5636WAT     H223265   5.310   2.370   2.667
 5636WAT    EPW23266   5.381   2.402   2.660
 5637WAT      O23267   4.354   1.027   2.631
 5637WAT     H123268   4.376   1.109   2.609
 5637WAT     H223269   4.327   0.993   2.555
 5637WAT    EPW23270   4.354   1.034   2.616
 5638WAT      O23271   4.586   2.133   3.120
 5638WAT     H123272   4.549   2.183   3.182
 5638WAT     H223273   4.518   2.105   3.073
 5638WAT    EPW23274   4.571   2.136   3.123
 5639WAT      O23275   5.129   1.476   3.312
 5639WAT     H123276   5.125   1.521   3.386
 5639WAT     H223277   5.062   1.420   3.317
 5639WAT    EPW23278   5.119   1.474   3.323
 5640WAT      O23279   5.186   2.300   3.198
 5640WAT     H123280   5.158   2.243   3.258
 5640WAT     H223281   5.173   2.377   3.236
 5640WAT    EPW23282   5.180   2.303   3.212
 5641WAT      O23283   5.306   1.057   2.658
 5641WAT     H123284   5.309   1.032   2.741
 5641WAT     H223285   5.342   0.991   2.615
 5641WAT    EPW23286   5.311   1.044   2.664
 5642WAT      O23287   5.475   1.503   3.439
 5642WAT     H123288   5.556   1.476   3.457
 5642WAT     H223289   5.438   1.509   3.518
 5642WAT    EPW23290   5.482   1.500   3.453
 5643WAT      O23291   4.300   1.416   2.775
 5643WAT     H123292   4.330   1.363   2.713
 5643WAT     H223293   4.279   1.362   2.840
 5643WAT    EPW23294   4.301   1.400   2.775
 5644WAT      O23295   5.569   2.212   2.213
 5644WAT     H123296   5.570   2.160   2.283
 5644WAT     H223297   5.652   2.216   2.189
 5644WAT    EPW23298   5.581   2.205   2.220
 5645WAT      O23299   4.345   2.159   2.694
 5645WAT     H123300   4.416   2.161   2.643
 5645WAT     H223301   4.292   2.102   2.653
 5645WAT    EPW23302   4.348   2.151   2.680
 5646WAT      O23303   4.133   1.606   3.109
 5646WAT     H123304   4.201   1.659   3.094
 5646WAT     H223305   4.088   1.610   3.034
 5646WAT    EPW23306   4.137   1.614   3.095
 5647WAT      O23307   5.815   2.609   3.610
 5647WAT     H123308   5.739   2.616   3.567
 5647WAT     H223309   5.793   2.571   3.685
 5647WAT    EPW23310   5.801   2.605   3.615
 5648WAT      O23311   5.382   1.867   2.140
 5648WAT     H123312   5.375   1.949   2.111
 5648WAT     H223313   5.350   1.870   2.221
 5648WAT    EPW23314   5.377   1.880   2.147
 5649WAT      O23315   4.546   2.173   2.505
 5649WAT     H123316   4.607   2.235   2.502
 5649WAT     H223317   4.577   2.112   2.451
 5649WAT    EPW23318   4.560   2.173   2.496
 5650WAT      O23319   5.719   1.348   2.137
 5650WAT     H123320   5.757   1.283   2.093
 5650WAT     H223321   5.687   1.399   2.074
 5650WAT    EPW23322   5.719   1.346   2.121
 5651WAT      O23323   3.888   2.318   2.991
 5651WAT     H123324   3.815   2.322   3.039
 5651WAT     H223325   3.895   2.397   2.956
 5651WAT    EPW23326   3.878   2.330   2.993
 5652WAT      O23327   4.689   1.708   3.881
 5652WAT     H123328   4.623   1.752   3.918
 5652WAT     H223329   4.688   1.735   3.798
 5652WAT    EPW23330   4.679   1.719   3.874
 5653WAT      O23331   5.822   1.807   3.350
 5653WAT     H123332   5.837   1.751   3.285
 5653WAT     H223333   5.736   1.796   3.366
 5653WAT    EPW23334   5.811   1.797   3.343
 5654WAT      O23335   3.971   2.073   2.322
 5654WAT     H123336   3.914   2.007   2.330
 5654WAT     H223337   4.048   2.034   2.315
 5654WAT    EPW23338   3.974   2.057   2.322
 5655WAT      O23339   5.574   1.241   2.355
 5655WAT     H123340   5.648   1.199   2.378
 5655WAT     H223341   5.599   1.292   2.289
 5655WAT    EPW23342   5.589   1.242   2.349
 5656WAT      O23343   4.975   2.524   2.823
 5656WAT     H123344   4.948   2.606   2.835
 5656WAT     H223345   4.993   2.521   2.737
 5656WAT    EPW23346   4.974   2.536   2.812
 5657WAT      O23347   3.902   2.509   2.393
 5657WAT     H123348   3.945   2.578   2.424
 5657WAT     H223349   3.907   2.451   2.458
 5657WAT    EPW23350   3.909   2.510   2.407
 5658WAT      O23351   5.254   1.540   2.869
 5658WAT     H123352   5.283   1.511   2.946
 5658WAT     H223353   5.206   1.473   2.839
 5658WAT    EPW23354   5.251   1.526   2.876
 5659WAT      O23355   4.067   2.109   2.936
 5659WAT     H123356   4.075   2.111   2.849
 5659WAT     H223357   4.017   2.178   2.954
 5659WAT    EPW23358   4.061   2.120   2.926
 5660WAT      O23359   4.697   1.458   2.281
 5660WAT     H123360   4.681   1.438   2.198
 5660WAT     H223361   4.663   1.538   2.290
 5660WAT    EPW23362   4.689   1.467   2.270
 5661WAT      O23363   5.569   2.605   3.474
 5661WAT     H123364   5.518   2.676   3.476
 5661WAT     H223365   5.573   2.585   3.389
 5661WAT    EPW23366   5.562   2.613   3.462
 5662WAT      O23367   4.287   1.881   3.724
 5662WAT     H123368   4.330   1.946   3.684
 5662WAT     H223369   4.276   1.822   3.661
 5662WAT    EPW23370   4.292   1.882   3.709
 5663WAT      O23371   4.317   1.710   2.259
 5663WAT     H123372   4.299   1.647   2.316
 5663WAT     H223373   4.274   1.685   2.187
 5663WAT    EPW23374   4.308   1.697   2.257
 5664WAT      O23375   4.356   2.015   2.939
 5664WAT     H123376   4.370   2.066   2.869
 5664WAT     H223377   4.279   2.042   2.968
 5664WAT    EPW23378   4.347   2.027   2.933
 5665WAT      O23379   4.351   1.912   3.334
 5665WAT     H123380   4.361   1.868   3.259
 5665WAT     H223381   4.309   1.984   3.310
 5665WAT    EPW23382   4.346   1.916   3.319
 5666WAT      O23383   5.413   1.761   3.078
 5666WAT     H123384   5.331   1.748   3.104
 5666WAT     H223385   5.405   1.786   2.995
 5666WAT    EPW23386   5.400   1.763   3.070
 5667WAT      O23387   4.974   1.255   3.421
 5667WAT     H123388   4.986   1.171   3.399
 5667WAT     H223389   4.997   1.257   3.505
 5667WAT    EPW23390   4.979   1.243   3.430
 5668WAT      O23391   5.182   1.447   2.446
 5668WAT     H123392   5.243   1.508   2.450
 5668WAT     H223393   5.116   1.487   2.405
 5668WAT    EPW23394   5.181   1.462   2.440
 5669WAT      O23395   5.323   2.207   3.675
 5669WAT     H123396   5.348   2.291   3.671
 5669WAT     H223397   5.362   2.171   3.606
 5669WAT    EPW23398   5.333   2.214   3.665
 5670WAT      O23399   4.849   1.591   3.037
 5670WAT     H123400   4.768   1.595   3.071
 5670WAT     H223401   4.880   1.516   3.068
 5670WAT    EPW23402   4.841   1.581   3.047
 5671WAT      O23403   5.054   1.894   2.239
 5671WAT     H123404   5.042   1.955   2.178
 5671WAT     H223405   4.997   1.916   2.301
 5671WAT    EPW23406   5.044   1.906   2.239
 5672WAT      O23407   5.579   2.216   2.642
 5672WAT     H123408   5.572   2.176   2.719
 5672WAT     H223409   5.553   2.154   2.585
 5672WAT    EPW23410   5.574   2.201   2.645
 5673WAT      O23411   5.039   2.282   2.958
 5673WAT     H123412   5.015   2.363   2.933
 5673WAT     H223413   5.077   2.295   3.035
 5673WAT    EPW23414   5.041   2.296   2.965
 5674WAT      O23415   4.495   1.120   2.210
 5674WAT     H123416   4.500   1.113   2.297
 5674WAT     H223417   4.451   1.195   2.199
 5674WAT    EPW23418   4.489   1.130   2.221
 5675WAT      O23419   4.754   2.715   2.272
 5675WAT     H123420   4.821   2.743   2.321
 5675WAT     H223421   4.696   2.687   2.331
 5675WAT    EPW23422   4.755   2.715   2.288
 5676WAT      O23423   5.462   2.109   3.460
 5676WAT     H123424   5.466   2.080   3.378
 5676WAT     H223425   5.541   2.141   3.475
 5676WAT    EPW23426   5.474   2.109   3.450
 5677WAT      O23427   5.057   2.660   3.826
 5677WAT     H123428   5.087   2.694   3.901
 5677WAT     H223429   5.062   2.726   3.770
 5677WAT    EPW23430   5.062   2.675   3.829
 5678WAT      O23431   5.610   1.142   3.762
 5678WAT     H123432   5.547   1.129   3.703
 5678WAT     H223433   5.588   1.090   3.828
 5678WAT    EPW23434   5.598   1.132   3.763
 5679WAT      O23435   4.231   1.970   2.312
 5679WAT     H123436   4.252   1.886   2.298
 5679WAT     H223437   4.235   1.977   2.399
 5679WAT    EPW23438   4.235   1.958   2.323
 5680WAT      O23439   5.075   2.119   3.395
 5680WAT     H123440   5.059   2.150   3.475
 5680WAT     H223441   5.120   2.046   3.410
 5680WAT    EPW23442   5.079   2.113   3.409
 5681WAT      O23443   3.873   1.163   2.372
 5681WAT     H123444   3.890   1.100   2.313
 5681WAT     H223445   3.855   1.119   2.444
 5681WAT    EPW23446   3.873   1.147   2.374
 5682WAT      O23447   4.908   1.943   2.478
 5682WAT     H123448   4.910   2.014   2.530
 5682WAT     H223449   4.889   1.879   2.534
 5682WAT    EPW23450   4.906   1.944   2.494
 5683WAT      O23451   5.431   2.322   3.053
 5683WAT     H123452   5.401   2.369   2.986
 5683WAT     H223453   5.359   2.309   3.101
 5683WAT    EPW23454   5.416   2.327   3.050
 5684WAT      O23455   4.371   1.361   2.159
 5684WAT     H123456   4.308   1.362   2.098
 5684WAT     H223457   4.439   1.399   2.119
 5684WAT    EPW23458   4.372   1.367   2.144
 5685WAT      O23459   4.836   2.091   2.933
 5685WAT     H123460   4.765   2.110   2.980
 5685WAT     H223461   4.893   2.153   2.954
 5685WAT    EPW23462   4.834   2.103   2.943
 5686WAT      O23463   4.466   2.729   2.018
 5686WAT     H123464   4.495   2.657   2.057
 5686WAT     H223465   4.456   2.785   2.084
 5686WAT    EPW23466   4.469   2.727   2.034
 5687WAT      O23467   4.213   2.141   3.255
 5687WAT     H123468   4.280   2.191   3.278
 5687WAT     H223469   4.169   2.190   3.198
 5687WAT    EPW23470   4.216   2.156   3.250
 5688WAT      O23471   4.543   1.512   2.867
 5688WAT     H123472   4.603   1.487   2.809
 5688WAT     H223473   4.468   1.488   2.830
 5688WAT    EPW23474   4.541   1.505   2.853
 5689WAT      O23475   5.781   2.799   2.219
 5689WAT     H123476   5.850   2.752   2.194
 5689WAT     H223477   5.729   2.740   2.257
 5689WAT    EPW23478   5.783   2.783   2.221
 5690WAT      O23479   4.027   1.747   2.481
 5690WAT     H123480   4.060   1.694   2.542
 5690WAT     H223481   4.021   1.696   2.411
 5690WAT    EPW23482   4.031   1.731   2.480
 5691WAT      O23483   5.522   1.973   3.225
 5691WAT     H123484   5.539   1.914   3.287
 5691WAT     H223485   5.480   1.927   3.164
 5691WAT    EPW23486   5.518   1.957   3.225
 5692WAT      O23487   4.507   1.860   2.035
 5692WAT     H123488   4.460   1.832   2.104
 5692WAT     H223489   4.452   1.850   1.968
 5692WAT    EPW23490   4.492   1.854   2.035
 5693WAT      O23491   5.564   2.107   2.900
 5693WAT     H123492   5.535   2.166   2.957
 5693WAT     H223493   5.648   2.095   2.923
 5693WAT    EPW23494   5.572   2.114   2.911
 5694WAT      O23495   4.593   1.711   2.298
 5694WAT     H123496   4.614   1.794   2.319
 5694WAT     H223497   4.506   1.712   2.298
 5694WAT    EPW23498   4.583   1.723   2.301
 5695WAT      O23499   5.319   1.502   3.686
 5695WAT     H123500   5.264   1.479   3.749
 5695WAT     H223501   5.393   1.518   3.729
 5695WAT    EPW23502   5.322   1.501   3.702
 5696WAT      O23503   3.957   1.366   2.969
 5696WAT     H123504   3.941   1.375   2.883
 5696WAT     H223505   4.039   1.337   2.971
 5696WAT    EPW23506   3.967   1.363   2.956
 5697WAT      O23507   5.802   2.556   3.002
 5697WAT     H123508   5.790   2.592   2.924
 5697WAT     H223509   5.879   2.588   3.028
 5697WAT    EPW23510   5.811   2.566   2.994
 5698WAT      O23511   5.195   1.775   3.844
 5698WAT     H123512   5.211   1.824   3.915
 5698WAT     H223513   5.256   1.802   3.788
 5698WAT    EPW23514   5.207   1.786   3.847
 5699WAT      O23515   5.423   1.840   3.663
 5699WAT     H123516   5.464   1.912   3.691
 5699WAT     H223517   5.469   1.775   3.698
 5699WAT    EPW23518   5.436   1.841   3.672
 5700WAT      O23519   5.431   2.453   2.200
 5700WAT     H123520   5.467   2.374   2.210
 5700WAT     H223521   5.354   2.445   2.240
 5700WAT    EPW23522   5.425   2.440   2.207
 5701WAT      O23523   5.490   1.611   2.732
 5701WAT     H123524   5.425   1.575   2.778
 5701WAT     H223525   5.491   1.694   2.759
 5701WAT    EPW23526   5.480   1.618   2.743
 5702WAT      O23527   5.823   1.954   3.859
 5702WAT     H123528   5.834   1.902   3.789
 5702WAT     H223529   5.893   2.006   3.857
 5702WAT    EPW23530   5.835   1.954   3.848
 5703WAT      O23531   5.699   2.223   3.569
 5703WAT     H123532   5.786   2.213   3.565
 5703WAT     H223533   5.689   2.309   3.579
 5703WAT    EPW23534   5.711   2.234   3.570
 5704WAT      O23535   5.102   2.231   2.141
 5704WAT     H123536   5.182   2.198   2.130
 5704WAT     H223537   5.074   2.243   2.059
 5704WAT    EPW23538   5.110   2.228   2.127
 5705WAT      O23539   5.323   1.274   3.401
 5705WAT     H123540   5.375   1.344   3.412
 5705WAT     H223541   5.245   1.310   3.388
 5705WAT    EPW23542   5.320   1.290   3.400
 5706WAT      O23543   4.860   2.016   3.241
 5706WAT     H123544   4.913   2.058   3.296
 5706WAT     H223545   4.786   2.063   3.244
 5706WAT    EPW23546   4.857   2.029   3.249
 5707WAT      O23547   4.516   1.565   3.523
 5707WAT     H123548   4.537   1.503   3.581
 5707WAT     H223549   4.522   1.524   3.446
 5707WAT    EPW23550   4.520   1.550   3.520
 5708WAT      O23551   5.446   1.073   3.253
 5708WAT     H123552   5.402   1.139   3.291
 5708WAT     H223553   5.530   1.096   3.264
 5708WAT    EPW23554   5.452   1.086   3.260
 5709WAT      O23555   4.694   1.224   3.429
 5709WAT     H123556   4.780   1.239   3.422
 5709WAT     H223557   4.688   1.137   3.422
 5709WAT    EPW23558   4.706   1.214   3.427
 5710WAT      O23559   5.052   2.219   3.667
 5710WAT     H123560   5.138   2.204   3.669
 5710WAT     H223561   5.046   2.304   3.647
 5710WAT    EPW23562   5.063   2.229   3.664
 5711WAT      O23563   5.392   2.476   3.649
 5711WAT     H123564   5.417   2.517   3.721
 5711WAT     H223565   5.441   2.512   3.586
 5711WAT    EPW23566   5.403   2.487   3.650
 5712WAT      O23567   5.639   1.766   2.110
 5712WAT     H123568   5.686   1.824   2.064
 5712WAT     H223569   5.558   1.799   2.108
 5712WAT    EPW23570   5.634   1.779   2.103
 5713WAT      O23571   4.731   2.025   2.077
 5713WAT     H123572   4.663   1.977   2.051
 5713WAT     H223573   4.702   2.107   2.072
 5713WAT    EPW23574   4.717   2.030   2.072
 5714WAT      O23575   4.362   1.773   3.094
 5714WAT     H123576   4.381   1.842   3.044
 5714WAT     H223577   4.437   1.729   3.097
 5714WAT    EPW23578   4.376   1.777   3.087
 5715WAT      O23579   5.124   1.638   3.536
 5715WAT     H123580   5.061   1.673   3.585
 5715WAT     H223581   5.180   1.607   3.595
 5715WAT    EPW23582   5.123   1.639   3.552
 5716WAT      O23583   5.155   1.740   3.188
 5716WAT     H123584   5.175   1.784   3.261
 5716WAT     H223585   5.141   1.659   3.217
 5716WAT    EPW23586   5.156   1.734   3.203
 5717WAT      O23587   5.376   1.647   2.480
 5717WAT     H123588   5.403   1.630   2.561
 5717WAT     H223589   5.448   1.674   2.440
 5717WAT    EPW23590   5.391   1.649   2.486
 5718WAT      O23591   4.705   1.146   3.036
 5718WAT     H123592   4.621   1.148   3.060
 5718WAT     H223593   4.702   1.149   2.949
 5718WAT    EPW23594   4.692   1.147   3.027
 5719WAT      O23595   5.523   1.232   2.631
 5719WAT     H123596   5.446   1.193   2.646
 5719WAT     H223597   5.521   1.249   2.545
 5719WAT    EPW23598   5.511   1.229   2.621
 5720WAT      O23599   5.520   2.037   2.433
 5720WAT     H123600   5.561   1.961   2.426
 5720WAT     H223601   5.435   2.015   2.429
 5720WAT    EPW23602   5.513   2.023   2.432
 5721WAT      O23603   3.939   1.287   3.715
 5721WAT     H123604   3.921   1.361   3.673
 5721WAT     H223605   3.863   1.243   3.712
 5721WAT    EPW23606   3.925   1.291   3.708
 5722WAT      O23607   4.280   1.468   2.400
 5722WAT     H123608   4.295   1.430   2.323
 5722WAT     H223609   4.199   1.444   2.419
 5722WAT    EPW23610   4.271   1.458   2.392
 5723WAT      O23611   5.166   2.236   2.714
 5723WAT     H123612   5.139   2.249   2.796
 5723WAT     H223613   5.189   2.152   2.713
 5723WAT    EPW23614   5.165   2.226   2.726
 5724WAT      O23615   4.901   2.160   2.654
 5724WAT     H123616   4.870   2.144   2.734
 5724WAT     H223617   4.980   2.193   2.669
 5724WAT    EPW23618   4.908   2.163   2.668
 5725WAT      O23619   5.860   1.803   3.630
 5725WAT     H123620   5.806   1.739   3.655
 5725WAT     H223621   5.855   1.801   3.543
 5725WAT    EPW23622   5.851   1.793   3.621
 5726WAT      O23623   5.218   1.877   3.432
 5726WAT     H123624   5.184   1.808   3.474
 5726WAT     H223625   5.289   1.896   3.478
 5726WAT    EPW23626   5.223   1.870   3.445
 5727WAT      O23627   4.888   2.019   3.811
 5727WAT     H123628   4.924   2.083   3.763
 5727WAT     H223629   4.805   2.043   3.817
 5727WAT    EPW23630   4.881   2.032   3.805
 5728WAT      O23631   5.341   2.899   2.957
 5728WAT     H123632   5.290   2.969   2.971
 5728WAT     H223633   5.370   2.878   3.037
 5728WAT    EPW23634   5.338   2.906   2.971
 5729WAT      O23635   5.501   2.590   3.878
 5729WAT     H123636   5.582   2.557   3.876
 5729WAT     H223637   5.462   2.547   3.943
 5729WAT    EPW23638   5.507   2.579   3.888
 5730WAT      O23639   4.278   1.707   3.503
 5730WAT     H123640   4.299   1.774   3.452
 5730WAT     H223641   4.354   1.665   3.513
 5730WAT    EPW23642   4.293   1.711   3.497
 5731WAT      O23643   4.098   1.548   3.374
 5731WAT     H123644   4.112   1.561   3.289
 5731WAT     H223645   4.158   1.598   3.412
 5731WAT    EPW23646   4.109   1.557   3.367
 5732WAT      O23647   5.606   1.775   2.387
 5732WAT     H123648   5.623   1.773   2.302
 5732WAT     H223649   5.681   1.749   2.424
 5732WAT    EPW23650   5.620   1.771   2.380
 5733WAT      O23651   4.309   1.252   3.636
 5733WAT     H123652   4.266   1.177   3.643
 5733WAT     H223653   4.296   1.276   3.553
 5733WAT    EPW23654   4.301   1.245   3.625
 5734WAT      O23655   4.994   2.525   2.534
 5734WAT     H123656   4.983   2.608   2.509
 5734WAT     H223657   4.916   2.489   2.522
 5734WAT    EPW23658   4.981   2.532   2.529
 5735WAT      O23659   5.554   1.778   3.420
 5735WAT     H123660   5.525   1.697   3.410
 5735WAT     H223661   5.519   1.804   3.495
 5735WAT    EPW23662   5.545   1.770   3.429
 5736WAT      O23663   4.022   2.012   3.424
 5736WAT     H123664   4.086   2.056   3.384
 5736WAT     H223665   4.005   1.946   3.369
 5736WAT    EPW23666   4.029   2.008   3.410
 5737WAT      O23667   4.168   1.647   2.033
 5737WAT     H123668   4.098   1.647   2.085
 5737WAT     H223669   4.172   1.565   2.004
 5737WAT    EPW23670   4.158   1.635   2.037
 5738WAT      O23671   5.031   1.246   3.694
 5738WAT     H123672   5.062   1.309   3.746
 5738WAT     H223673   4.953   1.227   3.728
 5738WAT    EPW23674   5.024   1.252   3.707
 5739WAT      O23675   5.078   1.334   2.792
 5739WAT     H123676   4.997   1.360   2.810
 5739WAT     H223677   5.067   1.275   2.728
 5739WAT    EPW23678   5.065   1.329   2.785
 5740WAT      O23679   4.497   2.499   2.186
 5740WAT     H123680   4.528   2.528   2.263
 5740WAT     H223681   4.415   2.475   2.204
 5740WAT    EPW23682   4.490   2.500   2.200
 5741WAT      O23683   5.336   1.411   3.102
 5741WAT     H123684   5.422   1.399   3.115
 5741WAT     H223685   5.307   1.434   3.181
 5741WAT    EPW23686   5.345   1.413   3.116
 5742WAT      O23687   4.481   2.026   3.568
 5742WAT     H123688   4.486   2.113   3.573
 5742WAT     H223689   4.453   2.011   3.487
 5742WAT    EPW23690   4.478   2.037   3.557
 5743WAT      O23691   5.439   1.871   2.825
 5743WAT     H123692   5.483   1.942   2.849
 5743WAT     H223693   5.372   1.903   2.779
 5743WAT    EPW23694   5.435   1.886   2.822
 5744WAT      O23695   5.429   2.671   2.543
 5744WAT     H123696   5.409   2.595   2.582
 5744WAT     H223697   5.475   2.645   2.473
 5744WAT    EPW23698   5.433   2.656   2.539
 5745WAT      O23699   4.242   2.392   2.239
 5745WAT     H123700   4.245   2.382   2.326
 5745WAT     H223701   4.273   2.316   2.209
 5745WAT    EPW23702   4.247   2.379   2.248
 5746WAT      O23703   4.573   2.256   2.055
 5746WAT     H123704   4.496   2.219   2.075
 5746WAT     H223705   4.570   2.333   2.096
 5746WAT    EPW23706   4.561   2.262   2.064
 5747WAT      O23707   4.517   1.400   3.299
 5747WAT     H123708   4.438   1.363   3.308
 5747WAT     H223709   4.572   1.338   3.325
 5747WAT    EPW23710   4.513   1.385   3.304
 5748WAT      O23711   5.698   1.192   3.326
 5748WAT     H123712   5.706   1.253   3.388
 5748WAT     H223713   5.775   1.152   3.326
 5748WAT    EPW23714   5.710   1.195   3.335
 5749WAT      O23715   4.922   1.326   3.088
 5749WAT     H123716   4.858   1.268   3.082
 5749WAT     H223717   4.994   1.276   3.083
 5749WAT    EPW23718   4.923   1.310   3.086
 5750WAT      O23719   5.139   2.543   3.322
 5750WAT     H123720   5.123   2.540   3.407
 5750WAT     H223721   5.084   2.604   3.292
 5750WAT    EPW23722   5.128   2.552   3.330
 5751WAT      O23723   5.105   2.839   3.611
 5751WAT     H123724   5.023   2.828   3.585
 5751WAT     H223725   5.105   2.918   3.646
 5751WAT    EPW23726   5.093   2.849   3.612
 5752WAT      O23727   4.649   1.799   3.617
 5752WAT     H123728   4.604   1.737   3.574
 5752WAT     H223729   4.603   1.871   3.601
 5752WAT    EPW23730   4.635   1.800   3.608
 5753WAT      O23731   4.766   1.148   2.149
 5753WAT     H123732   4.774   1.159   2.063
 5753WAT     H223733   4.679   1.151   2.162
 5753WAT    EPW23734   4.754   1.150   2.138
 5754WAT      O23735   5.698   2.185   3.182
 5754WAT     H123736   5.636   2.124   3.189
 5754WAT     H223737   5.655   2.260   3.192
 5754WAT    EPW23738   5.683   2.187   3.185
 5755WAT      O23739   5.624   2.470   3.205
 5755WAT     H123740   5.669   2.513   3.144
 5755WAT     H223741   5.552   2.445   3.162
 5755WAT    EPW23742   5.620   2.473   3.189
 5756WAT      O23743   4.255   1.317   3.372
 5756WAT     H123744   4.201   1.251   3.355
 5756WAT     H223745   4.203   1.387   3.369
 5756WAT    EPW23746   4.239   1.317   3.369
 5757WAT      O23747   5.173   1.200   3.020
 5757WAT     H123748   5.229   1.260   3.052
 5757WAT     H223749   5.148   1.234   2.944
 5757WAT    EPW23750   5.178   1.214   3.014
 5758WAT      O23751   5.080   1.757   2.818
 5758WAT     H123752   5.139   1.700   2.847
 5758WAT     H223753   5.039   1.714   2.754
 5758WAT    EPW23754   5.082   1.742   2.813
 5759WAT      O23755   4.144   1.636   2.710
 5759WAT     H123756   4.083   1.643   2.772
 5759WAT     H223757   4.183   1.560   2.728
 5759WAT    EPW23758   4.141   1.626   2.722
 5760WAT      O23759   5.271   1.896   2.412
 5760WAT     H123760   5.289   1.813   2.432
 5760WAT     H223761   5.199   1.891   2.364
 5760WAT    EPW23762   5.263   1.883   2.408
 5761WAT      O23763   4.668   1.976   2.343
 5761WAT     H123764   4.690   2.001   2.262
 5761WAT     H223765   4.745   1.971   2.384
 5761WAT    EPW23766   4.682   1.979   2.337
 5762WAT      O23767   5.563   2.860   2.052
 5762WAT     H123768   5.636   2.850   2.100
 5762WAT     H223769   5.544   2.778   2.028
 5762WAT    EPW23770   5.571   2.846   2.056
 5763WAT      O23771   5.581   2.049   3.761
 5763WAT     H123772   5.653   2.022   3.801
 5763WAT     H223773   5.611   2.106   3.702
 5763WAT    EPW23774   5.596   2.054   3.758
 5764WAT      O23775   5.180   2.453   2.321
 5764WAT     H123776   5.131   2.460   2.393
 5764WAT     H223777   5.137   2.394   2.273
 5764WAT    EPW23778   5.166   2.445   2.324
 5765WAT      O23779   5.669   1.649   3.127
 5765WAT     H123780   5.588   1.682   3.118
 5765WAT     H223781   5.655   1.564   3.133
 5765WAT    EPW23782   5.655   1.642   3.126
 5766WAT      O23783   4.579   1.321   3.663
 5766WAT     H123784   4.614   1.295   3.587
 5766WAT     H223785   4.497   1.289   3.660
 5766WAT    EPW23786   4.572   1.312   3.651
 5767WAT      O23787   5.357   2.118   3.954
 5767WAT     H123788   5.424   2.145   4.003
 5767WAT     H223789   5.388   2.122   3.873
 5767WAT    EPW23790   5.371   2.123   3.949
 5768WAT      O23791   4.858   2.305   2.254
 5768WAT     H123792   4.931   2.267   2.226
 5768WAT     H223793   4.848   2.373   2.201
 5768WAT    EPW23794   4.867   2.310   2.242
 5769WAT      O23795   5.074   1.146   0.682
 5769WAT     H123796   5.095   1.178   0.604
 5769WAT     H223797   5.150   1.121   0.716
 5769WAT    EPW23798   5.088   1.147   0.676
 5770WAT      O23799   4.985   1.779   1.145
 5770WAT     H123800   4.953   1.856   1.171
 5770WAT     H223801   5.044   1.759   1.206
 5770WAT    EPW23802   4.989   1.788   1.158
 5771WAT      O23803   3.972   2.251   0.678
 5771WAT     H123804   3.965   2.255   0.765
 5771WAT     H223805   3.967   2.166   0.661
 5771WAT    EPW23806   3.970   2.239   0.689
 5772WAT      O23807   5.599   2.597   0.425
 5772WAT     H123808   5.662   2.541   0.446
 5772WAT     H223809   5.545   2.550   0.375
 5772WAT    EPW23810   5.601   2.582   0.421
 5773WAT      O23811   3.982   1.611   0.317
 5773WAT     H123812   3.927   1.668   0.281
 5773WAT     H223813   3.940   1.535   0.311
 5773WAT    EPW23814   3.968   1.608   0.311
 5774WAT      O23815   4.231   2.153   0.253
 5774WAT     H123816   4.217   2.113   0.177
 5774WAT     H223817   4.238   2.088   0.310
 5774WAT    EPW23818   4.230   2.138   0.250
 5775WAT      O23819   5.241   1.967   0.813
 5775WAT     H123820   5.253   1.954   0.728
 5775WAT     H223821   5.185   1.903   0.835
 5775WAT    EPW23822   5.234   1.955   0.804
 5776WAT      O23823   4.221   2.362   0.625
 5776WAT     H123824   4.274   2.329   0.686
 5776WAT     H223825   4.145   2.321   0.640
 5776WAT    EPW23826   4.217   2.351   0.637
 5777WAT      O23827   4.697   1.263   0.607
 5777WAT     H123828   4.697   1.345   0.577
 5777WAT     H223829   4.742   1.219   0.546
 5777WAT    EPW23830   4.704   1.269   0.593
 5778WAT      O23831   4.137   2.665   0.278
 5778WAT     H123832   4.170   2.673   0.197
 5778WAT     H223833   4.160   2.584   0.301
 5778WAT    EPW23834   4.145   2.654   0.269
 5779WAT      O23835   3.912   2.509   1.369
 5779WAT     H123836   3.959   2.478   1.436
 5779WAT     H223837   3.863   2.441   1.345
 5779WAT    EPW23838   3.912   2.494   1.375
 5780WAT      O23839   4.645   2.280   1.786
 5780WAT     H123840   4.623   2.267   1.870
 5780WAT     H223841   4.571   2.262   1.744
 5780WAT    EPW23842   4.631   2.276   1.792
 5781WAT      O23843   4.175   2.000   0.811
 5781WAT     H123844   4.125   1.998   0.740
 5781WAT     H223845   4.230   1.934   0.800
 5781WAT    EPW23846   4.176   1.990   0.799
 5782WAT      O23847   4.595   1.563   1.349
 5782WAT     H123848   4.664   1.568   1.297
 5782WAT     H223849   4.576   1.478   1.349
 5782WAT    EPW23850   4.602   1.551   1.342
 5783WAT      O23851   4.658   2.747   1.538
 5783WAT     H123852   4.580   2.773   1.507
 5783WAT     H223853   4.664   2.664   1.512
 5783WAT    EPW23854   4.647   2.739   1.529
 5784WAT      O23855   4.342   1.782   0.793
 5784WAT     H123856   4.409   1.730   0.813
 5784WAT     H223857   4.273   1.727   0.796
 5784WAT    EPW23858   4.342   1.766   0.796
 5785WAT      O23859   4.719   2.429   0.961
 5785WAT     H123860   4.743   2.347   0.979
 5785WAT     H223861   4.795   2.471   0.950
 5785WAT    EPW23862   4.734   2.423   0.962
 5786WAT      O23863   4.780   2.336   0.587
 5786WAT     H123864   4.822   2.279   0.638
 5786WAT     H223865   4.821   2.330   0.510
 5786WAT    EPW23866   4.792   2.327   0.583
 5787WAT      O23867   4.927   1.807   1.735
 5787WAT     H123868   4.841   1.807   1.718
 5787WAT     H223869   4.935   1.861   1.803
 5787WAT    EPW23870   4.915   1.815   1.742
 5788WAT      O23871   4.422   1.276   0.680
 5788WAT     H123872   4.381   1.323   0.619
 5788WAT     H223873   4.505   1.272   0.651
 5788WAT    EPW23874   4.428   1.283   0.667
 5789WAT      O23875   5.414   1.060   1.636
 5789WAT     H123876   5.385   1.126   1.587
 5789WAT     H223877   5.343   1.035   1.681
 5789WAT    EPW23878   5.399   1.066   1.635
 5790WAT      O23879   4.748   1.209   0.874
 5790WAT     H123880   4.756   1.292   0.900
 5790WAT     H223881   4.727   1.217   0.789
 5790WAT    EPW23882   4.746   1.223   0.865
 5791WAT      O23883   3.988   1.740   1.057
 5791WAT     H123884   3.989   1.826   1.066
 5791WAT     H223885   3.919   1.715   1.104
 5791WAT    EPW23886   3.978   1.749   1.065
 5792WAT      O23887   3.972   2.714   0.881
 5792WAT     H123888   3.905   2.751   0.840
 5792WAT     H223889   4.017   2.676   0.817
 5792WAT    EPW23890   3.969   2.714   0.866
 5793WAT      O23891   4.585   2.541   0.576
 5793WAT     H123892   4.541   2.528   0.650
 5793WAT     H223893   4.654   2.489   0.584
 5793WAT    EPW23894   4.589   2.532   0.588
 5794WAT      O23895   5.181   2.708   0.377
 5794WAT     H123896   5.243   2.768   0.366
 5794WAT     H223897   5.224   2.638   0.405
 5794WAT    EPW23898   5.196   2.707   0.380
 5795WAT      O23899   4.962   2.745   0.544
 5795WAT     H123900   4.975   2.812   0.597
 5795WAT     H223901   5.033   2.743   0.493
 5795WAT    EPW23902   4.974   2.754   0.544
 5796WAT      O23903   4.281   1.244   1.100
 5796WAT     H123904   4.233   1.179   1.066
 5796WAT     H223905   4.344   1.203   1.143
 5796WAT    EPW23906   4.283   1.228   1.101
 5797WAT      O23907   4.598   1.442   2.013
 5797WAT     H123908   4.587   1.407   1.934
 5797WAT     H223909   4.637   1.518   1.996
 5797WAT    EPW23910   4.602   1.448   1.999
 5798WAT      O23911   4.112   2.615   0.659
 5798WAT     H123912   4.160   2.543   0.665
 5798WAT     H223913   4.162   2.669   0.613
 5798WAT    EPW23914   4.126   2.612   0.653
 5799WAT      O23915   5.719   1.430   0.802
 5799WAT     H123916   5.669   1.501   0.810
 5799WAT     H223917   5.661   1.366   0.787
 5799WAT    EPW23918   5.703   1.431   0.801
 5800WAT      O23919   5.246   2.776   1.334
 5800WAT     H123920   5.265   2.700   1.372
 5800WAT     H223921   5.206   2.753   1.260
 5800WAT    EPW23922   5.243   2.762   1.329
 5801WAT      O23923   4.178   1.378   1.965
 5801WAT     H123924   4.099   1.352   1.991
 5801WAT     H223925   4.192   1.332   1.893
 5801WAT    EPW23926   4.168   1.368   1.959
 5802WAT      O23927   4.250   2.462   1.004
 5802WAT     H123928   4.309   2.458   0.941
 5802WAT     H223929   4.281   2.407   1.065
 5802WAT    EPW23930   4.264   2.453   1.004
 5803WAT      O23931   4.559   2.767   0.885
 5803WAT     H123932   4.551   2.752   0.971
 5803WAT     H223933   4.485   2.809   0.865
 5803WAT    EPW23934   4.547   2.771   0.895
 5804WAT      O23935   4.786   1.176   1.878
 5804WAT     H123936   4.798   1.104   1.829
 5804WAT     H223937   4.718   1.215   1.840
 5804WAT    EPW23938   4.778   1.171   1.865
 5805WAT      O23939   4.879   1.702   0.719
 5805WAT     H123940   4.909   1.658   0.650
 5805WAT     H223941   4.950   1.716   0.767
 5805WAT    EPW23942   4.894   1.697   0.716
 5806WAT      O23943   4.979   1.716   0.255
 5806WAT     H123944   5.002   1.792   0.290
 5806WAT     H223945   4.902   1.734   0.217
 5806WAT    EPW23946   4.971   1.730   0.254
 5807WAT      O23947   5.373   2.914   0.334
 5807WAT     H123948   5.418   2.879   0.268
 5807WAT     H223949   5.430   2.969   0.370
 5807WAT    EPW23950   5.388   2.917   0.329
 5808WAT      O23951   4.399   2.823   1.460
 5808WAT     H123952   4.379   2.890   1.513
 5808WAT     H223953   4.323   2.783   1.448
 5808WAT    EPW23954   4.385   2.827   1.466
 5809WAT      O23955   5.634   1.356   1.223
 5809WAT     H123956   5.698   1.343   1.165
 5809WAT     H223957   5.652   1.297   1.286
 5809WAT    EPW23958   5.646   1.345   1.224
 5810WAT      O23959   3.888   1.472   1.645
 5810WAT     H123960   3.886   1.543   1.695
 5810WAT     H223961   3.949   1.490   1.585
 5810WAT    EPW23962   3.897   1.485   1.643
 5811WAT      O23963   5.136   2.502   1.747
 5811WAT     H123964   5.116   2.531   1.826
 5811WAT     H223965   5.224   2.502   1.746
 5811WAT    EPW23966   5.146   2.506   1.758
 5812WAT      O23967   4.965   2.594   0.226
 5812WAT     H123968   4.901   2.652   0.240
 5812WAT     H223969   5.036   2.635   0.254
 5812WAT    EPW23970   4.966   2.609   0.232
 5813WAT      O23971   5.133   1.212   0.419
 5813WAT     H123972   5.200   1.169   0.382
 5813WAT     H223973   5.167   1.290   0.437
 5813WAT    EPW23974   5.148   1.217   0.416
 5814WAT      O23975   3.997   1.391   0.576
 5814WAT     H123976   3.970   1.311   0.554
 5814WAT     H223977   3.952   1.408   0.649
 5814WAT    EPW23978   3.986   1.382   0.583
 5815WAT      O23979   4.138   2.731   1.371
 5815WAT     H123980   4.085   2.662   1.374
 5815WAT     H223981   4.180   2.721   1.295
 5815WAT    EPW23982   4.137   2.720   1.360
 5816WAT      O23983   4.949   1.567   0.485
 5816WAT     H123984   4.872   1.528   0.470
 5816WAT     H223985   4.964   1.612   0.411
 5816WAT    EPW23986   4.940   1.568   0.472
 5817WAT      O23987   4.993   2.795   1.447
 5817WAT     H123988   5.073   2.792   1.411
 5817WAT     H223989   4.940   2.794   1.378
 5817WAT    EPW23990   4.997   2.795   1.432
 5818WAT      O23991   4.859   1.206   0.375
 5818WAT     H123992   4.838   1.275   0.327
 5818WAT     H223993   4.946   1.211   0.382
 5818WAT    EPW23994   4.868   1.217   0.369
 5819WAT      O23995   5.654   2.833   0.722
 5819WAT     H123996   5.610   2.908   0.732
 5819WAT     H223997   5.592   2.775   0.703
 5819WAT    EPW23998   5.638   2.836   0.721
 5820WAT      O23999   4.783   1.495   0.891
 5820WAT     H124000   4.805   1.563   0.841
 5820WAT     H224001   4.790   1.527   0.972
 5820WAT    EPW24002   4.787   1.510   0.896
 5821WAT      O24003   5.386   2.409   0.772
 5821WAT     H124004   5.450   2.350   0.775
 5821WAT     H224005   5.314   2.362   0.790
 5821WAT    EPW24006   5.385   2.393   0.775
 5822WAT      O24007   4.327   2.498   1.602
 5822WAT     H124008   4.399   2.515   1.556
 5822WAT     H224009   4.336   2.548   1.673
 5822WAT    EPW24010   4.339   2.508   1.606
 5823WAT      O24011   4.355   1.017   0.747
 5823WAT     H124012   4.377   1.099   0.728
 5823WAT     H224013   4.322   0.987   0.672
 5823WAT    EPW24014   4.353   1.025   0.733
 5824WAT      O24015   4.540   2.111   1.098
 5824WAT     H124016   4.566   2.094   1.180
 5824WAT     H224017   4.487   2.044   1.080
 5824WAT    EPW24018   4.536   2.099   1.107
 5825WAT      O24019   5.134   1.465   1.474
 5825WAT     H124020   5.136   1.509   1.549
 5825WAT     H224021   5.066   1.411   1.484
 5825WAT    EPW24022   5.124   1.463   1.486
 5826WAT      O24023   4.648   2.096   1.352
 5826WAT     H124024   4.645   2.180   1.373
 5826WAT     H224025   4.616   2.056   1.423
 5826WAT    EPW24026   4.643   2.102   1.366
 5827WAT      O24027   5.277   2.213   1.356
 5827WAT     H124028   5.200   2.186   1.386
 5827WAT     H224029   5.274   2.299   1.367
 5827WAT    EPW24030   5.265   2.222   1.362
 5828WAT      O24031   5.318   1.067   0.784
 5828WAT     H124032   5.319   1.049   0.869
 5828WAT     H224033   5.353   0.996   0.748
 5828WAT    EPW24034   5.323   1.054   0.791
 5829WAT      O24035   3.867   2.669   1.989
 5829WAT     H124036   3.862   2.735   2.046
 5829WAT     H224037   3.939   2.626   2.013
 5829WAT    EPW24038   3.877   2.672   2.001
 5830WAT      O24039   5.513   1.513   1.567
 5830WAT     H124040   5.597   1.497   1.588
 5830WAT     H224041   5.472   1.508   1.644
 5830WAT    EPW24042   5.519   1.510   1.582
 5831WAT      O24043   4.297   1.418   0.888
 5831WAT     H124044   4.329   1.366   0.826
 5831WAT     H224045   4.291   1.366   0.958
 5831WAT    EPW24046   4.301   1.403   0.890
 5832WAT      O24047   5.563   2.214   0.335
 5832WAT     H124048   5.560   2.168   0.409
 5832WAT     H224049   5.648   2.215   0.315
 5832WAT    EPW24050   5.575   2.208   0.343
 5833WAT      O24051   4.345   2.222   0.827
 5833WAT     H124052   4.416   2.199   0.783
 5833WAT     H224053   4.297   2.149   0.827
 5833WAT    EPW24054   4.348   2.208   0.821
 5834WAT      O24055   4.158   2.900   0.967
 5834WAT     H124056   4.091   2.850   0.941
 5834WAT     H224057   4.210   2.901   0.897
 5834WAT    EPW24058   4.156   2.893   0.952
 5835WAT      O24059   4.149   1.558   1.192
 5835WAT     H124060   4.233   1.578   1.178
 5835WAT     H224061   4.106   1.622   1.151
 5835WAT    EPW24062   4.155   1.570   1.184
 5836WAT      O24063   5.823   2.635   1.725
 5836WAT     H124064   5.745   2.640   1.687
 5836WAT     H224065   5.807   2.593   1.800
 5836WAT    EPW24066   5.809   2.630   1.731
 5837WAT      O24067   5.392   1.833   0.270
 5837WAT     H124068   5.316   1.799   0.244
 5837WAT     H224069   5.370   1.879   0.341
 5837WAT    EPW24070   5.377   1.835   0.276
 5838WAT      O24071   4.551   2.167   0.650
 5838WAT     H124072   4.611   2.225   0.623
 5838WAT     H224073   4.562   2.100   0.596
 5838WAT    EPW24074   4.562   2.166   0.638
 5839WAT      O24075   5.688   1.395   0.227
 5839WAT     H124076   5.712   1.318   0.193
 5839WAT     H224077   5.651   1.436   0.159
 5839WAT    EPW24078   5.686   1.389   0.212
 5840WAT      O24079   4.005   2.321   0.960
 5840WAT     H124080   3.950   2.381   0.992
 5840WAT     H224081   4.083   2.360   0.965
 5840WAT    EPW24082   4.008   2.336   0.965
 5841WAT      O24083   4.725   1.687   1.978
 5841WAT     H124084   4.666   1.734   2.022
 5841WAT     H224085   4.716   1.715   1.896
 5841WAT    EPW24086   4.715   1.698   1.972
 5842WAT      O24087   5.800   1.788   1.472
 5842WAT     H124088   5.829   1.715   1.432
 5842WAT     H224089   5.715   1.791   1.449
 5842WAT    EPW24090   5.791   1.777   1.462
 5843WAT      O24091   4.025   1.984   0.584
 5843WAT     H124092   4.002   1.900   0.587
 5843WAT     H224093   4.095   1.984   0.532
 5843WAT    EPW24094   4.032   1.971   0.577
 5844WAT      O24095   5.545   1.243   0.436
 5844WAT     H124096   5.622   1.207   0.455
 5844WAT     H224097   5.566   1.310   0.384
 5844WAT    EPW24098   5.559   1.248   0.431
 5845WAT      O24099   4.951   2.576   0.926
 5845WAT     H124100   4.918   2.655   0.908
 5845WAT     H224101   4.979   2.547   0.849
 5845WAT    EPW24102   4.950   2.583   0.912
 5846WAT      O24103   3.939   2.459   0.501
 5846WAT     H124104   3.992   2.515   0.543
 5846WAT     H224105   3.932   2.392   0.557
 5846WAT    EPW24106   3.946   2.458   0.516
 5847WAT      O24107   4.353   2.290   1.199
 5847WAT     H124108   4.404   2.332   1.256
 5847WAT     H224109   4.410   2.242   1.153
 5847WAT    EPW24110   4.369   2.289   1.200
 5848WAT      O24111   5.260   1.518   0.910
 5848WAT     H124112   5.293   1.481   0.982
 5848WAT     H224113   5.198   1.462   0.885
 5848WAT    EPW24114   5.256   1.504   0.917
 5849WAT      O24115   3.958   2.259   0.298
 5849WAT     H124116   4.039   2.229   0.288
 5849WAT     H224117   3.968   2.328   0.351
 5849WAT    EPW24118   3.971   2.265   0.305
 5850WAT      O24119   4.020   2.052   1.035
 5850WAT     H124120   4.073   2.026   0.970
 5850WAT     H224121   4.014   2.138   1.024
 5850WAT    EPW24122   4.027   2.061   1.024
 5851WAT      O24123   4.689   1.475   0.421
 5851WAT     H124124   4.639   1.412   0.388
 5851WAT     H224125   4.644   1.547   0.406
 5851WAT    EPW24126   4.675   1.476   0.414
 5852WAT      O24127   5.575   2.653   1.591
 5852WAT     H124128   5.523   2.722   1.603
 5852WAT     H224129   5.578   2.644   1.504
 5852WAT    EPW24130   5.568   2.662   1.580
 5853WAT      O24131   4.477   2.510   0.829
 5853WAT     H124132   4.501   2.592   0.846
 5853WAT     H224133   4.540   2.462   0.865
 5853WAT    EPW24134   4.490   2.515   0.837
 5854WAT      O24135   4.292   1.816   1.852
 5854WAT     H124136   4.248   1.758   1.900
 5854WAT     H224137   4.287   1.783   1.771
 5854WAT    EPW24138   4.285   1.803   1.847
 5855WAT      O24139   4.251   1.676   0.382
 5855WAT     H124140   4.261   1.613   0.441
 5855WAT     H224141   4.171   1.663   0.352
 5855WAT    EPW24142   4.241   1.665   0.386
 5856WAT      O24143   4.367   1.902   1.048
 5856WAT     H124144   4.360   1.878   0.964
 5856WAT     H224145   4.385   1.827   1.089
 5856WAT    EPW24146   4.369   1.887   1.042
 5857WAT      O24147   4.332   1.870   1.379
 5857WAT     H124148   4.359   1.822   1.312
 5857WAT     H224149   4.286   1.934   1.341
 5857WAT    EPW24150   4.329   1.873   1.363
 5858WAT      O24151   5.409   1.682   1.187
 5858WAT     H124152   5.337   1.703   1.232
 5858WAT     H224153   5.406   1.737   1.119
 5858WAT    EPW24154   5.398   1.693   1.184
 5859WAT      O24155   4.828   2.790   1.228
 5859WAT     H124156   4.773   2.729   1.200
 5859WAT     H224157   4.791   2.865   1.201
 5859WAT    EPW24158   4.814   2.792   1.220
 5860WAT      O24159   4.960   1.255   1.555
 5860WAT     H124160   4.979   1.178   1.520
 5860WAT     H224161   4.994   1.251   1.635
 5860WAT    EPW24162   4.968   1.243   1.561
 5861WAT      O24163   5.208   1.458   0.511
 5861WAT     H124164   5.266   1.522   0.526
 5861WAT     H224165   5.132   1.499   0.511
 5861WAT    EPW24166   5.206   1.473   0.513
 5862WAT      O24167   4.161   2.048   1.925
 5862WAT     H124168   4.150   2.097   1.854
 5862WAT     H224169   4.209   1.980   1.896
 5862WAT    EPW24170   4.166   2.045   1.910
 5863WAT      O24171   5.315   2.229   1.806
 5863WAT     H124172   5.351   2.307   1.789
 5863WAT     H224173   5.343   2.179   1.740
 5863WAT    EPW24174   5.325   2.233   1.794
 5864WAT      O24175   4.722   2.547   1.843
 5864WAT     H124176   4.755   2.534   1.923
 5864WAT     H224177   4.698   2.467   1.818
 5864WAT    EPW24178   4.723   2.533   1.851
 5865WAT      O24179   4.797   1.574   1.155
 5865WAT     H124180   4.856   1.638   1.160
 5865WAT     H224181   4.840   1.503   1.184
 5865WAT    EPW24182   4.812   1.573   1.160
 5866WAT      O24183   5.059   1.941   0.392
 5866WAT     H124184   5.077   2.020   0.360
 5866WAT     H224185   4.992   1.956   0.447
 5866WAT    EPW24186   5.052   1.955   0.396
 5867WAT      O24187   5.587   2.215   0.789
 5867WAT     H124188   5.593   2.166   0.861
 5867WAT     H224189   5.566   2.159   0.727
 5867WAT    EPW24190   5.585   2.200   0.791
 5868WAT      O24191   5.152   2.618   1.121
 5868WAT     H124192   5.079   2.598   1.078
 5868WAT     H224193   5.201   2.659   1.061
 5868WAT    EPW24194   5.149   2.621   1.106
 5869WAT      O24195   5.166   2.299   1.112
 5869WAT     H124196   5.091   2.331   1.142
 5869WAT     H224197   5.197   2.252   1.179
 5869WAT    EPW24198   5.160   2.297   1.126
 5870WAT      O24199   4.542   2.793   0.450
 5870WAT     H124200   4.556   2.724   0.502
 5870WAT     H224201   4.612   2.793   0.398
 5870WAT    EPW24202   4.555   2.783   0.450
 5871WAT      O24203   4.528   1.263   0.337
 5871WAT     H124204   4.513   1.183   0.369
 5871WAT     H224205   4.453   1.284   0.299
 5871WAT    EPW24206   4.515   1.254   0.336
 5872WAT      O24207   4.791   2.789   0.330
 5872WAT     H124208   4.833   2.768   0.404
 5872WAT     H224209   4.810   2.873   0.318
 5872WAT    EPW24210   4.800   2.798   0.339
 5873WAT      O24211   5.394   2.091   1.578
 5873WAT     H124212   5.360   2.136   1.512
 5873WAT     H224213   5.479   2.112   1.575
 5873WAT    EPW24214   5.402   2.101   1.568
 5874WAT      O24215   5.093   2.647   1.989
 5874WAT     H124216   5.127   2.675   2.065
 5874WAT     H224217   5.111   2.713   1.934
 5874WAT    EPW24218   5.101   2.661   1.992
 5875WAT      O24219   5.539   1.194   1.842
 5875WAT     H124220   5.503   1.149   1.777
 5875WAT     H224221   5.537   1.138   1.909
 5875WAT    EPW24222   5.534   1.179   1.842
 5876WAT      O24223   4.267   1.951   0.441
 5876WAT     H124224   4.262   1.866   0.426
 5876WAT     H224225   4.344   1.961   0.481
 5876WAT    EPW24226   4.278   1.940   0.445
 5877WAT      O24227   5.044   2.109   1.458
 5877WAT     H124228   4.992   2.148   1.516
 5877WAT     H224229   5.070   2.037   1.499
 5877WAT    EPW24230   5.040   2.104   1.472
 5878WAT      O24231   3.902   1.132   0.504
 5878WAT     H124232   3.906   1.072   0.441
 5878WAT     H224233   3.878   1.086   0.575
 5878WAT    EPW24234   3.899   1.116   0.505
 5879WAT      O24235   4.849   1.949   0.577
 5879WAT     H124236   4.866   2.011   0.635
 5879WAT     H224237   4.849   1.875   0.624
 5879WAT    EPW24238   4.851   1.947   0.593
 5880WAT      O24239   5.426   2.438   1.116
 5880WAT     H124240   5.454   2.437   1.034
 5880WAT     H224241   5.343   2.411   1.110
 5880WAT    EPW24242   5.418   2.434   1.103
 5881WAT      O24243   4.290   1.377   0.236
 5881WAT     H124244   4.235   1.349   0.174
 5881WAT     H224245   4.308   1.459   0.212
 5881WAT    EPW24246   4.284   1.385   0.223
 5882WAT      O24247   4.794   2.161   1.002
 5882WAT     H124248   4.712   2.139   1.019
 5882WAT     H224249   4.839   2.129   1.070
 5882WAT    EPW24250   4.789   2.153   1.014
 5883WAT      O24251   4.178   2.080   1.271
 5883WAT     H124252   4.230   2.149   1.255
 5883WAT     H224253   4.139   2.066   1.194
 5883WAT    EPW24254   4.180   2.088   1.257
 5884WAT      O24255   4.510   1.591   0.917
 5884WAT     H124256   4.587   1.553   0.904
 5884WAT     H224257   4.453   1.526   0.905
 5884WAT    EPW24258   4.513   1.576   0.913
 5885WAT      O24259   5.772   2.779   0.310
 5885WAT     H124260   5.846   2.735   0.295
 5885WAT     H224261   5.722   2.721   0.351
 5885WAT    EPW24262   5.776   2.764   0.314
 5886WAT      O24263   3.977   1.708   0.595
 5886WAT     H124264   4.014   1.672   0.666
 5886WAT     H224265   3.988   1.647   0.534
 5886WAT    EPW24266   3.984   1.693   0.597
 5887WAT      O24267   5.513   2.056   1.280
 5887WAT     H124268   5.515   1.984   1.330
 5887WAT     H224269   5.434   2.089   1.294
 5887WAT    EPW24270   5.502   2.050   1.290
 5888WAT      O24271   4.123   2.191   1.691
 5888WAT     H124272   4.089   2.141   1.628
 5888WAT     H224273   4.095   2.271   1.671
 5888WAT    EPW24274   4.114   2.195   1.679
 5889WAT      O24275   5.617   2.050   1.017
 5889WAT     H124276   5.590   2.057   1.100
 5889WAT     H224277   5.704   2.042   1.025
 5889WAT    EPW24278   5.626   2.050   1.031
 5890WAT      O24279   4.537   1.701   0.364
 5890WAT     H124280   4.554   1.780   0.396
 5890WAT     H224281   4.450   1.698   0.361
 5890WAT    EPW24282   4.527   1.712   0.368
 5891WAT      O24283   5.405   1.446   1.823
 5891WAT     H124284   5.328   1.447   1.865
 5891WAT     H224285   5.432   1.363   1.832
 5891WAT    EPW24286   5.397   1.434   1.831
 5892WAT      O24287   3.954   1.354   1.057
 5892WAT     H124288   3.935   1.384   0.977
 5892WAT     H224289   4.030   1.392   1.076
 5892WAT    EPW24290   3.962   1.364   1.048
 5893WAT      O24291   5.743   2.568   1.085
 5893WAT     H124292   5.787   2.610   1.021
 5893WAT     H224293   5.801   2.564   1.150
 5893WAT    EPW24294   5.758   2.574   1.085
 5894WAT      O24295   5.243   1.807   1.903
 5894WAT     H124296   5.279   1.811   1.982
 5894WAT     H224297   5.168   1.851   1.913
 5894WAT    EPW24298   5.237   1.814   1.916
 5895WAT      O24299   5.481   1.835   1.746
 5895WAT     H124300   5.504   1.916   1.770
 5895WAT     H224301   5.407   1.822   1.790
 5895WAT    EPW24302   5.473   1.845   1.756
 5896WAT      O24303   5.421   2.446   0.284
 5896WAT     H124304   5.464   2.371   0.291
 5896WAT     H224305   5.351   2.435   0.334
 5896WAT    EPW24306   5.417   2.433   0.292
 5897WAT      O24307   5.503   1.615   0.817
 5897WAT     H124308   5.433   1.570   0.845
 5897WAT     H224309   5.498   1.690   0.861
 5897WAT    EPW24310   5.492   1.619   0.827
 5898WAT      O24311   5.795   1.921   1.943
 5898WAT     H124312   5.798   1.864   1.878
 5898WAT     H224313   5.873   1.960   1.940
 5898WAT    EPW24314   5.807   1.919   1.933
 5899WAT      O24315   5.658   2.190   1.569
 5899WAT     H124316   5.727   2.146   1.538
 5899WAT     H224317   5.645   2.252   1.509
 5899WAT    EPW24318   5.666   2.192   1.555
 5900WAT      O24319   5.157   2.182   0.288
 5900WAT     H124320   5.189   2.240   0.345
 5900WAT     H224321   5.216   2.183   0.223
 5900WAT    EPW24322   5.171   2.191   0.287
 5901WAT      O24323   4.400   2.220   1.651
 5901WAT     H124324   4.316   2.208   1.672
 5901WAT     H224325   4.401   2.298   1.613
 5901WAT    EPW24326   4.388   2.230   1.649
 5902WAT      O24327   5.358   1.295   1.483
 5902WAT     H124328   5.415   1.359   1.497
 5902WAT     H224329   5.282   1.337   1.473
 5902WAT    EPW24330   5.355   1.311   1.483
 5903WAT      O24331   4.892   2.029   1.236
 5903WAT     H124332   4.947   2.061   1.296
 5903WAT     H224333   4.813   2.039   1.272
 5903WAT    EPW24334   4.888   2.035   1.250
 5904WAT      O24335   4.519   1.570   1.619
 5904WAT     H124336   4.530   1.490   1.654
 5904WAT     H224337   4.551   1.561   1.538
 5904WAT    EPW24338   4.525   1.557   1.612
 5905WAT      O24339   4.832   2.815   0.848
 5905WAT     H124340   4.840   2.900   0.868
 5905WAT     H224341   4.746   2.801   0.852
 5905WAT    EPW24342   4.821   2.826   0.852
 5906WAT      O24343   5.432   1.091   1.303
 5906WAT     H124344   5.403   1.163   1.343
 5906WAT     H224345   5.516   1.088   1.325
 5906WAT    EPW24346   5.440   1.101   1.312
 5907WAT      O24347   4.691   1.179   1.571
 5907WAT     H124348   4.771   1.212   1.558
 5907WAT     H224349   4.707   1.097   1.597
 5907WAT    EPW24350   4.705   1.172   1.572
 5908WAT      O24351   4.619   2.629   1.129
 5908WAT     H124352   4.596   2.590   1.204
 5908WAT     H224353   4.649   2.564   1.080
 5908WAT    EPW24354   4.620   2.614   1.133
 5909WAT      O24355   5.044   2.217   1.865
 5909WAT     H124356   5.125   2.231   1.838
 5909WAT     H224357   4.995   2.244   1.798
 5909WAT    EPW24358   5.049   2.223   1.851
 5910WAT      O24359   5.416   2.486   1.753
 5910WAT     H124360   5.445   2.521   1.827
 5910WAT     H224361   5.464   2.525   1.691
 5910WAT    EPW24362   5.427   2.497   1.755
 5911WAT      O24363   5.666   1.799   0.222
 5911WAT     H124364   5.689   1.866   0.171
 5911WAT     H224365   5.579   1.802   0.222
 5911WAT    EPW24366   5.657   1.809   0.214
 5912WAT      O24367   4.413   1.660   1.170
 5912WAT     H124368   4.448   1.634   1.095
 5912WAT     H224369   4.468   1.629   1.230
 5912WAT    EPW24370   4.426   1.651   1.168
 5913WAT      O24371   5.143   1.646   1.688
 5913WAT     H124372   5.065   1.683   1.700
 5913WAT     H224373   5.185   1.662   1.763
 5913WAT    EPW24374   5.137   1.654   1.701
 5914WAT      O24375   5.174   1.706   1.332
 5914WAT     H124376   5.181   1.762   1.398
 5914WAT     H224377   5.159   1.630   1.371
 5914WAT    EPW24378   5.173   1.703   1.347
 5915WAT      O24379   4.880   2.742   1.729
 5915WAT     H124380   4.836   2.753   1.654
 5915WAT     H224381   4.837   2.677   1.768
 5915WAT    EPW24382   4.867   2.734   1.724
 5916WAT      O24383   5.391   1.665   0.569
 5916WAT     H124384   5.420   1.645   0.649
 5916WAT     H224385   5.462   1.695   0.529
 5916WAT    EPW24386   5.406   1.667   0.575
 5917WAT      O24387   4.726   1.128   1.148
 5917WAT     H124388   4.641   1.120   1.166
 5917WAT     H224389   4.727   1.140   1.061
 5917WAT    EPW24390   4.714   1.129   1.138
 5918WAT      O24391   5.525   1.244   0.721
 5918WAT     H124392   5.452   1.204   0.745
 5918WAT     H224393   5.514   1.258   0.635
 5918WAT    EPW24394   5.513   1.240   0.712
 5919WAT      O24395   5.533   2.056   0.568
 5919WAT     H124396   5.577   1.983   0.552
 5919WAT     H224397   5.449   2.031   0.563
 5919WAT    EPW24398   5.527   2.042   0.565
 5920WAT      O24399   4.885   2.266   1.636
 5920WAT     H124400   4.806   2.264   1.673
 5920WAT     H224401   4.886   2.343   1.594
 5920WAT    EPW24402   4.873   2.277   1.635
 5921WAT      O24403   3.890   1.213   1.742
 5921WAT     H124404   3.896   1.298   1.720
 5921WAT     H224405   3.812   1.208   1.781
 5921WAT    EPW24406   3.879   1.225   1.745
 5922WAT      O24407   4.426   2.968   1.177
 5922WAT     H124408   4.447   3.001   1.255
 5922WAT     H224409   4.411   2.884   1.194
 5922WAT    EPW24410   4.427   2.960   1.191
 5923WAT      O24411   4.263   1.429   0.512
 5923WAT     H124412   4.263   1.400   0.430
 5923WAT     H224413   4.181   1.417   0.538
 5923WAT    EPW24414   4.251   1.423   0.504
 5924WAT      O24415   5.172   2.235   0.839
 5924WAT     H124416   5.164   2.254   0.924
 5924WAT     H224417   5.199   2.152   0.839
 5924WAT    EPW24418   5.175   2.226   0.852
 5925WAT      O24419   4.915   2.159   0.751
 5925WAT     H124420   4.873   2.155   0.827
 5925WAT     H224421   4.994   2.189   0.772
 5925WAT    EPW24422   4.921   2.163   0.765
 5926WAT      O24423   4.998   2.515   1.511
 5926WAT     H124424   5.034   2.511   1.590
 5926WAT     H224425   4.978   2.600   1.502
 5926WAT    EPW24426   5.000   2.527   1.521
 5927WAT      O24427   5.749   1.740   1.738
 5927WAT     H124428   5.663   1.754   1.740
 5927WAT     H224429   5.771   1.760   1.656
 5927WAT    EPW24430   5.739   1.745   1.726
 5928WAT      O24431   5.196   1.886   1.543
 5928WAT     H124432   5.186   1.824   1.603
 5928WAT     H224433   5.267   1.928   1.568
 5928WAT    EPW24434   5.205   1.883   1.556
 5929WAT      O24435   4.106   2.870   1.768
 5929WAT     H124436   4.042   2.813   1.753
 5929WAT     H224437   4.075   2.920   1.833
 5929WAT    EPW24438   4.092   2.869   1.776
 5930WAT      O24439   4.980   1.966   1.960
 5930WAT     H124440   5.003   2.044   1.927
 5930WAT     H224441   4.901   1.980   1.993
 5930WAT    EPW24442   4.972   1.980   1.960
 5931WAT      O24443   5.320   2.802   0.996
 5931WAT     H124444   5.280   2.867   1.039
 5931WAT     H224445   5.388   2.783   1.047
 5931WAT    EPW24446   5.324   2.809   1.010
 5932WAT      O24447   4.937   2.388   1.260
 5932WAT     H124448   4.850   2.385   1.252
 5932WAT     H224449   4.949   2.423   1.339
 5932WAT    EPW24450   4.926   2.393   1.270
 5933WAT      O24451   5.526   2.594   1.982
 5933WAT     H124452   5.608   2.564   1.983
 5933WAT     H224453   5.487   2.550   2.046
 5933WAT    EPW24454   5.532   2.583   1.992
 5934WAT      O24455   4.276   1.701   1.593
 5934WAT     H124456   4.293   1.760   1.531
 5934WAT     H224457   4.352   1.657   1.600
 5934WAT    EPW24458   4.290   1.703   1.585
 5935WAT      O24459   4.089   1.545   1.460
 5935WAT     H124460   4.109   1.548   1.375
 5935WAT     H224461   4.152   1.593   1.497
 5935WAT    EPW24462   4.101   1.553   1.453
 5936WAT      O24463   5.623   1.803   0.498
 5936WAT     H124464   5.645   1.805   0.413
 5936WAT     H224465   5.693   1.767   0.536
 5936WAT    EPW24466   5.637   1.798   0.491
 5937WAT      O24467   4.280   1.229   1.748
 5937WAT     H124468   4.237   1.152   1.746
 5937WAT     H224469   4.268   1.260   1.668
 5937WAT    EPW24470   4.272   1.222   1.736
 5938WAT      O24471   4.999   2.500   0.663
 5938WAT     H124472   4.984   2.579   0.629
 5938WAT     H224473   4.927   2.455   0.644
 5938WAT    EPW24474   4.986   2.505   0.655
 5939WAT      O24475   5.521   1.811   1.464
 5939WAT     H124476   5.501   1.726   1.454
 5939WAT     H224477   5.500   1.827   1.547
 5939WAT    EPW24478   5.515   1.801   1.475
 5940WAT      O24479   4.004   2.044   1.486
 5940WAT     H124480   4.056   2.060   1.417
 5940WAT     H224481   3.985   1.959   1.478
 5940WAT    EPW24482   4.009   2.034   1.474
 5941WAT      O24483   5.052   1.236   1.817
 5941WAT     H124484   5.085   1.304   1.860
 5941WAT     H224485   4.971   1.228   1.849
 5941WAT    EPW24486   5.045   1.245   1.828
 5942WAT      O24487   5.042   1.352   0.871
 5942WAT     H124488   4.962   1.387   0.869
 5942WAT     H224489   5.039   1.291   0.808
 5942WAT    EPW24490   5.029   1.348   0.861
 5943WAT      O24491   4.519   2.432   0.327
 5943WAT     H124492   4.546   2.470   0.400
 5943WAT     H224493   4.432   2.439   0.330
 5943WAT    EPW24494   4.510   2.439   0.338
 5944WAT      O24495   5.366   1.410   1.145
 5944WAT     H124496   5.444   1.375   1.161
 5944WAT     H224497   5.375   1.493   1.171
 5944WAT    EPW24498   5.379   1.417   1.151
 5945WAT      O24499   4.513   1.979   1.565
 5945WAT     H124500   4.478   2.053   1.594
 5945WAT     H224501   4.454   1.949   1.509
 5945WAT    EPW24502   4.499   1.986   1.561
 5946WAT      O24503   5.442   1.845   0.960
 5946WAT     H124504   5.501   1.907   0.976
 5946WAT     H224505   5.379   1.887   0.917
 5946WAT    EPW24506   5.441   1.860   0.956
 5947WAT      O24507   5.449   2.654   0.647
 5947WAT     H124508   5.429   2.578   0.686
 5947WAT     H224509   5.492   2.629   0.576
 5947WAT    EPW24510   5.452   2.639   0.642
 5948WAT      O24511   4.243   2.417   0.353
 5948WAT     H124512   4.241   2.401   0.439
 5948WAT     H224513   4.241   2.338   0.317
 5948WAT    EPW24514   4.242   2.403   0.361
 5949WAT      O24515   4.528   2.158   0.279
 5949WAT     H124516   4.443   2.156   0.258
 5949WAT     H224517   4.544   2.242   0.292
 5949WAT    EPW24518   4.518   2.170   0.278
 5950WAT      O24519   4.510   1.308   1.392
 5950WAT     H124520   4.428   1.296   1.418
 5950WAT     H224521   4.555   1.250   1.439
 5950WAT    EPW24522   4.505   1.298   1.403
 5951WAT      O24523   5.684   1.161   1.421
 5951WAT     H124524   5.666   1.186   1.503
 5951WAT     H224525   5.768   1.137   1.426
 5951WAT    EPW24526   5.694   1.161   1.434
 5952WAT      O24527   4.903   1.331   1.226
 5952WAT     H124528   4.847   1.266   1.212
 5952WAT     H224529   4.980   1.297   1.203
 5952WAT    EPW24530   4.906   1.317   1.221
 5953WAT      O24531   5.233   2.493   1.367
 5953WAT     H124532   5.161   2.496   1.416
 5953WAT     H224533   5.204   2.511   1.287
 5953WAT    EPW24534   5.218   2.496   1.363
 5954WAT      O24535   5.149   2.827   1.774
 5954WAT     H124536   5.075   2.792   1.743
 5954WAT     H224537   5.127   2.910   1.790
 5954WAT    EPW24538   5.135   2.834   1.772
 5955WAT      O24539   4.650   1.790   1.723
 5955WAT     H124540   4.611   1.720   1.689
 5955WAT     H224541   4.612   1.857   1.682
 5955WAT    EPW24542   4.639   1.789   1.712
 5956WAT      O24543   5.613   2.324   1.314
 5956WAT     H124544   5.598   2.240   1.298
 5956WAT     H224545   5.560   2.365   1.258
 5956WAT    EPW24546   5.603   2.318   1.303
 5957WAT      O24547   4.558   2.873   1.786
 5957WAT     H124548   4.542   2.823   1.855
 5957WAT     H224549   4.594   2.819   1.729
 5957WAT    EPW24550   4.561   2.858   1.788
 5958WAT      O24551   5.514   2.708   1.178
 5958WAT     H124552   5.591   2.682   1.147
 5958WAT     H224553   5.468   2.634   1.181
 5958WAT    EPW24554   5.519   2.693   1.174
 5959WAT      O24555   4.242   1.308   1.487
 5959WAT     H124556   4.191   1.242   1.461
 5959WAT     H224557   4.194   1.379   1.473
 5959WAT    EPW24558   4.228   1.308   1.481
 5960WAT      O24559   5.141   1.242   1.110
 5960WAT     H124560   5.207   1.296   1.130
 5960WAT     H224561   5.111   1.275   1.035
 5960WAT    EPW24562   5.147   1.255   1.102
 5961WAT      O24563   4.266   2.647   1.842
 5961WAT     H124564   4.331   2.673   1.894
 5961WAT     H224565   4.228   2.722   1.817
 5961WAT    EPW24566   4.270   2.662   1.846
 5962WAT      O24567   5.094   1.744   0.890
 5962WAT     H124568   5.149   1.677   0.901
 5962WAT     H224569   5.060   1.757   0.970
 5962WAT    EPW24570   5.097   1.736   0.904
 5963WAT      O24571   4.115   1.626   0.825
 5963WAT     H124572   4.072   1.651   0.897
 5963WAT     H224573   4.155   1.553   0.849
 5963WAT    EPW24574   4.115   1.619   0.839
 5964WAT      O24575   4.056   2.449   1.598
 5964WAT     H124576   4.024   2.514   1.647
 5964WAT     H224577   4.141   2.468   1.593
 5964WAT    EPW24578   4.064   2.461   1.604
 5965WAT      O24579   5.289   1.919   0.541
 5965WAT     H124580   5.308   1.835   0.551
 5965WAT     H224581   5.212   1.918   0.500
 5965WAT    EPW24582   5.280   1.907   0.536
 5966WAT      O24583   4.269   2.781   0.498
 5966WAT     H124584   4.228   2.757   0.425
 5966WAT     H224585   4.353   2.783   0.475
 5966WAT    EPW24586   4.275   2.778   0.484
 5967WAT      O24587   4.587   1.960   0.464
 5967WAT     H124588   4.586   2.019   0.400
 5967WAT     H224589   4.671   1.958   0.488
 5967WAT    EPW24590   4.599   1.968   0.458
 5968WAT      O24591   5.538   2.787   0.149
 5968WAT     H124592   5.617   2.788   0.187
 5968WAT     H224593   5.519   2.702   0.143
 5968WAT    EPW24594   5.547   2.775   0.153
 5969WAT      O24595   5.594   2.075   1.827
 5969WAT     H124596   5.665   2.043   1.867
 5969WAT     H224597   5.627   2.124   1.763
 5969WAT    EPW24598   5.609   2.078   1.823
 5970WAT      O24599   5.197   2.416   0.453
 5970WAT     H124600   5.196   2.422   0.540
 5970WAT     H224601   5.112   2.418   0.432
 5970WAT    EPW24602   5.184   2.417   0.463
 5971WAT      O24603   5.633   1.529   1.953
 5971WAT     H124604   5.623   1.609   1.986
 5971WAT     H224605   5.558   1.514   1.912
 5971WAT    EPW24606   5.621   1.539   1.952
 5972WAT      O24607   5.681   1.635   1.229
 5972WAT     H124608   5.598   1.659   1.219
 5972WAT     H224609   5.677   1.548   1.233
 5972WAT    EPW24610   5.668   1.626   1.228
 5973WAT      O24611   4.550   1.317   1.760
 5973WAT     H124612   4.587   1.275   1.693
 5973WAT     H224613   4.469   1.284   1.763
 5973WAT    EPW24614   4.544   1.306   1.750
 5974WAT      O24615   5.351   2.127   2.064
 5974WAT     H124616   5.425   2.159   2.097
 5974WAT     H224617   5.353   2.153   1.981
 5974WAT    EPW24618   5.362   2.136   2.057
 5975WAT      O24619   4.275   2.712   1.132
 5975WAT     H124620   4.274   2.635   1.091
 5975WAT     H224621   4.238   2.766   1.074
 5975WAT    EPW24622   4.269   2.709   1.117
 5976WAT      O24623   4.936   2.353   0.357
 5976WAT     H124624   4.978   2.296   0.306
 5976WAT     H224625   4.931   2.425   0.308
 5976WAT    EPW24626   4.941   2.355   0.342
 5977WAT      O24627   4.075   2.968   1.509
 5977WAT     H124628   4.098   2.945   1.590
 5977WAT     H224629   4.090   2.897   1.461
 5977WAT    EPW24630   4.081   2.954   1.514
 5978WAT      O24631   3.989   0.380   6.394
 5978WAT     H124632   3.983   0.424   6.469
 5978WAT     H224633   4.020   0.302   6.419
 5978WAT    EPW24634   3.993   0.375   6.409
 5979WAT      O24635   5.607   0.768   6.150
 5979WAT     H124636   5.667   0.711   6.178
 5979WAT     H224637   5.559   0.722   6.094
 5979WAT    EPW24638   5.609   0.753   6.146
 5980WAT      O24639   4.249   0.346   5.867
 5980WAT     H124640   4.218   0.339   5.785
 5980WAT     H224641   4.260   0.262   5.891
 5980WAT    EPW24642   4.246   0.332   5.858
 5981WAT      O24643   4.230   0.482   6.298
 5981WAT     H124644   4.293   0.432   6.332
 5981WAT     H224645   4.156   0.443   6.324
 5981WAT    EPW24646   4.228   0.469   6.307
 5982WAT      O24647   4.087   0.758   5.910
 5982WAT     H124648   4.135   0.778   5.840
 5982WAT     H224649   4.137   0.701   5.954
 5982WAT    EPW24650   4.102   0.753   5.906
 5983WAT      O24651   3.992   0.683   7.056
 5983WAT     H124652   4.017   0.662   7.137
 5983WAT     H224653   3.929   0.626   7.039
 5983WAT    EPW24654   3.986   0.672   7.066
 5984WAT      O24655   4.644   0.454   7.449
 5984WAT     H124656   4.641   0.406   7.522
 5984WAT     H224657   4.571   0.430   7.407
 5984WAT    EPW24658   4.632   0.443   7.454
 5985WAT      O24659   4.604   0.713   7.226
 5985WAT     H124660   4.582   0.792   7.197
 5985WAT     H224661   4.690   0.720   7.241
 5985WAT    EPW24662   4.614   0.725   7.224
 5986WAT      O24663   4.760   0.564   6.643
 5986WAT     H124664   4.780   0.486   6.677
 5986WAT     H224665   4.837   0.605   6.638
 5986WAT    EPW24666   4.774   0.558   6.647
 5987WAT      O24667   4.847   0.524   6.283
 5987WAT     H124668   4.852   0.452   6.331
 5987WAT     H224669   4.862   0.496   6.202
 5987WAT    EPW24670   4.850   0.509   6.278
 5988WAT      O24671   3.976   0.859   6.558
 5988WAT     H124672   3.914   0.906   6.519
 5988WAT     H224673   4.015   0.818   6.492
 5988WAT    EPW24674   3.973   0.860   6.543
 5989WAT      O24675   4.595   0.635   6.252
 5989WAT     H124676   4.559   0.612   6.328
 5989WAT     H224677   4.676   0.603   6.257
 5989WAT    EPW24678   4.602   0.627   6.264
 5990WAT      O24679   5.173   0.889   6.062
 5990WAT     H124680   5.243   0.942   6.064
 5990WAT     H224681   5.207   0.810   6.079
 5990WAT    EPW24682   5.189   0.885   6.065
 5991WAT      O24683   4.979   0.916   6.253
 5991WAT     H124684   4.998   0.990   6.295
 5991WAT     H224685   5.039   0.912   6.190
 5991WAT    EPW24686   4.990   0.926   6.250
 5992WAT      O24687   4.118   0.739   6.340
 5992WAT     H124688   4.169   0.668   6.346
 5992WAT     H224689   4.164   0.794   6.291
 5992WAT    EPW24690   4.132   0.736   6.334
 5993WAT      O24691   5.225   0.915   7.054
 5993WAT     H124692   5.294   0.967   7.049
 5993WAT     H224693   5.214   0.887   6.973
 5993WAT    EPW24694   5.233   0.919   7.042
 5994WAT      O24695   4.281   0.592   6.671
 5994WAT     H124696   4.350   0.586   6.619
 5994WAT     H224697   4.300   0.539   6.738
 5994WAT    EPW24698   4.294   0.583   6.673
 5995WAT      O24699   4.540   0.861   6.561
 5995WAT     H124700   4.619   0.888   6.536
 5995WAT     H224701   4.486   0.919   6.525
 5995WAT    EPW24702   4.544   0.874   6.552
 5996WAT      O24703   5.379   1.078   6.041
 5996WAT     H124704   5.428   1.054   5.972
 5996WAT     H224705   5.435   1.124   6.090
 5996WAT    EPW24706   5.395   1.081   6.038
 5997WAT      O24707   4.463   0.943   7.157
 5997WAT     H124708   4.469   0.964   7.241
 5997WAT     H224709   4.381   0.915   7.148
 5997WAT    EPW24710   4.452   0.942   7.168
 5998WAT      O24711   5.092   0.737   7.446
 5998WAT     H124712   5.074   0.665   7.491
 5998WAT     H224713   5.176   0.727   7.425
 5998WAT    EPW24714   5.102   0.725   7.450
 5999WAT      O24715   4.856   0.695   5.863
 5999WAT     H124716   4.827   0.757   5.918
 5999WAT     H224717   4.934   0.725   5.839
 5999WAT    EPW24718   4.863   0.709   5.868
 6000WAT      O24719   4.208   0.861   7.058
 6000WAT     H124720   4.143   0.803   7.059
 6000WAT     H224721   4.241   0.853   6.978
 6000WAT    EPW24722   4.203   0.851   7.047
 6001WAT      O24723   4.976   0.960   7.162
 6001WAT     H124724   5.056   0.950   7.129
 6001WAT     H224725   4.924   0.960   7.091
 6001WAT    EPW24726   4.980   0.959   7.147
 6002WAT      O24727   5.668   0.998   6.429
 6002WAT     H124728   5.631   1.075   6.448
 6002WAT     H224729   5.600   0.946   6.412
 6002WAT    EPW24730   5.652   1.002   6.430
 6003WAT      O24731   5.345   0.615   6.462
 6003WAT     H124732   5.379   0.534   6.462
 6003WAT     H224733   5.260   0.602   6.448
 6003WAT    EPW24734   5.337   0.601   6.460
 6004WAT      O24735   4.358   0.654   7.354
 6004WAT     H124736   4.433   0.679   7.318
 6004WAT     H224737   4.346   0.711   7.419
 6004WAT    EPW24738   4.367   0.666   7.358
 6005WAT      O24739   4.527   0.223   6.831
 6005WAT     H124740   4.550   0.232   6.915
 6005WAT     H224741   4.499   0.141   6.826
 6005WAT    EPW24742   4.526   0.212   6.843
 6006WAT      O24743   4.592   0.307   7.092
 6006WAT     H124744   4.589   0.390   7.064
 6006WAT     H224745   4.537   0.307   7.159
 6006WAT    EPW24746   4.584   0.320   7.097
 6007WAT      O24747   5.261   0.374   7.030
 6007WAT     H124748   5.202   0.326   7.073
 6007WAT     H224749   5.235   0.456   7.045
 6007WAT    EPW24750   5.248   0.379   7.038
 6008WAT      O24751   5.572   0.356   5.977
 6008WAT     H124752   5.568   0.317   6.055
 6008WAT     H224753   5.656   0.376   5.968
 6008WAT    EPW24754   5.584   0.353   5.987
 6009WAT      O24755   4.177   0.167   6.487
 6009WAT     H124756   4.257   0.197   6.471
 6009WAT     H224757   4.180   0.084   6.460
 6009WAT    EPW24758   4.189   0.159   6.480
 6010WAT      O24759   4.181   1.021   6.650
 6010WAT     H124760   4.108   0.982   6.621
 6010WAT     H224761   4.229   1.028   6.577
 6010WAT    EPW24762   4.177   1.016   6.635
 6011WAT      O24763   5.783   0.844   7.392
 6011WAT     H124764   5.724   0.827   7.330
 6011WAT     H224765   5.739   0.895   7.448
 6011WAT    EPW24766   5.767   0.849   7.391
 6012WAT      O24767   4.420   0.326   6.425
 6012WAT     H124768   4.456   0.394   6.465
 6012WAT     H224769   4.485   0.290   6.381
 6012WAT    EPW24770   4.435   0.330   6.424
 6013WAT      O24771   4.015   0.518   6.637
 6013WAT     H124772   3.965   0.576   6.680
 6013WAT     H224773   4.095   0.551   6.643
 6013WAT    EPW24774   4.019   0.532   6.644
 6014WAT      O24775   4.978   0.739   6.610
 6014WAT     H124776   4.927   0.805   6.586
 6014WAT     H224777   5.015   0.713   6.535
 6014WAT    EPW24778   4.976   0.745   6.595
 6015WAT      O24779   3.936   0.579   6.201
 6015WAT     H124780   3.992   0.635   6.238
 6015WAT     H224781   3.934   0.513   6.259
 6015WAT    EPW24782   3.944   0.577   6.215
 6016WAT      O24783   4.343   0.429   6.882
 6016WAT     H124784   4.398   0.479   6.928
 6016WAT     H224785   4.393   0.362   6.856
 6016WAT    EPW24786   4.358   0.427   6.885
 6017WAT      O24787   3.960   0.431   5.964
 6017WAT     H124788   4.044   0.412   5.948
 6017WAT     H224789   3.964   0.485   6.033
 6017WAT    EPW24790   3.973   0.436   5.971
 6018WAT      O24791   4.022   0.251   6.707
 6018WAT     H124792   4.077   0.216   6.649
 6018WAT     H224793   4.025   0.337   6.689
 6018WAT    EPW24794   4.031   0.259   6.696
 6019WAT      O24795   5.542   0.820   7.236
 6019WAT     H124796   5.507   0.900   7.244
 6019WAT     H224797   5.542   0.806   7.150
 6019WAT    EPW24798   5.537   0.830   7.224
 6020WAT      O24799   4.515   0.590   6.517
 6020WAT     H124800   4.512   0.677   6.525
 6020WAT     H224801   4.592   0.569   6.553
 6020WAT    EPW24802   4.526   0.600   6.523
 6021WAT      O24803   4.771   0.949   6.978
 6021WAT     H124804   4.736   0.880   6.938
 6021WAT     H224805   4.764   1.013   6.919
 6021WAT    EPW24806   4.765   0.948   6.963
 6022WAT      O24807   5.286   0.405   7.433
 6022WAT     H124808   5.317   0.485   7.419
 6022WAT     H224809   5.329   0.356   7.376
 6022WAT    EPW24810   5.297   0.410   7.423
 6023WAT      O24811   4.706   0.737   7.519
 6023WAT     H124812   4.729   0.721   7.602
 6023WAT     H224813   4.686   0.657   7.489
 6023WAT    EPW24814   4.707   0.723   7.527
 6024WAT      O24815   5.446   0.350   6.458
 6024WAT     H124816   5.513   0.327   6.510
 6024WAT     H224817   5.471   0.320   6.380
 6024WAT    EPW24818   5.460   0.342   6.455
 6025WAT      O24819   5.179   0.783   6.805
 6025WAT     H124820   5.115   0.767   6.748
 6025WAT     H224821   5.225   0.846   6.767
 6025WAT    EPW24822   5.176   0.790   6.791
 6026WAT      O24823   5.146   0.413   6.772
 6026WAT     H124824   5.076   0.457   6.799
 6026WAT     H224825   5.180   0.381   6.845
 6026WAT    EPW24826   5.141   0.415   6.786
 6027WAT      O24827   4.557   0.904   6.196
 6027WAT     H124828   4.568   0.825   6.231
 6027WAT     H224829   4.625   0.912   6.142
 6027WAT    EPW24830   4.569   0.893   6.193
 6028WAT      O24831   4.787   0.897   6.044
 6028WAT     H124832   4.846   0.906   6.107
 6028WAT     H224833   4.788   0.974   6.004
 6028WAT    EPW24834   4.796   0.910   6.047
 6029WAT      O24835   5.424   0.264   7.241
 6029WAT     H124836   5.400   0.298   7.164
 6029WAT     H224837   5.511   0.269   7.239
 6029WAT    EPW24838   5.433   0.270   7.229
 6030WAT      O24839   5.060   0.251   7.183
 6030WAT     H124840   5.011   0.308   7.228
 6030WAT     H224841   5.101   0.205   7.245
 6030WAT    EPW24842   5.059   0.253   7.199
 6031WAT      O24843   5.460   0.498   6.866
 6031WAT     H124844   5.416   0.517   6.793
 6031WAT     H224845   5.403   0.451   6.913
 6031WAT    EPW24846   5.445   0.494   6.862
 6032WAT      O24847   4.779   0.290   6.712
 6032WAT     H124848   4.697   0.268   6.732
 6032WAT     H224849   4.822   0.277   6.786
 6032WAT    EPW24850   4.773   0.285   6.726
 6033WAT      O24851   4.462   0.915   5.835
 6033WAT     H124852   4.490   0.847   5.882
 6033WAT     H224853   4.472   0.983   5.890
 6033WAT    EPW24854   4.468   0.915   5.850
 6034WAT      O24855   4.089   0.344   6.965
 6034WAT     H124856   4.166   0.379   6.945
 6034WAT     H224857   4.071   0.293   6.897
 6034WAT    EPW24858   4.097   0.342   6.952
 6035WAT      O24859   5.776   0.934   6.010
 6035WAT     H124860   5.836   0.881   5.975
 6035WAT     H224861   5.723   0.880   6.054
 6035WAT    EPW24862   5.777   0.919   6.011
 6036WAT      O24863   4.109   0.346   7.248
 6036WAT     H124864   4.105   0.343   7.161
 6036WAT     H224865   4.096   0.430   7.267
 6036WAT    EPW24866   4.107   0.358   7.238
 6037WAT      O24867   5.675   0.221   6.581
 6037WAT     H124868   5.636   0.152   6.616
 6037WAT     H224869   5.748   0.230   6.627
 6037WAT    EPW24870   5.680   0.212   6.593
 6038WAT      O24871   5.771   0.722   6.791
 6038WAT     H124872   5.797   0.777   6.728
 6038WAT     H224873   5.826   0.738   6.856
 6038WAT    EPW24874   5.783   0.733   6.791
 6039WAT      O24875   5.462   0.611   5.981
 6039WAT     H124876   5.492   0.529   5.981
 6039WAT     H224877   5.386   0.605   6.023
 6039WAT    EPW24878   5.455   0.598   5.987
 6040WAT      O24879   5.709   0.321   7.250
 6040WAT     H124880   5.795   0.309   7.257
 6040WAT     H224881   5.702   0.372   7.179
 6040WAT    EPW24882   5.721   0.327   7.240
 6041WAT      O24883   5.144   0.431   5.918
 6041WAT     H124884   5.205   0.370   5.900
 6041WAT     H224885   5.121   0.460   5.839
 6041WAT    EPW24886   5.150   0.426   5.904
 6042WAT      O24887   4.553   0.566   7.001
 6042WAT     H124888   4.566   0.610   7.076
 6042WAT     H224889   4.583   0.621   6.940
 6042WAT    EPW24890   4.560   0.581   7.003
 6043WAT      O24891   4.402   0.383   7.304
 6043WAT     H124892   4.324   0.344   7.296
 6043WAT     H224893   4.382   0.467   7.317
 6043WAT    EPW24894   4.387   0.389   7.305
 6044WAT      O24895   4.855   0.272   6.988
 6044WAT     H124896   4.917   0.247   7.045
 6044WAT     H224897   4.783   0.273   7.036
 6044WAT    EPW24898   4.854   0.268   7.004
 6045WAT      O24899   4.804   0.934   6.495
 6045WAT     H124900   4.804   1.020   6.509
 6045WAT     H224901   4.832   0.926   6.412
 6045WAT    EPW24902   4.808   0.945   6.484
 6046WAT      O24903   4.646   0.751   6.816
 6046WAT     H124904   4.599   0.794   6.756
 6046WAT     H224905   4.693   0.695   6.769
 6046WAT    EPW24906   4.646   0.749   6.800
 6047WAT      O24907   5.033   0.480   7.532
 6047WAT     H124908   5.111   0.445   7.514
 6047WAT     H224909   4.984   0.457   7.464
 6047WAT    EPW24910   5.038   0.472   7.519
 6048WAT      O24911   5.368   0.675   7.404
 6048WAT     H124912   5.410   0.692   7.479
 6048WAT     H224913   5.418   0.712   7.343
 6048WAT    EPW24914   5.381   0.683   7.406
 6049WAT      O24915   4.682   0.282   6.015
 6049WAT     H124916   4.630   0.317   5.955
 6049WAT     H224917   4.753   0.332   6.012
 6049WAT    EPW24918   4.685   0.294   6.006
 6050WAT      O24919   4.848   0.975   7.424
 6050WAT     H124920   4.889   0.966   7.348
 6050WAT     H224921   4.829   0.893   7.448
 6050WAT    EPW24922   4.851   0.962   7.416
 6051WAT      O24923   5.526   0.216   6.221
 6051WAT     H124924   5.587   0.158   6.246
 6051WAT     H224925   5.456   0.166   6.205
 6051WAT    EPW24926   5.525   0.200   6.222
 6052WAT      O24927   4.883   0.433   7.301
 6052WAT     H124928   4.804   0.429   7.339
 6052WAT     H224929   4.886   0.515   7.270
 6052WAT    EPW24930   4.872   0.444   7.302
 6053WAT      O24931   4.470   1.045   6.891
 6053WAT     H124932   4.476   1.023   6.976
 6053WAT     H224933   4.432   0.975   6.855
 6053WAT    EPW24934   4.465   1.031   6.899
 6054WAT      O24935   5.158   0.351   6.501
 6054WAT     H124936   5.154   0.370   6.585
 6054WAT     H224937   5.243   0.336   6.487
 6054WAT    EPW24938   5.170   0.352   6.511
 6055WAT      O24939   4.884   0.297   6.442
 6055WAT     H124940   4.853   0.289   6.523
 6055WAT     H224941   4.971   0.302   6.453
 6055WAT    EPW24942   4.893   0.296   6.455
 6056WAT      O24943   4.894   0.708   7.253
 6056WAT     H124944   4.951   0.714   7.318
 6056WAT     H224945   4.916   0.774   7.200
 6056WAT    EPW24946   4.906   0.719   7.255
 6057WAT      O24947   4.109   1.027   7.409
 6057WAT     H124948   4.049   0.964   7.401
 6057WAT     H224949   4.064   1.095   7.439
 6057WAT    EPW24950   4.094   1.027   7.412
 6058WAT      O24951   5.307   1.028   6.750
 6058WAT     H124952   5.248   1.087   6.774
 6058WAT     H224953   5.371   1.038   6.809
 6058WAT    EPW24954   5.308   1.038   6.762
 6059WAT      O24955   4.931   0.529   6.908
 6059WAT     H124956   4.903   0.455   6.945
 6059WAT     H224957   4.981   0.565   6.970
 6059WAT    EPW24958   4.934   0.523   6.923
 6060WAT      O24959   5.069   0.669   6.354
 6060WAT     H124960   5.046   0.747   6.324
 6060WAT     H224961   4.999   0.619   6.336
 6060WAT    EPW24962   5.055   0.673   6.347
 6061WAT      O24963   4.501   0.671   5.981
 6061WAT     H124964   4.544   0.663   6.056
 6061WAT     H224965   4.419   0.649   6.002
 6061WAT    EPW24966   4.495   0.666   5.995
 6062WAT      O24967   5.440   0.853   6.358
 6062WAT     H124968   5.413   0.779   6.395
 6062WAT     H224969   5.482   0.826   6.286
 6062WAT    EPW24970   5.442   0.838   6.353
 6063WAT      O24971   4.249   0.570   6.035
 6063WAT     H124972   4.245   0.543   6.118
 6063WAT     H224973   4.255   0.495   5.990
 6063WAT    EPW24974   4.249   0.555   6.041
 6064WAT      O24975   4.526   0.433   5.831
 6064WAT     H124976   4.442   0.411   5.837
 6064WAT     H224977   4.530   0.510   5.872
 6064WAT    EPW24978   4.514   0.441   5.838
 6065WAT      O24979   5.165   0.632   7.039
 6065WAT     H124980   5.189   0.696   7.092
 6065WAT     H224981   5.174   0.666   6.959
 6065WAT    EPW24982   5.170   0.646   7.035
 6066WAT      O24983   5.192   1.019   7.461
 6066WAT     H124984   5.135   0.953   7.471
 6066WAT     H224985   5.144   1.089   7.480
 6066WAT    EPW24986   5.176   1.019   7.465
 6067WAT      O24987   5.711   0.461   7.009
 6067WAT     H124988   5.776   0.421   6.967
 6067WAT     H224989   5.649   0.469   6.948
 6067WAT    EPW24990   5.711   0.457   6.994
 6068WAT      O24991   4.543   0.956   7.431
 6068WAT     H124992   4.600   1.022   7.435
 6068WAT     H224993   4.591   0.887   7.454
 6068WAT    EPW24994   4.559   0.956   7.435
 6069WAT      O24995   5.541   0.755   6.960
 6069WAT     H124996   5.608   0.761   6.905
 6069WAT     H224997   5.503   0.679   6.939
 6069WAT    EPW24998   5.545   0.745   6.949
 6070WAT      O24999   4.302   0.859   7.531
 6070WAT     H125000   4.376   0.903   7.517
 6070WAT     H225001   4.240   0.914   7.503
 6070WAT    EPW25002   4.304   0.874   7.525
 6071WAT      O25003   4.080   0.621   7.309
 6071WAT     H125004   4.034   0.678   7.357
 6071WAT     H225005   4.163   0.643   7.325
 6071WAT    EPW25006   4.085   0.633   7.318
 6072WAT      O25007   4.281   0.907   6.186
 6072WAT     H125008   4.251   0.935   6.109
 6072WAT     H225009   4.367   0.903   6.175
 6072WAT    EPW25010   4.289   0.911   6.173
 6073WAT      O25011   4.643   0.231   6.290
 6073WAT     H125012   4.656   0.241   6.204
 6073WAT     H225013   4.723   0.237   6.324
 6073WAT    EPW25014   4.657   0.234   6.282
 6074WAT      O25015   5.560   1.004   5.844
 6074WAT     H125016   5.632   0.987   5.890
 6074WAT     H225017   5.539   0.926   5.810
 6074WAT    EPW25018   5.567   0.990   5.846
 6075WAT      O25019   5.658   0.275   7.525
 6075WAT     H125020   5.733   0.233   7.541
 6075WAT     H225021   5.665   0.297   7.441
 6075WAT    EPW25022   5.670   0.272   7.515
 6076WAT      O25023   5.222   0.619   6.115
 6076WAT     H125024   5.179   0.612   6.191
 6076WAT     H225025   5.181   0.561   6.063
 6076WAT    EPW25026   5.210   0.609   6.118
 6077WAT      O25027   5.402   0.250   7.642
 6077WAT     H125028   5.485   0.255   7.613
 6077WAT     H225029   5.358   0.300   7.585
 6077WAT    EPW25030   5.408   0.258   7.629
 6078WAT      O25031   4.307   0.835   6.803
 6078WAT     H125032   4.301   0.760   6.760
 6078WAT     H225033   4.264   0.891   6.752
 6078WAT    EPW25034   4.299   0.832   6.789
 6079WAT      O25035   4.890   0.464   6.016
 6079WAT     H125036   4.968   0.438   5.988
 6079WAT     H225037   4.873   0.534   5.967
 6079WAT    EPW25038   4.899   0.471   6.005
 6080WAT      O25039   4.068   1.087   7.140
 6080WAT     H125040   4.080   1.069   7.224
 6080WAT     H225041   4.106   1.020   7.099
 6080WAT    EPW25042   4.075   1.074   7.146
 6081WAT      O25043   4.004   0.377   4.492
 6081WAT     H125044   3.998   0.420   4.568
 6081WAT     H225045   4.040   0.301   4.515
 6081WAT    EPW25046   4.008   0.372   4.507
 6082WAT      O25047   5.608   0.761   4.256
 6082WAT     H125048   5.667   0.703   4.284
 6082WAT     H225049   5.559   0.716   4.199
 6082WAT    EPW25050   5.609   0.746   4.252
 6083WAT      O25051   4.246   0.343   3.970
 6083WAT     H125052   4.210   0.332   3.891
 6083WAT     H225053   4.257   0.262   4.000
 6083WAT    EPW25054   4.242   0.330   3.963
 6084WAT      O25055   4.237   0.487   4.390
 6084WAT     H125056   4.300   0.436   4.424
 6084WAT     H225057   4.163   0.448   4.417
 6084WAT    EPW25058   4.235   0.474   4.399
 6085WAT      O25059   4.085   0.763   3.994
 6085WAT     H125060   4.135   0.781   3.925
 6085WAT     H225061   4.133   0.706   4.040
 6085WAT    EPW25062   4.099   0.757   3.991
 6086WAT      O25063   3.999   0.680   5.139
 6086WAT     H125064   4.030   0.657   5.217
 6086WAT     H225065   3.932   0.626   5.126
 6086WAT    EPW25066   3.993   0.669   5.148
 6087WAT      O25067   4.637   0.452   5.572
 6087WAT     H125068   4.610   0.440   5.653
 6087WAT     H225069   4.569   0.427   5.523
 6087WAT    EPW25070   4.623   0.447   5.577
 6088WAT      O25071   4.599   0.713   5.331
 6088WAT     H125072   4.581   0.795   5.305
 6088WAT     H225073   4.686   0.714   5.340
 6088WAT    EPW25074   4.609   0.725   5.329
 6089WAT      O25075   4.762   0.556   4.740
 6089WAT     H125076   4.783   0.479   4.775
 6089WAT     H225077   4.837   0.600   4.737
 6089WAT    EPW25078   4.776   0.551   4.745
 6090WAT      O25079   4.847   0.520   4.383
 6090WAT     H125080   4.852   0.448   4.431
 6090WAT     H225081   4.862   0.492   4.302
 6090WAT    EPW25082   4.850   0.506   4.378
 6091WAT      O25083   3.990   0.864   4.658
 6091WAT     H125084   3.928   0.910   4.618
 6091WAT     H225085   4.030   0.822   4.593
 6091WAT    EPW25086   3.987   0.864   4.643
 6092WAT      O25087   4.592   0.626   4.349
 6092WAT     H125088   4.556   0.603   4.426
 6092WAT     H225089   4.674   0.595   4.355
 6092WAT    EPW25090   4.599   0.618   4.361
 6093WAT      O25091   5.172   0.885   4.167
 6093WAT     H125092   5.240   0.940   4.171
 6093WAT     H225093   5.208   0.807   4.183
 6093WAT    EPW25094   5.187   0.881   4.170
 6094WAT      O25095   4.981   0.912   4.360
 6094WAT     H125096   5.000   0.985   4.402
 6094WAT     H225097   5.040   0.909   4.296
 6094WAT    EPW25098   4.992   0.922   4.357
 6095WAT      O25099   4.124   0.741   4.439
 6095WAT     H125100   4.176   0.671   4.443
 6095WAT     H225101   4.169   0.798   4.390
 6095WAT    EPW25102   4.138   0.739   4.433
 6096WAT      O25103   5.221   0.913   5.159
 6096WAT     H125104   5.292   0.962   5.150
 6096WAT     H225105   5.206   0.885   5.078
 6096WAT    EPW25106   5.229   0.916   5.146
 6097WAT      O25107   4.286   0.597   4.779
 6097WAT     H125108   4.355   0.587   4.726
 6097WAT     H225109   4.302   0.542   4.845
 6097WAT    EPW25110   4.299   0.588   4.781
 6098WAT      O25111   4.542   0.853   4.659
 6098WAT     H125112   4.622   0.883   4.637
 6098WAT     H225113   4.489   0.913   4.625
 6098WAT    EPW25114   4.546   0.866   4.651
 6099WAT      O25115   5.371   1.083   4.151
 6099WAT     H125116   5.420   1.051   4.087
 6099WAT     H225117   5.426   1.133   4.196
 6099WAT    EPW25118   5.386   1.086   4.149
 6100WAT      O25119   4.469   0.957   5.284
 6100WAT     H125120   4.472   0.963   5.371
 6100WAT     H225121   4.391   0.921   5.268
 6100WAT    EPW25122   4.458   0.953   5.295
 6101WAT      O25123   5.109   0.723   5.491
 6101WAT     H125124   5.090   0.673   5.560
 6101WAT     H225125   5.196   0.719   5.486
 6101WAT    EPW25126   5.119   0.715   5.501
 6102WAT      O25127   4.851   0.693   3.963
 6102WAT     H125128   4.823   0.752   4.021
 6102WAT     H225129   4.930   0.722   3.940
 6102WAT    EPW25130   4.859   0.706   3.968
 6103WAT      O25131   4.228   0.847   5.166
 6103WAT     H125132   4.158   0.795   5.160
 6103WAT     H225133   4.261   0.846   5.086
 6103WAT    EPW25134   4.222   0.839   5.153
 6104WAT      O25135   4.978   0.984   5.264
 6104WAT     H125136   5.057   0.965   5.233
 6104WAT     H225137   4.925   0.967   5.197
 6104WAT    EPW25138   4.982   0.979   5.250
 6105WAT      O25139   5.669   1.000   4.527
 6105WAT     H125140   5.631   1.076   4.545
 6105WAT     H225141   5.601   0.947   4.511
 6105WAT    EPW25142   5.653   1.003   4.527
 6106WAT      O25143   5.345   0.613   4.560
 6106WAT     H125144   5.377   0.532   4.561
 6106WAT     H225145   5.259   0.601   4.547
 6106WAT    EPW25146   5.337   0.599   4.558
 6107WAT      O25147   4.358   0.659   5.478
 6107WAT     H125148   4.434   0.690   5.446
 6107WAT     H225149   4.342   0.711   5.546
 6107WAT    EPW25150   4.367   0.672   5.483
 6108WAT      O25151   4.527   0.225   4.934
 6108WAT     H125152   4.549   0.233   5.018
 6108WAT     H225153   4.500   0.142   4.927
 6108WAT    EPW25154   4.527   0.214   4.945
 6109WAT      O25155   4.589   0.306   5.197
 6109WAT     H125156   4.583   0.389   5.171
 6109WAT     H225157   4.538   0.303   5.267
 6109WAT    EPW25158   4.581   0.317   5.204
 6110WAT      O25159   5.261   0.373   5.156
 6110WAT     H125160   5.199   0.328   5.198
 6110WAT     H225161   5.234   0.456   5.164
 6110WAT    EPW25162   5.248   0.379   5.163
 6111WAT      O25163   3.886   0.655   5.732
 6111WAT     H125164   3.944   0.662   5.797
 6111WAT     H225165   3.879   0.568   5.721
 6111WAT    EPW25166   3.894   0.643   5.740
 6112WAT      O25167   5.574   0.348   4.078
 6112WAT     H125168   5.570   0.308   4.156
 6112WAT     H225169   5.658   0.369   4.070
 6112WAT    EPW25170   5.585   0.345   4.089
 6113WAT      O25171   4.173   0.164   4.581
 6113WAT     H125172   4.254   0.193   4.566
 6113WAT     H225173   4.176   0.080   4.555
 6113WAT    EPW25174   4.186   0.156   4.575
 6114WAT      O25175   4.190   1.026   4.760
 6114WAT     H125176   4.117   0.986   4.732
 6114WAT     H225177   4.239   1.032   4.688
 6114WAT    EPW25178   4.186   1.021   4.745
 6115WAT      O25179   5.814   0.811   5.494
 6115WAT     H125180   5.740   0.815   5.447
 6115WAT     H225181   5.791   0.766   5.564
 6115WAT    EPW25182   5.800   0.805   5.497
 6116WAT      O25183   4.417   0.323   4.522
 6116WAT     H125184   4.453   0.390   4.564
 6116WAT     H225185   4.484   0.288   4.478
 6116WAT    EPW25186   4.432   0.328   4.522
 6117WAT      O25187   4.024   0.516   4.734
 6117WAT     H125188   3.972   0.573   4.775
 6117WAT     H225189   4.103   0.550   4.744
 6117WAT    EPW25190   4.028   0.529   4.742
 6118WAT      O25191   4.977   0.734   4.713
 6118WAT     H125192   4.927   0.802   4.690
 6118WAT     H225193   5.015   0.709   4.638
 6118WAT    EPW25194   4.975   0.740   4.698
 6119WAT      O25195   3.936   0.582   4.309
 6119WAT     H125196   3.992   0.638   4.346
 6119WAT     H225197   3.935   0.515   4.365
 6119WAT    EPW25198   3.944   0.580   4.323
 6120WAT      O25199   4.337   0.426   4.987
 6120WAT     H125200   4.390   0.475   5.035
 6120WAT     H225201   4.388   0.360   4.959
 6120WAT    EPW25202   4.352   0.423   4.990
 6121WAT      O25203   3.958   0.442   4.067
 6121WAT     H125204   4.042   0.421   4.053
 6121WAT     H225205   3.962   0.493   4.138
 6121WAT    EPW25206   3.971   0.446   4.076
 6122WAT      O25207   4.022   0.249   4.808
 6122WAT     H125208   4.074   0.212   4.749
 6122WAT     H225209   4.027   0.334   4.789
 6122WAT    EPW25210   4.030   0.256   4.796
 6123WAT      O25211   5.566   0.826   5.354
 6123WAT     H125212   5.522   0.901   5.363
 6123WAT     H225213   5.563   0.811   5.268
 6123WAT    EPW25214   5.559   0.835   5.343
 6124WAT      O25215   4.516   0.583   4.616
 6124WAT     H125216   4.514   0.670   4.623
 6124WAT     H225217   4.593   0.561   4.651
 6124WAT    EPW25218   4.527   0.593   4.622
 6125WAT      O25219   4.793   0.911   5.071
 6125WAT     H125220   4.751   0.848   5.028
 6125WAT     H225221   4.781   0.982   5.022
 6125WAT    EPW25222   4.785   0.912   5.058
 6126WAT      O25223   5.336   0.409   5.581
 6126WAT     H125224   5.361   0.489   5.558
 6126WAT     H225225   5.364   0.360   5.514
 6126WAT    EPW25226   5.344   0.413   5.568
 6127WAT      O25227   4.734   0.721   5.614
 6127WAT     H125228   4.767   0.710   5.694
 6127WAT     H225229   4.703   0.642   5.594
 6127WAT    EPW25230   4.734   0.707   5.623
 6128WAT      O25231   5.446   0.347   4.557
 6128WAT     H125232   5.512   0.325   4.610
 6128WAT     H225233   5.470   0.317   4.479
 6128WAT    EPW25234   5.459   0.339   4.554
 6129WAT      O25235   5.176   0.782   4.909
 6129WAT     H125236   5.112   0.765   4.852
 6129WAT     H225237   5.220   0.847   4.871
 6129WAT    EPW25238   5.173   0.789   4.895
 6130WAT      O25239   5.162   0.408   4.884
 6130WAT     H125240   5.090   0.452   4.907
 6130WAT     H225241   5.189   0.372   4.959
 6130WAT    EPW25242   5.155   0.409   4.899
 6131WAT      O25243   4.559   0.897   4.301
 6131WAT     H125244   4.567   0.816   4.334
 6131WAT     H225245   4.627   0.904   4.247
 6131WAT    EPW25246   4.570   0.886   4.298
 6132WAT      O25247   4.790   0.889   4.151
 6132WAT     H125248   4.849   0.897   4.215
 6132WAT     H225249   4.791   0.966   4.112
 6132WAT    EPW25250   4.799   0.901   4.155
 6133WAT      O25251   5.435   0.268   5.366
 6133WAT     H125252   5.404   0.301   5.291
 6133WAT     H225253   5.521   0.280   5.359
 6133WAT    EPW25254   5.443   0.275   5.354
 6134WAT      O25255   5.099   0.815   5.804
 6134WAT     H125256   5.125   0.848   5.881
 6134WAT     H225257   5.133   0.870   5.746
 6134WAT    EPW25258   5.108   0.828   5.807
 6135WAT      O25259   5.047   0.255   5.299
 6135WAT     H125260   5.002   0.310   5.350
 6135WAT     H225261   5.073   0.193   5.355
 6135WAT    EPW25262   5.044   0.254   5.315
 6136WAT      O25263   5.458   0.498   4.988
 6136WAT     H125264   5.412   0.514   4.915
 6136WAT     H225265   5.404   0.451   5.037
 6136WAT    EPW25266   5.443   0.494   4.984
 6137WAT      O25267   4.782   0.285   4.815
 6137WAT     H125268   4.699   0.266   4.835
 6137WAT     H225269   4.825   0.274   4.890
 6137WAT    EPW25270   4.776   0.281   4.829
 6138WAT      O25271   4.461   0.910   3.929
 6138WAT     H125272   4.489   0.840   3.974
 6138WAT     H225273   4.474   0.976   3.985
 6138WAT    EPW25274   4.467   0.910   3.944
 6139WAT      O25275   4.082   0.336   5.069
 6139WAT     H125276   4.158   0.374   5.050
 6139WAT     H225277   4.065   0.287   4.999
 6139WAT    EPW25278   4.091   0.335   5.056
 6140WAT      O25279   5.782   0.923   4.118
 6140WAT     H125280   5.840   0.870   4.080
 6140WAT     H225281   5.732   0.869   4.164
 6140WAT    EPW25282   5.783   0.907   4.119
 6141WAT      O25283   4.110   0.340   5.351
 6141WAT     H125284   4.104   0.331   5.265
 6141WAT     H225285   4.102   0.426   5.364
 6141WAT    EPW25286   4.108   0.352   5.340
 6142WAT      O25287   5.682   0.217   4.669
 6142WAT     H125288   5.650   0.139   4.692
 6142WAT     H225289   5.751   0.227   4.721
 6142WAT    EPW25290   5.688   0.207   4.680
 6143WAT      O25291   5.769   0.721   4.888
 6143WAT     H125292   5.794   0.777   4.826
 6143WAT     H225293   5.827   0.735   4.952
 6143WAT    EPW25294   5.781   0.731   4.889
 6144WAT      O25295   5.463   0.602   4.087
 6144WAT     H125296   5.492   0.520   4.087
 6144WAT     H225297   5.387   0.597   4.129
 6144WAT    EPW25298   5.456   0.589   4.093
 6145WAT      O25299   5.715   0.339   5.372
 6145WAT     H125300   5.799   0.315   5.375
 6145WAT     H225301   5.710   0.385   5.299
 6145WAT    EPW25302   5.727   0.342   5.362
 6146WAT      O25303   5.143   0.422   4.023
 6146WAT     H125304   5.204   0.363   4.006
 6146WAT     H225305   5.120   0.452   3.944
 6146WAT    EPW25306   5.148   0.418   4.009
 6147WAT      O25307   4.544   0.563   5.109
 6147WAT     H125308   4.556   0.610   5.182
 6147WAT     H225309   4.574   0.616   5.047
 6147WAT    EPW25310   4.550   0.578   5.111
 6148WAT      O25311   4.398   0.387   5.414
 6148WAT     H125312   4.319   0.353   5.399
 6148WAT     H225313   4.381   0.472   5.430
 6148WAT    EPW25314   4.384   0.395   5.415
 6149WAT      O25315   4.853   0.275   5.096
 6149WAT     H125316   4.912   0.253   5.156
 6149WAT     H225317   4.778   0.276   5.141
 6149WAT    EPW25318   4.851   0.272   5.112
 6150WAT      O25319   4.806   0.933   4.601
 6150WAT     H125320   4.809   1.019   4.619
 6150WAT     H225321   4.835   0.928   4.519
 6150WAT    EPW25322   4.810   0.945   4.592
 6151WAT      O25323   4.638   0.735   4.913
 6151WAT     H125324   4.593   0.782   4.855
 6151WAT     H225325   4.685   0.681   4.864
 6151WAT    EPW25326   4.639   0.734   4.898
 6152WAT      O25327   5.077   0.490   5.653
 6152WAT     H125328   5.152   0.458   5.621
 6152WAT     H225329   5.017   0.464   5.595
 6152WAT    EPW25330   5.079   0.481   5.639
 6153WAT      O25331   5.387   0.676   5.510
 6153WAT     H125332   5.415   0.706   5.587
 6153WAT     H225333   5.442   0.713   5.453
 6153WAT    EPW25334   5.399   0.686   5.513
 6154WAT      O25335   4.678   0.281   4.112
 6154WAT     H125336   4.626   0.315   4.050
 6154WAT     H225337   4.749   0.331   4.109
 6154WAT    EPW25338   4.681   0.293   4.102
 6155WAT      O25339   4.874   0.954   5.523
 6155WAT     H125340   4.905   0.948   5.441
 6155WAT     H225341   4.846   0.873   5.540
 6155WAT    EPW25342   4.874   0.941   5.513
 6156WAT      O25343   5.530   0.209   4.323
 6156WAT     H125344   5.593   0.156   4.350
 6156WAT     H225345   5.462   0.156   4.309
 6156WAT    EPW25346   5.529   0.194   4.325
 6157WAT      O25347   4.891   0.434   5.447
 6157WAT     H125348   4.813   0.428   5.486
 6157WAT     H225349   4.886   0.510   5.403
 6157WAT    EPW25350   4.879   0.445   5.446
 6158WAT      O25351   4.474   1.058   5.011
 6158WAT     H125352   4.479   1.040   5.096
 6158WAT     H225353   4.439   0.986   4.977
 6158WAT    EPW25354   4.469   1.045   5.018
 6159WAT      O25355   5.160   0.347   4.610
 6159WAT     H125356   5.160   0.365   4.695
 6159WAT     H225357   5.244   0.333   4.592
 6159WAT    EPW25358   5.172   0.348   4.620
 6160WAT      O25359   4.887   0.294   4.543
 6160WAT     H125360   4.854   0.285   4.623
 6160WAT     H225361   4.973   0.300   4.556
 6160WAT    EPW25362   4.895   0.293   4.556
 6161WAT      O25363   4.886   0.690   5.323
 6161WAT     H125364   4.956   0.709   5.372
 6161WAT     H225365   4.899   0.736   5.250
 6161WAT    EPW25366   4.898   0.700   5.319
 6162WAT      O25367   4.098   1.014   5.532
 6162WAT     H125368   4.044   0.946   5.522
 6162WAT     H225369   4.044   1.082   5.539
 6162WAT    EPW25370   4.082   1.014   5.532
 6163WAT      O25371   5.298   1.029   4.849
 6163WAT     H125372   5.238   1.088   4.872
 6163WAT     H225373   5.361   1.038   4.908
 6163WAT    EPW25374   5.299   1.039   4.861
 6164WAT      O25375   4.939   0.524   5.006
 6164WAT     H125376   4.906   0.453   5.044
 6164WAT     H225377   4.988   0.560   5.068
 6164WAT    EPW25378   4.941   0.519   5.021
 6165WAT      O25379   5.506   0.751   5.749
 6165WAT     H125380   5.587   0.722   5.736
 6165WAT     H225381   5.478   0.707   5.819
 6165WAT    EPW25382   5.514   0.741   5.757
 6166WAT      O25383   5.068   0.663   4.457
 6166WAT     H125384   5.047   0.743   4.428
 6166WAT     H225385   4.998   0.615   4.438
 6166WAT    EPW25386   5.055   0.668   4.450
 6167WAT      O25387   4.501   0.667   4.076
 6167WAT     H125388   4.543   0.659   4.152
 6167WAT     H225389   4.418   0.649   4.097
 6167WAT    EPW25390   4.495   0.663   4.091
 6168WAT      O25391   5.441   0.853   4.460
 6168WAT     H125392   5.413   0.779   4.497
 6168WAT     H225393   5.483   0.825   4.389
 6168WAT    EPW25394   5.443   0.838   4.455
 6169WAT      O25395   4.246   0.575   4.127
 6169WAT     H125396   4.244   0.550   4.210
 6169WAT     H225397   4.252   0.500   4.083
 6169WAT    EPW25398   4.246   0.560   4.133
 6170WAT      O25399   4.523   0.430   3.926
 6170WAT     H125400   4.439   0.407   3.933
 6170WAT     H225401   4.527   0.507   3.967
 6170WAT    EPW25402   4.511   0.438   3.933
 6171WAT      O25403   5.164   0.631   5.144
 6171WAT     H125404   5.187   0.696   5.197
 6171WAT     H225405   5.176   0.664   5.064
 6171WAT    EPW25406   5.169   0.645   5.140
 6172WAT      O25407   5.184   0.990   5.592
 6172WAT     H125408   5.127   0.938   5.551
 6172WAT     H225409   5.139   1.064   5.603
 6172WAT    EPW25410   5.169   0.993   5.588
 6173WAT      O25411   5.711   0.461   5.123
 6173WAT     H125412   5.776   0.420   5.081
 6173WAT     H225413   5.648   0.468   5.063
 6173WAT    EPW25414   5.712   0.456   5.108
 6174WAT      O25415   4.537   0.921   5.560
 6174WAT     H125416   4.518   0.937   5.644
 6174WAT     H225417   4.600   0.861   5.565
 6174WAT    EPW25418   4.543   0.914   5.573
 6175WAT      O25419   5.552   0.753   5.079
 6175WAT     H125420   5.613   0.761   5.017
 6175WAT     H225421   5.511   0.679   5.059
 6175WAT    EPW25422   5.555   0.743   5.067
 6176WAT      O25423   4.246   0.822   5.689
 6176WAT     H125424   4.313   0.858   5.731
 6176WAT     H225425   4.209   0.889   5.647
 6176WAT    EPW25426   4.250   0.838   5.689
 6177WAT      O25427   4.098   0.615   5.386
 6177WAT     H125428   4.045   0.670   5.428
 6177WAT     H225429   4.177   0.641   5.411
 6177WAT    EPW25430   4.102   0.627   5.396
 6178WAT      O25431   4.284   0.913   4.287
 6178WAT     H125432   4.260   0.941   4.208
 6178WAT     H225433   4.371   0.904   4.280
 6178WAT    EPW25434   4.293   0.916   4.274
 6179WAT      O25435   4.642   0.231   4.388
 6179WAT     H125436   4.654   0.240   4.302
 6179WAT     H225437   4.723   0.236   4.420
 6179WAT    EPW25438   4.656   0.233   4.380
 6180WAT      O25439   5.551   0.977   3.971
 6180WAT     H125440   5.626   0.961   4.012
 6180WAT     H225441   5.532   0.902   3.931
 6180WAT    EPW25442   5.559   0.964   3.971
 6181WAT      O25443   5.707   0.398   5.647
 6181WAT     H125444   5.647   0.343   5.678
 6181WAT     H225445   5.705   0.385   5.560
 6181WAT    EPW25446   5.698   0.388   5.638
 6182WAT      O25447   5.222   0.613   4.218
 6182WAT     H125448   5.179   0.607   4.294
 6182WAT     H225449   5.181   0.554   4.167
 6182WAT    EPW25450   5.209   0.603   4.221
 6183WAT      O25451   5.352   0.269   5.827
 6183WAT     H125452   5.426   0.296   5.866
 6183WAT     H225453   5.354   0.310   5.749
 6183WAT    EPW25454   5.363   0.279   5.821
 6184WAT      O25455   4.324   0.842   4.909
 6184WAT     H125456   4.315   0.767   4.867
 6184WAT     H225457   4.279   0.899   4.861
 6184WAT    EPW25458   4.316   0.840   4.896
 6185WAT      O25459   4.887   0.462   4.116
 6185WAT     H125460   4.965   0.435   4.089
 6185WAT     H225461   4.871   0.531   4.066
 6185WAT    EPW25462   4.896   0.468   4.104
 6186WAT      O25463   4.089   1.071   5.254
 6186WAT     H125464   4.090   1.049   5.338
 6186WAT     H225465   4.130   1.004   5.215
 6186WAT    EPW25466   4.095   1.058   5.261
 6187WAT      O25467   3.971   0.401   2.600
 6187WAT     H125468   3.981   0.445   2.674
 6187WAT     H225469   3.945   0.322   2.626
 6187WAT    EPW25470   3.969   0.396   2.614
 6188WAT      O25471   5.614   0.764   2.338
 6188WAT     H125472   5.672   0.706   2.367
 6188WAT     H225473   5.564   0.718   2.283
 6188WAT    EPW25474   5.615   0.749   2.334
 6189WAT      O25475   4.241   0.348   2.061
 6189WAT     H125476   4.207   0.342   1.982
 6189WAT     H225477   4.248   0.265   2.087
 6189WAT    EPW25478   4.237   0.335   2.053
 6190WAT      O25479   4.222   0.476   2.491
 6190WAT     H125480   4.285   0.426   2.525
 6190WAT     H225481   4.148   0.438   2.520
 6190WAT    EPW25482   4.220   0.463   2.501
 6191WAT      O25483   4.081   0.762   2.095
 6191WAT     H125484   4.132   0.778   2.026
 6191WAT     H225485   4.128   0.705   2.142
 6191WAT    EPW25486   4.096   0.756   2.091
 6192WAT      O25487   3.996   0.695   3.236
 6192WAT     H125488   4.031   0.672   3.313
 6192WAT     H225489   3.930   0.639   3.226
 6192WAT    EPW25490   3.991   0.683   3.246
 6193WAT      O25491   4.634   0.455   3.668
 6193WAT     H125492   4.606   0.440   3.749
 6193WAT     H225493   4.565   0.434   3.618
 6193WAT    EPW25494   4.620   0.450   3.672
 6194WAT      O25495   4.622   0.748   3.415
 6194WAT     H125496   4.629   0.822   3.369
 6194WAT     H225497   4.705   0.727   3.433
 6194WAT    EPW25498   4.635   0.756   3.411
 6195WAT      O25499   4.753   0.551   2.840
 6195WAT     H125500   4.774   0.473   2.874
 6195WAT     H225501   4.829   0.592   2.833
 6195WAT    EPW25502   4.767   0.545   2.844
 6196WAT      O25503   4.845   0.520   2.481
 6196WAT     H125504   4.851   0.447   2.530
 6196WAT     H225505   4.860   0.491   2.400
 6196WAT    EPW25506   4.848   0.505   2.476
 6197WAT      O25507   3.975   0.863   2.745
 6197WAT     H125508   3.918   0.913   2.701
 6197WAT     H225509   4.017   0.819   2.683
 6197WAT    EPW25510   3.972   0.864   2.729
 6198WAT      O25511   4.590   0.624   2.449
 6198WAT     H125512   4.553   0.600   2.524
 6198WAT     H225513   4.671   0.593   2.456
 6198WAT    EPW25514   4.597   0.616   2.461
 6199WAT      O25515   5.173   0.892   2.263
 6199WAT     H125516   5.242   0.945   2.264
 6199WAT     H225517   5.207   0.813   2.278
 6199WAT    EPW25518   5.188   0.888   2.265
 6200WAT      O25519   4.980   0.911   2.456
 6200WAT     H125520   4.999   0.984   2.501
 6200WAT     H225521   5.040   0.910   2.393
 6200WAT    EPW25522   4.992   0.922   2.454
 6201WAT      O25523   4.126   0.740   2.538
 6201WAT     H125524   4.173   0.666   2.541
 6201WAT     H225525   4.174   0.792   2.488
 6201WAT    EPW25526   4.140   0.736   2.531
 6202WAT      O25527   5.220   0.907   3.251
 6202WAT     H125528   5.294   0.953   3.251
 6202WAT     H225529   5.211   0.882   3.168
 6202WAT    EPW25530   5.229   0.910   3.239
 6203WAT      O25531   4.288   0.612   2.892
 6203WAT     H125532   4.353   0.597   2.835
 6203WAT     H225533   4.303   0.555   2.956
 6203WAT    EPW25534   4.300   0.601   2.893
 6204WAT      O25535   4.539   0.852   2.757
 6204WAT     H125536   4.619   0.877   2.733
 6204WAT     H225537   4.486   0.912   2.720
 6204WAT    EPW25538   4.543   0.865   2.748
 6205WAT      O25539   5.376   1.084   2.239
 6205WAT     H125540   5.423   1.058   2.171
 6205WAT     H225541   5.434   1.128   2.288
 6205WAT    EPW25542   5.392   1.087   2.236
 6206WAT      O25543   4.443   0.999   3.391
 6206WAT     H125544   4.463   0.981   3.474
 6206WAT     H225545   4.371   0.951   3.377
 6206WAT    EPW25546   4.435   0.989   3.401
 6207WAT      O25547   5.108   0.729   3.607
 6207WAT     H125548   5.090   0.682   3.678
 6207WAT     H225549   5.194   0.723   3.599
 6207WAT    EPW25550   5.118   0.721   3.616
 6208WAT      O25551   4.856   0.694   2.061
 6208WAT     H125552   4.828   0.755   2.118
 6208WAT     H225553   4.934   0.724   2.037
 6208WAT    EPW25554   4.863   0.708   2.066
 6209WAT      O25555   4.203   0.885   3.265
 6209WAT     H125556   4.137   0.828   3.258
 6209WAT     H225557   4.243   0.878   3.188
 6209WAT    EPW25558   4.199   0.876   3.253
 6210WAT      O25559   4.975   0.982   3.357
 6210WAT     H125560   5.052   0.961   3.322
 6210WAT     H225561   4.918   0.959   3.296
 6210WAT    EPW25562   4.978   0.976   3.343
 6211WAT      O25563   5.667   0.993   2.625
 6211WAT     H125564   5.628   1.069   2.645
 6211WAT     H225565   5.600   0.940   2.605
 6211WAT    EPW25566   5.651   0.996   2.625
 6212WAT      O25567   5.346   0.610   2.646
 6212WAT     H125568   5.378   0.529   2.653
 6212WAT     H225569   5.260   0.598   2.637
 6212WAT    EPW25570   5.338   0.597   2.646
 6213WAT      O25571   4.369   0.687   3.549
 6213WAT     H125572   4.444   0.720   3.519
 6213WAT     H225573   4.354   0.733   3.622
 6213WAT    EPW25574   4.378   0.699   3.556
 6214WAT      O25575   4.523   0.234   3.034
 6214WAT     H125576   4.546   0.240   3.118
 6214WAT     H225577   4.489   0.153   3.028
 6214WAT    EPW25578   4.521   0.223   3.046
 6215WAT      O25579   4.590   0.316   3.296
 6215WAT     H125580   4.586   0.399   3.271
 6215WAT     H225581   4.538   0.313   3.366
 6215WAT    EPW25582   4.582   0.328   3.302
 6216WAT      O25583   5.258   0.378   3.261
 6216WAT     H125584   5.198   0.329   3.302
 6216WAT     H225585   5.227   0.459   3.270
 6216WAT    EPW25586   5.244   0.383   3.268
 6217WAT      O25587   3.885   0.664   3.813
 6217WAT     H125588   3.942   0.670   3.879
 6217WAT     H225589   3.877   0.579   3.800
 6217WAT    EPW25590   3.892   0.653   3.821
 6218WAT      O25591   5.573   0.354   2.173
 6218WAT     H125592   5.571   0.315   2.251
 6218WAT     H225593   5.657   0.376   2.164
 6218WAT    EPW25594   5.585   0.352   2.183
 6219WAT      O25595   4.199   0.148   2.713
 6219WAT     H125596   4.271   0.185   2.680
 6219WAT     H225597   4.196   0.070   2.674
 6219WAT    EPW25598   4.209   0.142   2.703
 6220WAT      O25599   4.180   1.017   2.842
 6220WAT     H125600   4.109   0.974   2.813
 6220WAT     H225601   4.231   1.021   2.772
 6220WAT    EPW25602   4.177   1.011   2.827
 6221WAT      O25603   5.810   0.807   3.590
 6221WAT     H125604   5.733   0.822   3.552
 6221WAT     H225605   5.789   0.763   3.662
 6221WAT    EPW25606   5.796   0.802   3.595
 6222WAT      O25607   4.415   0.323   2.618
 6222WAT     H125608   4.449   0.392   2.660
 6222WAT     H225609   4.483   0.289   2.576
 6222WAT    EPW25610   4.430   0.328   2.618
 6223WAT      O25611   4.027   0.528   2.840
 6223WAT     H125612   3.974   0.584   2.881
 6223WAT     H225613   4.106   0.563   2.852
 6223WAT    EPW25614   4.031   0.541   2.848
 6224WAT      O25615   4.972   0.721   2.806
 6224WAT     H125616   4.923   0.789   2.783
 6224WAT     H225617   5.011   0.698   2.732
 6224WAT    EPW25618   4.970   0.728   2.792
 6225WAT      O25619   3.933   0.594   2.402
 6225WAT     H125620   3.992   0.648   2.437
 6225WAT     H225621   3.926   0.530   2.461
 6225WAT    EPW25622   3.941   0.593   2.416
 6226WAT      O25623   4.337   0.436   3.095
 6226WAT     H125624   4.391   0.483   3.144
 6226WAT     H225625   4.387   0.371   3.066
 6226WAT    EPW25626   4.353   0.433   3.098
 6227WAT      O25627   3.953   0.439   2.169
 6227WAT     H125628   4.036   0.423   2.150
 6227WAT     H225629   3.958   0.494   2.237
 6227WAT    EPW25630   3.966   0.445   2.176
 6228WAT      O25631   4.030   0.258   2.907
 6228WAT     H125632   4.086   0.219   2.853
 6228WAT     H225633   4.039   0.343   2.888
 6228WAT    EPW25634   4.039   0.265   2.896
 6229WAT      O25635   5.552   0.857   3.468
 6229WAT     H125636   5.512   0.926   3.502
 6229WAT     H225637   5.544   0.869   3.382
 6229WAT    EPW25638   5.545   0.869   3.460
 6230WAT      O25639   4.508   0.582   2.716
 6230WAT     H125640   4.508   0.669   2.721
 6230WAT     H225641   4.584   0.559   2.751
 6230WAT    EPW25642   4.519   0.592   2.722
 6231WAT      O25643   4.756   0.918   3.193
 6231WAT     H125644   4.729   0.855   3.139
 6231WAT     H225645   4.745   0.991   3.147
 6231WAT    EPW25646   4.751   0.920   3.178
 6232WAT      O25647   5.338   0.410   3.682
 6232WAT     H125648   5.361   0.490   3.659
 6232WAT     H225649   5.365   0.360   3.616
 6232WAT    EPW25650   5.345   0.414   3.669
 6233WAT      O25651   4.730   0.721   3.712
 6233WAT     H125652   4.763   0.712   3.792
 6233WAT     H225653   4.699   0.642   3.693
 6233WAT    EPW25654   4.730   0.708   3.721
 6234WAT      O25655   5.446   0.345   2.655
 6234WAT     H125656   5.513   0.323   2.707
 6234WAT     H225657   5.471   0.316   2.577
 6234WAT    EPW25658   5.460   0.337   2.651
 6235WAT      O25659   5.167   0.761   3.005
 6235WAT     H125660   5.102   0.746   2.947
 6235WAT     H225661   5.219   0.816   2.962
 6235WAT    EPW25662   5.165   0.767   2.990
 6236WAT      O25663   5.167   0.404   2.983
 6236WAT     H125664   5.093   0.445   3.003
 6236WAT     H225665   5.191   0.368   3.059
 6236WAT    EPW25666   5.160   0.405   2.997
 6237WAT      O25667   4.564   0.896   2.403
 6237WAT     H125668   4.572   0.815   2.434
 6237WAT     H225669   4.631   0.902   2.347
 6237WAT    EPW25670   4.575   0.885   2.400
 6238WAT      O25671   4.791   0.892   2.247
 6238WAT     H125672   4.849   0.899   2.311
 6238WAT     H225673   4.792   0.970   2.208
 6238WAT    EPW25674   4.800   0.904   2.250
 6239WAT      O25675   5.437   0.271   3.466
 6239WAT     H125676   5.403   0.305   3.392
 6239WAT     H225677   5.522   0.285   3.457
 6239WAT    EPW25678   5.444   0.278   3.454
 6240WAT      O25679   5.095   0.813   3.910
 6240WAT     H125680   5.121   0.842   3.987
 6240WAT     H225681   5.123   0.874   3.854
 6240WAT    EPW25682   5.103   0.826   3.913
 6241WAT      O25683   5.046   0.249   3.397
 6241WAT     H125684   5.001   0.301   3.452
 6241WAT     H225685   5.070   0.182   3.448
 6241WAT    EPW25686   5.043   0.247   3.413
 6242WAT      O25687   5.442   0.504   3.077
 6242WAT     H125688   5.389   0.501   3.007
 6242WAT     H225689   5.397   0.462   3.139
 6242WAT    EPW25690   5.427   0.498   3.076
 6243WAT      O25691   4.778   0.280   2.913
 6243WAT     H125692   4.695   0.263   2.934
 6243WAT     H225693   4.821   0.267   2.988
 6243WAT    EPW25694   4.772   0.276   2.927
 6244WAT      O25695   4.463   0.909   2.029
 6244WAT     H125696   4.489   0.839   2.073
 6244WAT     H225697   4.476   0.975   2.085
 6244WAT    EPW25698   4.469   0.909   2.044
 6245WAT      O25699   4.080   0.350   3.168
 6245WAT     H125700   4.158   0.385   3.150
 6245WAT     H225701   4.065   0.298   3.099
 6245WAT    EPW25702   4.089   0.347   3.155
 6246WAT      O25703   5.777   0.941   2.205
 6246WAT     H125704   5.841   0.891   2.172
 6246WAT     H225705   5.726   0.884   2.247
 6246WAT    EPW25706   5.779   0.925   2.206
 6247WAT      O25707   4.115   0.359   3.449
 6247WAT     H125708   4.107   0.350   3.363
 6247WAT     H225709   4.104   0.445   3.461
 6247WAT    EPW25710   4.112   0.371   3.438
 6248WAT      O25711   5.681   0.218   2.770
 6248WAT     H125712   5.648   0.141   2.795
 6248WAT     H225713   5.752   0.227   2.820
 6248WAT    EPW25714   5.686   0.208   2.781
 6249WAT      O25715   5.763   0.716   2.971
 6249WAT     H125716   5.795   0.770   2.911
 6249WAT     H225717   5.813   0.732   3.042
 6249WAT    EPW25718   5.775   0.726   2.973
 6250WAT      O25719   5.461   0.608   2.176
 6250WAT     H125720   5.490   0.526   2.176
 6250WAT     H225721   5.385   0.604   2.219
 6250WAT    EPW25722   5.454   0.595   2.182
 6251WAT      O25723   5.714   0.348   3.463
 6251WAT     H125724   5.798   0.326   3.465
 6251WAT     H225725   5.707   0.395   3.389
 6251WAT    EPW25726   5.726   0.352   3.452
 6252WAT      O25727   5.143   0.431   2.117
 6252WAT     H125728   5.204   0.371   2.100
 6252WAT     H225729   5.121   0.462   2.039
 6252WAT    EPW25730   5.149   0.427   2.103
 6253WAT      O25731   4.546   0.576   3.214
 6253WAT     H125732   4.562   0.627   3.283
 6253WAT     H225733   4.575   0.624   3.147
 6253WAT    EPW25734   4.553   0.591   3.214
 6254WAT      O25735   4.400   0.408   3.506
 6254WAT     H125736   4.319   0.376   3.494
 6254WAT     H225737   4.386   0.494   3.515
 6254WAT    EPW25738   4.386   0.416   3.505
 6255WAT      O25739   4.851   0.269   3.195
 6255WAT     H125740   4.910   0.248   3.256
 6255WAT     H225741   4.776   0.275   3.240
 6255WAT    EPW25742   4.848   0.267   3.211
 6256WAT      O25743   4.804   0.921   2.698
 6256WAT     H125744   4.803   1.006   2.718
 6256WAT     H225745   4.832   0.920   2.615
 6256WAT    EPW25746   4.808   0.933   2.688
 6257WAT      O25747   4.638   0.739   3.009
 6257WAT     H125748   4.593   0.785   2.949
 6257WAT     H225749   4.683   0.682   2.962
 6257WAT    EPW25750   4.638   0.738   2.993
 6258WAT      O25751   5.078   0.485   3.760
 6258WAT     H125752   5.153   0.456   3.727
 6258WAT     H225753   5.018   0.458   3.702
 6258WAT    EPW25754   5.080   0.477   3.746
 6259WAT      O25755   5.385   0.679   3.609
 6259WAT     H125756   5.414   0.702   3.688
 6259WAT     H225757   5.436   0.723   3.554
 6259WAT    EPW25758   5.396   0.689   3.612
 6260WAT      O25759   4.680   0.280   2.214
 6260WAT     H125760   4.627   0.313   2.154
 6260WAT     H225761   4.751   0.330   2.209
 6260WAT    EPW25762   4.683   0.292   2.204
 6261WAT      O25763   4.860   0.954   3.611
 6261WAT     H125764   4.897   0.946   3.532
 6261WAT     H225765   4.837   0.872   3.630
 6261WAT    EPW25766   4.862   0.940   3.602
 6262WAT      O25767   5.530   0.213   2.417
 6262WAT     H125768   5.591   0.157   2.443
 6262WAT     H225769   5.461   0.162   2.401
 6262WAT    EPW25770   5.529   0.197   2.418
 6263WAT      O25771   4.893   0.423   3.555
 6263WAT     H125772   4.814   0.419   3.591
 6263WAT     H225773   4.892   0.500   3.513
 6263WAT    EPW25774   4.881   0.434   3.554
 6264WAT      O25775   4.441   1.100   3.123
 6264WAT     H125776   4.445   1.082   3.208
 6264WAT     H225777   4.419   1.023   3.087
 6264WAT    EPW25778   4.438   1.086   3.130
 6265WAT      O25779   5.161   0.346   2.709
 6265WAT     H125780   5.161   0.363   2.794
 6265WAT     H225781   5.244   0.332   2.690
 6265WAT    EPW25782   5.173   0.347   2.719
 6266WAT      O25783   4.887   0.294   2.642
 6266WAT     H125784   4.854   0.284   2.723
 6266WAT     H225785   4.973   0.300   2.656
 6266WAT    EPW25786   4.895   0.293   2.656
 6267WAT      O25787   4.898   0.676   3.434
 6267WAT     H125788   4.961   0.699   3.490
 6267WAT     H225789   4.934   0.692   3.356
 6267WAT    EPW25790   4.913   0.681   3.431
 6268WAT      O25791   4.089   1.048   3.646
 6268WAT     H125792   4.030   0.984   3.634
 6268WAT     H225793   4.041   1.115   3.674
 6268WAT    EPW25794   4.073   1.048   3.649
 6269WAT      O25795   5.326   0.976   2.926
 6269WAT     H125796   5.295   1.042   2.973
 6269WAT     H225797   5.392   0.945   2.974
 6269WAT    EPW25798   5.331   0.981   2.940
 6270WAT      O25799   4.938   0.514   3.099
 6270WAT     H125800   4.905   0.442   3.137
 6270WAT     H225801   4.987   0.549   3.162
 6270WAT    EPW25802   4.940   0.509   3.114
 6271WAT      O25803   5.504   0.735   3.851
 6271WAT     H125804   5.586   0.709   3.839
 6271WAT     H225805   5.479   0.690   3.921
 6271WAT    EPW25806   5.512   0.724   3.859
 6272WAT      O25807   5.069   0.661   2.550
 6272WAT     H125808   5.046   0.741   2.523
 6272WAT     H225809   4.998   0.613   2.532
 6272WAT    EPW25810   5.055   0.666   2.543
 6273WAT      O25811   4.496   0.667   2.179
 6273WAT     H125812   4.538   0.656   2.255
 6273WAT     H225813   4.413   0.648   2.199
 6273WAT    EPW25814   4.490   0.662   2.193
 6274WAT      O25815   5.445   0.846   2.542
 6274WAT     H125816   5.417   0.772   2.578
 6274WAT     H225817   5.489   0.819   2.472
 6274WAT    EPW25818   5.448   0.831   2.537
 6275WAT      O25819   4.240   0.572   2.229
 6275WAT     H125820   4.236   0.543   2.312
 6275WAT     H225821   4.247   0.499   2.182
 6275WAT    EPW25822   4.241   0.557   2.235
 6276WAT      O25823   4.522   0.429   2.030
 6276WAT     H125824   4.437   0.406   2.033
 6276WAT     H225825   4.524   0.506   2.071
 6276WAT    EPW25826   4.509   0.437   2.036
 6277WAT      O25827   5.145   0.632   3.249
 6277WAT     H125828   5.177   0.696   3.299
 6277WAT     H225829   5.158   0.661   3.168
 6277WAT    EPW25830   5.152   0.646   3.245
 6278WAT      O25831   5.166   0.999   3.709
 6278WAT     H125832   5.118   0.945   3.661
 6278WAT     H225833   5.121   1.074   3.707
 6278WAT    EPW25834   5.152   1.002   3.702
 6279WAT      O25835   5.699   0.469   3.210
 6279WAT     H125836   5.759   0.422   3.166
 6279WAT     H225837   5.634   0.477   3.152
 6279WAT    EPW25838   5.698   0.463   3.195
 6280WAT      O25839   4.533   0.931   3.655
 6280WAT     H125840   4.518   0.938   3.741
 6280WAT     H225841   4.599   0.874   3.650
 6280WAT    EPW25842   4.541   0.924   3.667
 6281WAT      O25843   5.503   0.786   3.061
 6281WAT     H125844   5.583   0.773   3.029
 6281WAT     H225845   5.472   0.705   3.073
 6281WAT    EPW25846   5.510   0.772   3.058
 6282WAT      O25847   4.243   0.833   3.774
 6282WAT     H125848   4.311   0.864   3.819
 6282WAT     H225849   4.207   0.904   3.739
 6282WAT    EPW25850   4.248   0.848   3.776
 6283WAT      O25851   4.101   0.636   3.482
 6283WAT     H125852   4.050   0.694   3.524
 6283WAT     H225853   4.182   0.663   3.500
 6283WAT    EPW25854   4.105   0.649   3.491
 6284WAT      O25855   4.289   0.907   2.383
 6284WAT     H125856   4.263   0.938   2.306
 6284WAT     H225857   4.375   0.899   2.375
 6284WAT    EPW25858   4.298   0.911   2.371
 6285WAT      O25859   4.644   0.233   2.490
 6285WAT     H125860   4.656   0.241   2.404
 6285WAT     H225861   4.725   0.237   2.522
 6285WAT    EPW25862   4.658   0.235   2.482
 6286WAT      O25863   5.557   1.006   2.044
 6286WAT     H125864   5.630   0.990   2.089
 6286WAT     H225865   5.537   0.928   2.009
 6286WAT    EPW25866   5.565   0.992   2.045
 6287WAT      O25867   5.711   0.395   3.741
 6287WAT     H125868   5.650   0.341   3.772
 6287WAT     H225869   5.706   0.385   3.655
 6287WAT    EPW25870   5.701   0.386   3.733
 6288WAT      O25871   5.222   0.621   2.310
 6288WAT     H125872   5.181   0.613   2.387
 6288WAT     H225873   5.181   0.563   2.259
 6288WAT    EPW25874   5.210   0.611   2.314
 6289WAT      O25875   5.353   0.266   3.927
 6289WAT     H125876   5.427   0.291   3.967
 6289WAT     H225877   5.355   0.309   3.851
 6289WAT    EPW25878   5.364   0.276   3.922
 6290WAT      O25879   4.322   0.863   3.017
 6290WAT     H125880   4.321   0.783   2.983
 6290WAT     H225881   4.276   0.910   2.960
 6290WAT    EPW25882   4.315   0.858   3.003
 6291WAT      O25883   4.888   0.463   2.214
 6291WAT     H125884   4.966   0.437   2.186
 6291WAT     H225885   4.871   0.533   2.164
 6291WAT    EPW25886   4.897   0.469   2.202
 6292WAT      O25887   4.071   1.106   3.371
 6292WAT     H125888   4.079   1.084   3.455
 6292WAT     H225889   4.108   1.039   3.329
 6292WAT    EPW25890   4.078   1.093   3.377
 6293WAT      O25891   3.957   0.395   0.714
 6293WAT     H125892   3.971   0.443   0.786
 6293WAT     H225893   3.910   0.327   0.744
 6293WAT    EPW25894   3.952   0.392   0.729
 6294WAT      O25895   5.612   0.762   0.464
 6294WAT     H125896   5.668   0.699   0.487
 6294WAT     H225897   5.562   0.723   0.404
 6294WAT    EPW25898   5.613   0.747   0.458
 6295WAT      O25899   4.205   0.315   0.231
 6295WAT     H125900   4.189   0.284   0.152
 6295WAT     H225901   4.214   0.244   0.280
 6295WAT    EPW25902   4.204   0.300   0.227
 6296WAT      O25903   4.215   0.475   0.615
 6296WAT     H125904   4.286   0.428   0.636
 6296WAT     H225905   4.149   0.428   0.645
 6296WAT    EPW25906   4.216   0.461   0.623
 6297WAT      O25907   4.133   0.819   0.269
 6297WAT     H125908   4.170   0.827   0.191
 6297WAT     H225909   4.153   0.738   0.294
 6297WAT    EPW25910   4.141   0.808   0.261
 6298WAT      O25911   4.000   0.678   1.344
 6298WAT     H125912   4.038   0.650   1.417
 6298WAT     H225913   3.931   0.625   1.335
 6298WAT    EPW25914   3.995   0.666   1.353
 6299WAT      O25915   4.636   0.452   1.772
 6299WAT     H125916   4.608   0.439   1.854
 6299WAT     H225917   4.569   0.429   1.723
 6299WAT    EPW25918   4.622   0.447   1.777
 6300WAT      O25919   4.611   0.737   1.524
 6300WAT     H125920   4.605   0.816   1.486
 6300WAT     H225921   4.697   0.726   1.533
 6300WAT    EPW25922   4.623   0.747   1.519
 6301WAT      O25923   4.761   0.553   0.950
 6301WAT     H125924   4.782   0.475   0.982
 6301WAT     H225925   4.838   0.594   0.944
 6301WAT    EPW25926   4.776   0.547   0.954
 6302WAT      O25927   4.847   0.528   0.611
 6302WAT     H125928   4.855   0.460   0.665
 6302WAT     H225929   4.860   0.494   0.532
 6302WAT    EPW25930   4.850   0.513   0.607
 6303WAT      O25931   3.976   0.864   0.868
 6303WAT     H125932   3.916   0.912   0.827
 6303WAT     H225933   4.015   0.820   0.804
 6303WAT    EPW25934   3.973   0.865   0.853
 6304WAT      O25935   4.607   0.665   0.566
 6304WAT     H125936   4.567   0.640   0.639
 6304WAT     H225937   4.686   0.630   0.573
 6304WAT    EPW25938   4.612   0.656   0.578
 6305WAT      O25939   5.147   0.865   0.358
 6305WAT     H125940   5.211   0.923   0.347
 6305WAT     H225941   5.189   0.792   0.381
 6305WAT    EPW25942   5.162   0.863   0.360
 6306WAT      O25943   4.977   0.916   0.568
 6306WAT     H125944   5.007   0.989   0.606
 6306WAT     H225945   5.029   0.906   0.499
 6306WAT    EPW25946   4.989   0.926   0.564
 6307WAT      O25947   4.114   0.737   0.657
 6307WAT     H125948   4.163   0.665   0.663
 6307WAT     H225949   4.165   0.792   0.611
 6307WAT    EPW25950   4.129   0.734   0.651
 6308WAT      O25951   5.224   0.911   1.363
 6308WAT     H125952   5.295   0.961   1.354
 6308WAT     H225953   5.208   0.882   1.282
 6308WAT    EPW25954   5.232   0.914   1.350
 6309WAT      O25955   4.288   0.599   0.980
 6309WAT     H125956   4.355   0.586   0.926
 6309WAT     H225957   4.304   0.544   1.046
 6309WAT    EPW25958   4.300   0.589   0.982
 6310WAT      O25959   4.548   0.856   0.876
 6310WAT     H125960   4.626   0.885   0.850
 6310WAT     H225961   4.493   0.913   0.839
 6310WAT    EPW25962   4.551   0.869   0.866
 6311WAT      O25963   5.355   1.060   0.331
 6311WAT     H125964   5.402   1.018   0.270
 6311WAT     H225965   5.413   1.114   0.368
 6311WAT    EPW25966   5.371   1.062   0.327
 6312WAT      O25967   4.445   0.977   1.484
 6312WAT     H125968   4.459   0.972   1.570
 6312WAT     H225969   4.370   0.935   1.473
 6312WAT    EPW25970   4.436   0.970   1.495
 6313WAT      O25971   5.111   0.732   1.692
 6313WAT     H125972   5.090   0.682   1.760
 6313WAT     H225973   5.197   0.722   1.686
 6313WAT    EPW25974   5.120   0.723   1.702
 6314WAT      O25975   4.926   0.705   0.260
 6314WAT     H125976   4.864   0.765   0.265
 6314WAT     H225977   5.000   0.751   0.272
 6314WAT    EPW25978   4.928   0.721   0.262
 6315WAT      O25979   4.206   0.865   1.369
 6315WAT     H125980   4.138   0.810   1.364
 6315WAT     H225981   4.244   0.858   1.291
 6315WAT    EPW25982   4.202   0.856   1.357
 6316WAT      O25983   4.984   0.987   1.473
 6316WAT     H125984   5.061   0.967   1.438
 6316WAT     H225985   4.927   0.964   1.411
 6316WAT    EPW25986   4.987   0.981   1.459
 6317WAT      O25987   5.673   1.008   0.726
 6317WAT     H125988   5.633   1.083   0.742
 6317WAT     H225989   5.607   0.952   0.713
 6317WAT    EPW25990   5.657   1.011   0.727
 6318WAT      O25991   5.358   0.610   0.779
 6318WAT     H125992   5.398   0.533   0.777
 6318WAT     H225993   5.274   0.590   0.773
 6318WAT    EPW25994   5.352   0.596   0.778
 6319WAT      O25995   4.370   0.670   1.661
 6319WAT     H125996   4.443   0.704   1.628
 6319WAT     H225997   4.353   0.720   1.730
 6319WAT    EPW25998   4.378   0.682   1.666
 6320WAT      O25999   4.525   0.229   1.141
 6320WAT     H126000   4.546   0.236   1.226
 6320WAT     H226001   4.490   0.149   1.135
 6320WAT    EPW26002   4.523   0.218   1.153
 6321WAT      O26003   4.589   0.312   1.403
 6321WAT     H126004   4.584   0.394   1.376
 6321WAT     H226005   4.536   0.310   1.472
 6321WAT    EPW26006   4.581   0.324   1.409
 6322WAT      O26007   5.264   0.370   1.366
 6322WAT     H126008   5.202   0.325   1.408
 6322WAT     H226009   5.239   0.453   1.376
 6322WAT    EPW26010   5.251   0.376   1.374
 6323WAT      O26011   3.875   0.663   1.920
 6323WAT     H126012   3.934   0.671   1.984
 6323WAT     H226013   3.867   0.577   1.909
 6323WAT    EPW26014   3.883   0.652   1.928
 6324WAT      O26015   5.541   0.385   0.300
 6324WAT     H126016   5.528   0.339   0.373
 6324WAT     H226017   5.627   0.381   0.289
 6324WAT    EPW26018   5.552   0.377   0.309
 6325WAT      O26019   4.233   0.161   0.803
 6325WAT     H126020   4.305   0.193   0.765
 6325WAT     H226021   4.222   0.084   0.763
 6325WAT    EPW26022   4.242   0.155   0.791
 6326WAT      O26023   4.182   1.022   0.962
 6326WAT     H126024   4.109   0.982   0.934
 6326WAT     H226025   4.232   1.024   0.890
 6326WAT    EPW26026   4.179   1.016   0.947
 6327WAT      O26027   5.815   0.810   1.695
 6327WAT     H126028   5.740   0.813   1.649
 6327WAT     H226029   5.793   0.765   1.767
 6327WAT    EPW26030   5.800   0.804   1.699
 6328WAT      O26031   4.446   0.335   0.678
 6328WAT     H126032   4.483   0.399   0.725
 6328WAT     H226033   4.503   0.322   0.614
 6328WAT    EPW26034   4.460   0.343   0.676
 6329WAT      O26035   4.022   0.523   0.949
 6329WAT     H126036   3.971   0.580   0.992
 6329WAT     H226037   4.101   0.559   0.955
 6329WAT    EPW26038   4.026   0.537   0.956
 6330WAT      O26039   4.980   0.729   0.921
 6330WAT     H126040   4.929   0.796   0.898
 6330WAT     H226041   5.018   0.707   0.845
 6330WAT    EPW26042   4.978   0.736   0.906
 6331WAT      O26043   3.928   0.584   0.516
 6331WAT     H126044   3.986   0.639   0.551
 6331WAT     H226045   3.921   0.521   0.576
 6331WAT    EPW26046   3.935   0.583   0.530
 6332WAT      O26047   4.338   0.433   1.192
 6332WAT     H126048   4.391   0.482   1.241
 6332WAT     H226049   4.389   0.367   1.165
 6332WAT    EPW26050   4.353   0.430   1.195
 6333WAT      O26051   3.936   0.395   0.308
 6333WAT     H126052   4.019   0.379   0.285
 6333WAT     H226053   3.943   0.460   0.365
 6333WAT    EPW26054   3.950   0.402   0.313
 6334WAT      O26055   4.052   0.250   1.001
 6334WAT     H126056   4.111   0.220   0.945
 6334WAT     H226057   4.052   0.336   0.987
 6334WAT    EPW26058   4.061   0.259   0.991
 6335WAT      O26059   5.567   0.827   1.555
 6335WAT     H126060   5.523   0.902   1.563
 6335WAT     H226061   5.563   0.811   1.469
 6335WAT    EPW26062   5.560   0.836   1.543
 6336WAT      O26063   4.519   0.589   0.820
 6336WAT     H126064   4.518   0.675   0.834
 6336WAT     H226065   4.595   0.564   0.855
 6336WAT    EPW26066   4.530   0.598   0.827
 6337WAT      O26067   4.786   0.899   1.298
 6337WAT     H126068   4.749   0.839   1.246
 6337WAT     H226069   4.771   0.974   1.256
 6337WAT    EPW26070   4.778   0.901   1.284
 6338WAT      O26071   5.337   0.410   1.782
 6338WAT     H126072   5.362   0.490   1.758
 6338WAT     H226073   5.365   0.360   1.716
 6338WAT    EPW26074   5.345   0.414   1.769
 6339WAT      O26075   4.731   0.721   1.813
 6339WAT     H126076   4.765   0.710   1.893
 6339WAT     H226077   4.700   0.642   1.793
 6339WAT    EPW26078   4.731   0.708   1.822
 6340WAT      O26079   5.464   0.347   0.772
 6340WAT     H126080   5.532   0.318   0.819
 6340WAT     H226081   5.479   0.314   0.692
 6340WAT    EPW26082   5.476   0.338   0.767
 6341WAT      O26083   5.179   0.775   1.116
 6341WAT     H126084   5.114   0.758   1.059
 6341WAT     H226085   5.223   0.840   1.078
 6341WAT    EPW26086   5.176   0.782   1.102
 6342WAT      O26087   5.165   0.411   1.099
 6342WAT     H126088   5.092   0.454   1.120
 6342WAT     H226089   5.190   0.374   1.174
 6342WAT    EPW26090   5.158   0.412   1.113
 6343WAT      O26091   4.541   0.920   0.464
 6343WAT     H126092   4.558   0.845   0.506
 6343WAT     H226093   4.611   0.932   0.414
 6343WAT    EPW26094   4.554   0.910   0.463
 6344WAT      O26095   4.791   0.938   0.353
 6344WAT     H126096   4.836   0.921   0.426
 6344WAT     H226097   4.809   1.022   0.336
 6344WAT    EPW26098   4.800   0.948   0.361
 6345WAT      O26099   5.439   0.265   1.572
 6345WAT     H126100   5.406   0.296   1.497
 6345WAT     H226101   5.524   0.277   1.563
 6345WAT    EPW26102   5.446   0.271   1.559
 6346WAT      O26103   5.097   0.820   2.004
 6346WAT     H126104   5.122   0.852   2.082
 6346WAT     H226105   5.135   0.875   1.947
 6346WAT    EPW26106   5.106   0.833   2.007
 6347WAT      O26107   5.051   0.252   1.509
 6347WAT     H126108   5.005   0.306   1.560
 6347WAT     H226109   5.074   0.187   1.563
 6347WAT    EPW26110   5.048   0.250   1.524
 6348WAT      O26111   5.458   0.497   1.192
 6348WAT     H126112   5.411   0.512   1.120
 6348WAT     H226113   5.404   0.449   1.241
 6348WAT    EPW26114   5.443   0.492   1.188
 6349WAT      O26115   4.786   0.285   1.033
 6349WAT     H126116   4.702   0.265   1.048
 6349WAT     H226117   4.824   0.275   1.110
 6349WAT    EPW26118   4.779   0.281   1.046
 6350WAT      O26119   4.085   0.335   1.268
 6350WAT     H126120   4.160   0.377   1.251
 6350WAT     H226121   4.073   0.285   1.198
 6350WAT    EPW26122   4.095   0.334   1.255
 6351WAT      O26123   5.764   0.933   0.312
 6351WAT     H126124   5.839   0.892   0.295
 6351WAT     H226125   5.721   0.877   0.365
 6351WAT    EPW26126   5.768   0.918   0.317
 6352WAT      O26127   4.121   0.334   1.550
 6352WAT     H126128   4.113   0.325   1.463
 6352WAT     H226129   4.111   0.420   1.562
 6352WAT    EPW26130   4.118   0.346   1.539
 6353WAT      O26131   5.696   0.210   0.876
 6353WAT     H126132   5.668   0.129   0.893
 6353WAT     H226133   5.767   0.219   0.925
 6353WAT    EPW26134   5.702   0.200   0.886
 6354WAT      O26135   5.765   0.721   1.091
 6354WAT     H126136   5.790   0.778   1.029
 6354WAT     H226137   5.822   0.735   1.156
 6354WAT    EPW26138   5.777   0.732   1.092
 6355WAT      O26139   5.457   0.647   0.270
 6355WAT     H126140   5.487   0.565   0.265
 6355WAT     H226141   5.385   0.640   0.319
 6355WAT    EPW26142   5.450   0.634   0.277
 6356WAT      O26143   5.717   0.338   1.572
 6356WAT     H126144   5.801   0.315   1.575
 6356WAT     H226145   5.711   0.384   1.498
 6356WAT    EPW26146   5.729   0.341   1.561
 6357WAT      O26147   5.143   0.421   0.246
 6357WAT     H126148   5.213   0.375   0.222
 6357WAT     H226149   5.122   0.465   0.174
 6357WAT    EPW26150   5.150   0.421   0.232
 6358WAT      O26151   4.543   0.570   1.317
 6358WAT     H126152   4.558   0.620   1.388
 6358WAT     H226153   4.574   0.619   1.252
 6358WAT    EPW26154   4.550   0.585   1.318
 6359WAT      O26155   4.402   0.393   1.613
 6359WAT     H126156   4.323   0.359   1.598
 6359WAT     H226157   4.386   0.478   1.623
 6359WAT    EPW26158   4.388   0.401   1.612
 6360WAT      O26159   4.854   0.279   1.309
 6360WAT     H126160   4.913   0.255   1.369
 6360WAT     H226161   4.779   0.280   1.353
 6360WAT    EPW26162   4.852   0.276   1.325
 6361WAT      O26163   4.812   0.933   0.814
 6361WAT     H126164   4.814   1.017   0.836
 6361WAT     H226165   4.843   0.932   0.732
 6361WAT    EPW26166   4.817   0.945   0.805
 6362WAT      O26167   4.643   0.735   1.120
 6362WAT     H126168   4.601   0.783   1.061
 6362WAT     H226169   4.689   0.678   1.072
 6362WAT    EPW26170   4.643   0.734   1.104
 6363WAT      O26171   5.079   0.497   1.853
 6363WAT     H126172   5.154   0.464   1.821
 6363WAT     H226173   5.019   0.468   1.798
 6363WAT    EPW26174   5.081   0.488   1.840
 6364WAT      O26175   5.387   0.677   1.709
 6364WAT     H126176   5.416   0.706   1.786
 6364WAT     H226177   5.442   0.713   1.651
 6364WAT    EPW26178   5.400   0.687   1.712
 6365WAT      O26179   4.846   0.961   1.713
 6365WAT     H126180   4.896   0.953   1.641
 6365WAT     H226181   4.829   0.878   1.735
 6365WAT    EPW26182   4.851   0.947   1.705
 6366WAT      O26183   5.518   0.214   0.528
 6366WAT     H126184   5.594   0.171   0.527
 6366WAT     H226185   5.458   0.151   0.516
 6366WAT    EPW26186   5.520   0.198   0.526
 6367WAT      O26187   4.892   0.431   1.653
 6367WAT     H126188   4.814   0.424   1.691
 6367WAT     H226189   4.888   0.505   1.608
 6367WAT    EPW26190   4.880   0.441   1.652
 6368WAT      O26191   4.466   1.056   1.211
 6368WAT     H126192   4.465   1.045   1.297
 6368WAT     H226193   4.433   0.982   1.179
 6368WAT    EPW26194   4.461   1.044   1.219
 6369WAT      O26195   5.182   0.361   0.827
 6369WAT     H126196   5.180   0.376   0.913
 6369WAT     H226197   5.266   0.342   0.811
 6369WAT    EPW26198   5.195   0.361   0.837
 6370WAT      O26199   4.911   0.313   0.773
 6370WAT     H126200   4.877   0.292   0.851
 6370WAT     H226201   4.996   0.319   0.788
 6370WAT    EPW26202   4.918   0.311   0.787
 6371WAT      O26203   4.892   0.681   1.522
 6371WAT     H126204   4.962   0.706   1.568
 6371WAT     H226205   4.903   0.719   1.445
 6371WAT    EPW26206   4.904   0.691   1.518
 6372WAT      O26207   4.084   1.016   1.735
 6372WAT     H126208   4.036   0.945   1.718
 6372WAT     H226209   4.025   1.078   1.751
 6372WAT    EPW26210   4.068   1.015   1.735
 6373WAT      O26211   5.302   1.022   1.059
 6373WAT     H126212   5.242   1.084   1.075
 6373WAT     H226213   5.362   1.034   1.121
 6373WAT    EPW26214   5.302   1.033   1.070
 6374WAT      O26215   4.942   0.528   1.222
 6374WAT     H126216   4.908   0.457   1.258
 6374WAT     H226217   4.996   0.559   1.283
 6374WAT    EPW26218   4.945   0.522   1.236
 6375WAT      O26219   5.509   0.752   1.947
 6375WAT     H126220   5.591   0.724   1.936
 6375WAT     H226221   5.480   0.707   2.015
 6375WAT    EPW26222   5.517   0.741   1.955
 6376WAT      O26223   5.075   0.670   0.664
 6376WAT     H126224   5.050   0.749   0.637
 6376WAT     H226225   5.005   0.620   0.649
 6376WAT    EPW26226   5.061   0.674   0.658
 6377WAT      O26227   4.499   0.613   0.308
 6377WAT     H126228   4.539   0.627   0.384
 6377WAT     H226229   4.414   0.616   0.329
 6377WAT    EPW26230   4.492   0.616   0.322
 6378WAT      O26231   5.451   0.848   0.673
 6378WAT     H126232   5.423   0.774   0.711
 6378WAT     H226233   5.491   0.820   0.601
 6378WAT    EPW26234   5.453   0.833   0.668
 6379WAT      O26235   4.226   0.571   0.354
 6379WAT     H126236   4.220   0.545   0.437
 6379WAT     H226237   4.221   0.496   0.309
 6379WAT    EPW26238   4.224   0.556   0.360
 6380WAT      O26239   4.490   0.354   0.212
 6380WAT     H126240   4.403   0.349   0.213
 6380WAT     H226241   4.506   0.438   0.229
 6380WAT    EPW26242   4.480   0.365   0.215
 6381WAT      O26243   5.172   0.629   1.354
 6381WAT     H126244   5.194   0.697   1.404
 6381WAT     H226245   5.182   0.659   1.273
 6381WAT    EPW26246   5.177   0.643   1.349
 6382WAT      O26247   5.191   0.991   1.793
 6382WAT     H126248   5.140   0.935   1.749
 6382WAT     H226249   5.141   1.062   1.800
 6382WAT    EPW26250   5.176   0.993   1.788
 6383WAT      O26251   5.711   0.459   1.323
 6383WAT     H126252   5.775   0.418   1.279
 6383WAT     H226253   5.647   0.466   1.264
 6383WAT    EPW26254   5.711   0.454   1.307
 6384WAT      O26255   4.533   0.930   1.754
 6384WAT     H126256   4.517   0.939   1.839
 6384WAT     H226257   4.596   0.869   1.751
 6384WAT    EPW26258   4.540   0.922   1.766
 6385WAT      O26259   5.549   0.753   1.281
 6385WAT     H126260   5.609   0.760   1.219
 6385WAT     H226261   5.508   0.678   1.261
 6385WAT    EPW26262   5.552   0.743   1.269
 6386WAT      O26263   4.246   0.822   1.877
 6386WAT     H126264   4.313   0.858   1.920
 6386WAT     H226265   4.208   0.890   1.838
 6386WAT    EPW26266   4.250   0.837   1.878
 6387WAT      O26267   4.110   0.608   1.584
 6387WAT     H126268   4.055   0.664   1.622
 6387WAT     H226269   4.189   0.639   1.604
 6387WAT    EPW26270   4.113   0.621   1.592
 6388WAT      O26271   4.268   0.909   0.500
 6388WAT     H126272   4.227   0.897   0.424
 6388WAT     H226273   4.352   0.912   0.477
 6388WAT    EPW26274   4.275   0.907   0.485
 6389WAT      O26275   4.622   0.312   0.455
 6389WAT     H126276   4.580   0.313   0.378
 6389WAT     H226277   4.702   0.340   0.435
 6389WAT    EPW26278   4.627   0.316   0.440
 6390WAT      O26279   5.520   0.908   0.165
 6390WAT     H126280   5.601   0.917   0.197
 6390WAT     H226281   5.501   0.825   0.180
 6390WAT    EPW26282   5.529   0.897   0.172
 6391WAT      O26283   5.703   0.404   1.844
 6391WAT     H126284   5.644   0.348   1.875
 6391WAT     H226285   5.703   0.388   1.759
 6391WAT    EPW26286   5.694   0.393   1.836
 6392WAT      O26287   5.233   0.615   0.432
 6392WAT     H126288   5.197   0.614   0.511
 6392WAT     H226289   5.194   0.549   0.390
 6392WAT    EPW26290   5.222   0.605   0.438
 6393WAT      O26291   5.351   0.269   2.027
 6393WAT     H126292   5.425   0.294   2.065
 6393WAT     H226293   5.353   0.310   1.949
 6393WAT    EPW26294   5.362   0.279   2.021
 6394WAT      O26295   4.314   0.841   1.117
 6394WAT     H126296   4.310   0.765   1.074
 6394WAT     H226297   4.269   0.896   1.066
 6394WAT    EPW26298   4.307   0.838   1.103
 6395WAT      O26299   4.876   0.443   0.353
 6395WAT     H126300   4.952   0.408   0.328
 6395WAT     H226301   4.876   0.522   0.317
 6395WAT    EPW26302   4.887   0.449   0.344
 6396WAT      O26303   4.073   1.089   1.461
 6396WAT     H126304   4.074   1.064   1.545
 6396WAT     H226305   4.113   1.023   1.420
 6396WAT    EPW26306   4.079   1.076   1.467
 6397WAT      O26307   3.151   6.677   6.387
 6397WAT     H126308   3.153   6.723   6.313
 6397WAT     H226309   3.236   6.662   6.404
 6397WAT    EPW26310   3.164   6.682   6.379
 6398WAT      O26311   3.099   7.312   6.807
 6398WAT     H126312   3.076   7.391   6.835
 6398WAT     H226313   3.153   7.283   6.868
 6398WAT    EPW26314   3.103   7.319   6.820
 6399WAT      O26315   2.089   7.146   6.054
 6399WAT     H126316   2.008   7.158   6.023
 6399WAT     H226317   2.081   7.075   6.104
 6399WAT    EPW26318   2.076   7.137   6.057
 6400WAT      O26319   3.385   7.474   6.475
 6400WAT     H126320   3.386   7.474   6.388
 6400WAT     H226321   3.323   7.415   6.495
 6400WAT    EPW26322   3.376   7.465   6.465
 6401WAT      O26323   2.796   6.784   6.254
 6401WAT     H126324   2.794   6.852   6.199
 6401WAT     H226325   2.874   6.747   6.239
 6401WAT    EPW26326   2.807   6.788   6.244
 6402WAT      O26327   2.283   7.573   6.394
 6402WAT     H126328   2.229   7.523   6.346
 6402WAT     H226329   2.337   7.515   6.430
 6402WAT    EPW26330   2.283   7.557   6.392
 6403WAT      O26331   2.698   7.116   7.017
 6403WAT     H126332   2.767   7.119   6.963
 6403WAT     H226333   2.675   7.031   7.016
 6403WAT    EPW26334   2.705   7.104   7.009
 6404WAT      O26335   2.420   7.361   6.523
 6404WAT     H126336   2.493   7.313   6.531
 6404WAT     H226337   2.359   7.302   6.506
 6404WAT    EPW26338   2.422   7.345   6.522
 6405WAT      O26339   3.096   7.321   7.474
 6405WAT     H126340   3.010   7.312   7.480
 6405WAT     H226341   3.106   7.372   7.403
 6405WAT    EPW26342   3.085   7.327   7.464
 6406WAT      O26343   2.530   6.828   6.354
 6406WAT     H126344   2.490   6.883   6.298
 6406WAT     H226345   2.611   6.823   6.322
 6406WAT    EPW26346   2.536   6.836   6.341
 6407WAT      O26347   3.529   6.586   7.330
 6407WAT     H126348   3.512   6.653   7.277
 6407WAT     H226349   3.453   6.571   7.370
 6407WAT    EPW26350   3.515   6.594   7.328
 6408WAT      O26351   2.835   6.750   6.530
 6408WAT     H126352   2.841   6.834   6.552
 6408WAT     H226353   2.809   6.752   6.447
 6408WAT    EPW26354   2.832   6.763   6.521
 6409WAT      O26355   3.255   6.995   5.799
 6409WAT     H126356   3.210   7.061   5.834
 6409WAT     H226357   3.270   6.941   5.866
 6409WAT    EPW26358   3.251   6.997   5.814
 6410WAT      O26359   2.088   7.231   6.734
 6410WAT     H126360   2.135   7.300   6.760
 6410WAT     H226361   2.024   7.226   6.793
 6410WAT    EPW26362   2.085   7.241   6.747
 6411WAT      O26363   2.406   6.782   6.770
 6411WAT     H126364   2.356   6.715   6.743
 6411WAT     H226365   2.465   6.744   6.823
 6411WAT    EPW26366   2.407   6.766   6.774
 6412WAT      O26367   3.835   6.967   6.488
 6412WAT     H126368   3.784   7.037   6.503
 6412WAT     H226369   3.778   6.901   6.481
 6412WAT    EPW26370   3.819   6.968   6.489
 6413WAT      O26371   2.298   6.941   7.564
 6413WAT     H126372   2.223   6.896   7.567
 6413WAT     H226373   2.351   6.889   7.519
 6413WAT    EPW26374   2.294   6.927   7.557
 6414WAT      O26375   2.975   6.763   7.491
 6414WAT     H126376   2.974   6.676   7.492
 6414WAT     H226377   2.892   6.785   7.478
 6414WAT    EPW26378   2.963   6.754   7.489
 6415WAT      O26379   2.994   7.205   6.405
 6415WAT     H126380   3.022   7.162   6.335
 6415WAT     H226381   3.067   7.226   6.447
 6415WAT    EPW26382   3.009   7.202   6.401
 6416WAT      O26383   3.097   7.196   5.926
 6416WAT     H126384   3.105   7.275   5.961
 6416WAT     H226385   3.017   7.197   5.890
 6416WAT    EPW26386   3.086   7.208   5.925
 6417WAT      O26387   3.747   6.894   6.912
 6417WAT     H126388   3.809   6.881   6.851
 6417WAT     H226389   3.767   6.835   6.973
 6417WAT    EPW26390   3.759   6.883   6.912
 6418WAT      O26391   2.004   6.960   7.310
 6418WAT     H126392   1.994   7.027   7.364
 6418WAT     H226393   2.070   6.984   7.258
 6418WAT    EPW26394   2.012   6.973   7.310
 6419WAT      O26395   3.308   6.820   6.007
 6419WAT     H126396   3.359   6.750   6.011
 6419WAT     H226397   3.331   6.866   6.078
 6419WAT    EPW26398   3.319   6.817   6.018
 6420WAT      O26399   2.112   6.939   6.250
 6420WAT     H126400   2.094   6.855   6.240
 6420WAT     H226401   2.071   6.960   6.324
 6420WAT    EPW26402   2.103   6.930   6.260
 6421WAT      O26403   3.077   7.072   6.174
 6421WAT     H126404   3.017   7.012   6.157
 6421WAT     H226405   3.085   7.116   6.099
 6421WAT    EPW26406   3.069   7.070   6.161
 6422WAT      O26407   3.065   6.761   6.126
 6422WAT     H126408   3.008   6.747   6.061
 6422WAT     H226409   3.139   6.780   6.085
 6422WAT    EPW26410   3.068   6.762   6.111
 6423WAT      O26411   2.876   7.021   6.577
 6423WAT     H126412   2.908   7.083   6.524
 6423WAT     H226413   2.884   7.056   6.656
 6423WAT    EPW26414   2.882   7.036   6.581
 6424WAT      O26415   2.464   6.571   6.436
 6424WAT     H126416   2.483   6.654   6.415
 6424WAT     H226417   2.436   6.537   6.361
 6424WAT    EPW26418   2.462   6.578   6.422
 6425WAT      O26419   3.230   6.968   7.142
 6425WAT     H126420   3.233   7.005   7.221
 6425WAT     H226421   3.166   6.909   7.150
 6425WAT    EPW26422   3.221   6.965   7.155
 6426WAT      O26423   3.411   6.609   6.473
 6426WAT     H126424   3.412   6.594   6.559
 6426WAT     H226425   3.448   6.538   6.439
 6426WAT    EPW26426   3.416   6.596   6.480
 6427WAT      O26427   3.607   7.019   7.271
 6427WAT     H126428   3.693   7.007   7.275
 6427WAT     H226429   3.581   7.015   7.355
 6427WAT    EPW26430   3.616   7.017   7.284
 6428WAT      O26431   2.405   6.966   6.565
 6428WAT     H126432   2.438   6.916   6.501
 6428WAT     H226433   2.403   6.913   6.634
 6428WAT    EPW26434   2.410   6.951   6.565
 6429WAT      O26435   2.249   7.057   6.874
 6429WAT     H126436   2.331   7.078   6.853
 6429WAT     H226437   2.201   7.113   6.828
 6429WAT    EPW26438   2.254   7.068   6.864
 6430WAT      O26439   3.504   7.442   5.946
 6430WAT     H126440   3.524   7.526   5.940
 6430WAT     H226441   3.467   7.436   6.025
 6430WAT    EPW26442   3.501   7.453   5.957
 6431WAT      O26443   3.920   6.832   5.854
 6431WAT     H126444   3.886   6.757   5.884
 6431WAT     H226445   3.850   6.884   5.846
 6431WAT    EPW26446   3.904   6.829   5.857
 6432WAT      O26447   3.918   7.244   7.184
 6432WAT     H126448   3.989   7.195   7.168
 6432WAT     H226449   3.869   7.232   7.113
 6432WAT    EPW26450   3.921   7.235   7.171
 6433WAT      O26451   3.648   6.789   6.158
 6433WAT     H126452   3.730   6.760   6.167
 6433WAT     H226453   3.658   6.867   6.120
 6433WAT    EPW26454   3.662   6.796   6.153
 6434WAT      O26455   3.367   7.037   6.608
 6434WAT     H126456   3.399   7.002   6.681
 6434WAT     H226457   3.303   6.981   6.585
 6434WAT    EPW26458   3.362   7.023   6.615
 6435WAT      O26459   2.817   6.983   6.070
 6435WAT     H126460   2.793   6.965   5.988
 6435WAT     H226461   2.793   7.066   6.081
 6435WAT    EPW26462   2.810   6.993   6.059
 6436WAT      O26463   2.407   7.204   7.537
 6436WAT     H126464   2.369   7.127   7.554
 6436WAT     H226465   2.404   7.210   7.450
 6436WAT    EPW26466   2.401   7.193   7.527
 6437WAT      O26467   2.456   7.231   6.043
 6437WAT     H126468   2.435   7.176   6.107
 6437WAT     H226469   2.401   7.210   5.979
 6437WAT    EPW26470   2.445   7.219   6.043
 6438WAT      O26471   2.312   7.392   6.787
 6438WAT     H126472   2.337   7.415   6.706
 6438WAT     H226473   2.367   7.328   6.809
 6438WAT    EPW26474   2.324   7.386   6.778
 6439WAT      O26475   2.453   7.390   7.055
 6439WAT     H126476   2.494   7.342   6.994
 6439WAT     H226477   2.391   7.431   7.010
 6439WAT    EPW26478   2.450   7.389   7.039
 6440WAT      O26479   3.515   7.214   6.883
 6440WAT     H126480   3.440   7.232   6.925
 6440WAT     H226481   3.517   7.273   6.819
 6440WAT    EPW26482   3.504   7.225   6.880
 6441WAT      O26483   3.063   6.759   7.225
 6441WAT     H126484   3.088   6.676   7.214
 6441WAT     H226485   3.043   6.763   7.310
 6441WAT    EPW26486   3.064   6.747   7.236
 6442WAT      O26487   3.332   6.971   6.234
 6442WAT     H126488   3.387   7.038   6.247
 6442WAT     H226489   3.254   7.009   6.225
 6442WAT    EPW26490   3.329   6.987   6.235
 6443WAT      O26491   2.905   7.113   6.833
 6443WAT     H126492   2.968   7.173   6.832
 6443WAT     H226493   2.944   7.043   6.867
 6443WAT    EPW26494   2.920   7.111   6.838
 6444WAT      O26495   3.112   7.429   6.082
 6444WAT     H126496   3.103   7.506   6.042
 6444WAT     H226497   3.044   7.425   6.136
 6444WAT    EPW26498   3.101   7.440   6.084
 6445WAT      O26499   2.613   6.669   5.996
 6445WAT     H126500   2.616   6.655   6.082
 6445WAT     H226501   2.560   6.738   5.989
 6445WAT    EPW26502   2.605   6.677   6.008
 6446WAT      O26503   3.717   6.638   7.534
 6446WAT     H126504   3.659   6.623   7.470
 6446WAT     H226505   3.669   6.634   7.606
 6446WAT    EPW26506   3.701   6.635   7.535
 6447WAT      O26507   2.036   6.664   6.229
 6447WAT     H126508   2.033   6.609   6.161
 6447WAT     H226509   2.008   6.616   6.296
 6447WAT    EPW26510   2.031   6.649   6.228
 6448WAT      O26511   2.894   7.418   6.257
 6448WAT     H126512   2.864   7.482   6.309
 6448WAT     H226513   2.917   7.356   6.313
 6448WAT    EPW26514   2.893   7.418   6.273
 6449WAT      O26515   2.459   6.892   5.947
 6449WAT     H126516   2.396   6.889   5.886
 6449WAT     H226517   2.524   6.934   5.906
 6449WAT    EPW26518   2.459   6.898   5.932
 6450WAT      O26519   2.610   7.150   6.587
 6450WAT     H126520   2.686   7.108   6.577
 6450WAT     H226521   2.550   7.087   6.575
 6450WAT    EPW26522   2.612   7.135   6.584
 6451WAT      O26523   2.121   7.328   6.274
 6451WAT     H126524   2.147   7.276   6.339
 6451WAT     H226525   2.132   7.279   6.202
 6451WAT    EPW26526   2.127   7.313   6.273
 6452WAT      O26527   2.595   7.349   5.816
 6452WAT     H126528   2.558   7.329   5.893
 6452WAT     H226529   2.527   7.359   5.762
 6452WAT    EPW26530   2.579   7.348   5.820
 6453WAT      O26531   2.735   7.242   6.099
 6453WAT     H126532   2.766   7.309   6.147
 6453WAT     H226533   2.649   7.256   6.098
 6453WAT    EPW26534   2.727   7.254   6.106
 6454WAT      O26535   3.492   6.994   7.535
 6454WAT     H126536   3.478   7.042   7.606
 6454WAT     H226537   3.434   6.929   7.543
 6454WAT    EPW26538   3.481   6.991   7.547
 6455WAT      O26539   2.065   6.870   6.734
 6455WAT     H126540   2.047   6.907   6.658
 6455WAT     H226541   2.139   6.908   6.760
 6455WAT    EPW26542   2.073   6.881   6.727
 6456WAT      O26543   3.354   7.305   7.594
 6456WAT     H126544   3.348   7.328   7.678
 6456WAT     H226545   3.276   7.325   7.562
 6456WAT    EPW26546   3.342   7.312   7.602
 6457WAT      O26547   3.601   7.388   7.479
 6457WAT     H126548   3.607   7.474   7.490
 6457WAT     H226549   3.524   7.367   7.515
 6457WAT    EPW26550   3.591   7.397   7.486
 6458WAT      O26551   3.612   7.142   6.529
 6458WAT     H126552   3.542   7.098   6.556
 6458WAT     H226553   3.608   7.218   6.572
 6458WAT    EPW26554   3.601   7.147   6.539
 6459WAT      O26555   3.460   6.810   7.168
 6459WAT     H126556   3.512   6.876   7.191
 6459WAT     H226557   3.384   6.849   7.151
 6459WAT    EPW26558   3.456   6.825   7.169
 6460WAT      O26559   2.693   7.095   7.297
 6460WAT     H126560   2.701   7.010   7.317
 6460WAT     H226561   2.709   7.098   7.211
 6460WAT    EPW26562   2.697   7.083   7.288
 6461WAT      O26563   3.556   6.615   6.996
 6461WAT     H126564   3.518   6.683   7.036
 6461WAT     H226565   3.639   6.620   7.020
 6461WAT    EPW26566   3.563   6.626   7.005
 6462WAT      O26567   2.802   6.686   7.150
 6462WAT     H126568   2.882   6.720   7.154
 6462WAT     H226569   2.813   6.612   7.106
 6462WAT    EPW26570   2.815   6.680   7.144
 6463WAT      O26571   3.731   7.274   5.928
 6463WAT     H126572   3.786   7.317   5.876
 6463WAT     H226573   3.658   7.321   5.925
 6463WAT    EPW26574   3.728   7.287   5.920
 6464WAT      O26575   2.503   7.193   6.841
 6464WAT     H126576   2.542   7.184   6.764
 6464WAT     H226577   2.562   7.163   6.898
 6464WAT    EPW26578   2.517   7.187   6.838
 6465WAT      O26579   3.246   7.099   7.393
 6465WAT     H126580   3.184   7.148   7.430
 6465WAT     H226581   3.317   7.116   7.440
 6465WAT    EPW26582   3.247   7.109   7.405
 6466WAT      O26583   3.260   7.208   7.000
 6466WAT     H126584   3.262   7.257   7.073
 6466WAT     H226585   3.248   7.127   7.029
 6466WAT    EPW26586   3.258   7.204   7.015
 6467WAT      O26587   3.508   7.191   6.277
 6467WAT     H126588   3.531   7.173   6.359
 6467WAT     H226589   3.577   7.234   6.245
 6467WAT    EPW26590   3.521   7.195   6.284
 6468WAT      O26591   2.821   6.682   6.806
 6468WAT     H126592   2.739   6.661   6.828
 6468WAT     H226593   2.816   6.692   6.719
 6468WAT    EPW26594   2.808   6.680   6.796
 6469WAT      O26595   3.635   6.775   6.437
 6469WAT     H126596   3.558   6.739   6.458
 6469WAT     H226597   3.626   6.790   6.351
 6469WAT    EPW26598   3.622   6.772   6.427
 6470WAT      O26599   2.076   6.766   7.497
 6470WAT     H126600   2.053   6.827   7.438
 6470WAT     H226601   1.999   6.734   7.524
 6470WAT    EPW26602   2.061   6.771   7.492
 6471WAT      O26603   2.385   6.999   6.193
 6471WAT     H126604   2.395   6.964   6.114
 6471WAT     H226605   2.301   6.984   6.211
 6471WAT    EPW26606   2.374   6.992   6.184
 6472WAT      O26607   3.812   7.201   7.438
 6472WAT     H126608   3.754   7.263   7.459
 6472WAT     H226609   3.850   7.233   7.365
 6472WAT    EPW26610   3.809   7.215   7.430
 6473WAT      O26611   3.279   7.334   7.241
 6473WAT     H126612   3.268   7.260   7.285
 6473WAT     H226613   3.366   7.339   7.231
 6473WAT    EPW26614   3.290   7.324   7.246
 6474WAT      O26615   2.430   7.192   7.253
 6474WAT     H126616   2.441   7.263   7.203
 6474WAT     H226617   2.512   7.165   7.268
 6474WAT    EPW26618   2.444   7.199   7.248
 6475WAT      O26619   2.219   7.048   7.147
 6475WAT     H126620   2.229   7.054   7.061
 6475WAT     H226621   2.287   7.093   7.178
 6475WAT    EPW26622   2.231   7.056   7.139
 6476WAT      O26623   3.730   7.339   6.202
 6476WAT     H126624   3.746   7.330   6.117
 6476WAT     H226625   3.810   7.346   6.237
 6476WAT    EPW26626   3.744   7.338   6.195
 6477WAT      O26627   2.435   6.752   7.404
 6477WAT     H126628   2.386   6.682   7.420
 6477WAT     H226629   2.413   6.775   7.323
 6477WAT    EPW26630   2.425   6.745   7.394
 6478WAT      O26631   3.549   7.292   7.219
 6478WAT     H126632   3.574   7.208   7.222
 6478WAT     H226633   3.582   7.326   7.292
 6478WAT    EPW26634   3.558   7.284   7.230
 6479WAT      O26635   2.273   7.151   5.844
 6479WAT     H126636   2.208   7.154   5.901
 6479WAT     H226637   2.266   7.072   5.808
 6479WAT    EPW26638   2.263   7.140   5.847
 6480WAT      O26639   3.242   6.846   7.518
 6480WAT     H126640   3.235   6.917   7.467
 6480WAT     H226641   3.159   6.826   7.536
 6480WAT    EPW26642   3.229   6.854   7.513
 6481WAT      O26643   3.137   6.876   6.584
 6481WAT     H126644   3.058   6.913   6.582
 6481WAT     H226645   3.132   6.813   6.524
 6481WAT    EPW26646   3.125   6.873   6.575
 6482WAT      O26647   3.474   6.942   6.846
 6482WAT     H126648   3.553   6.908   6.859
 6482WAT     H226649   3.483   7.026   6.869
 6482WAT    EPW26650   3.487   6.950   6.852
 6483WAT      O26651   3.564   7.384   6.664
 6483WAT     H126652   3.630   7.442   6.669
 6483WAT     H226653   3.509   7.419   6.606
 6483WAT    EPW26654   3.566   7.397   6.656
 6484WAT      O26655   2.616   6.861   7.036
 6484WAT     H126656   2.537   6.835   7.063
 6484WAT     H226657   2.668   6.796   7.062
 6484WAT    EPW26658   2.612   6.847   7.044
 6485WAT      O26659   3.810   6.707   7.112
 6485WAT     H126660   3.816   6.758   7.183
 6485WAT     H226661   3.886   6.666   7.110
 6485WAT    EPW26662   3.822   6.708   7.123
 6486WAT      O26663   2.995   6.870   6.921
 6486WAT     H126664   2.939   6.811   6.890
 6486WAT     H226665   3.073   6.834   6.905
 6486WAT    EPW26666   2.998   6.856   6.914
 6487WAT      O26667   2.819   7.280   7.468
 6487WAT     H126668   2.783   7.223   7.412
 6487WAT     H226669   2.752   7.305   7.518
 6487WAT    EPW26670   2.804   7.275   7.467
 6488WAT      O26671   2.881   6.692   5.931
 6488WAT     H126672   2.887   6.701   5.844
 6488WAT     H226673   2.795   6.700   5.946
 6488WAT    EPW26674   2.869   6.695   5.920
 6489WAT      O26675   2.364   6.809   7.146
 6489WAT     H126676   2.307   6.746   7.124
 6489WAT     H226677   2.317   6.882   7.142
 6489WAT    EPW26678   2.349   6.810   7.142
 6490WAT      O26679   3.243   6.779   6.825
 6490WAT     H126680   3.309   6.834   6.843
 6490WAT     H226681   3.211   6.810   6.749
 6490WAT    EPW26682   3.248   6.792   6.816
 6491WAT      O26683   3.216   7.267   6.558
 6491WAT     H126684   3.267   7.198   6.574
 6491WAT     H226685   3.181   7.285   6.635
 6491WAT    EPW26686   3.218   7.259   6.572
 6492WAT      O26687   2.220   7.172   6.490
 6492WAT     H126688   2.167   7.180   6.559
 6492WAT     H226689   2.264   7.099   6.507
 6492WAT    EPW26690   2.219   7.162   6.503
 6493WAT      O26691   3.374   7.424   6.193
 6493WAT     H126692   3.399   7.345   6.219
 6493WAT     H226693   3.291   7.413   6.169
 6493WAT    EPW26694   3.365   7.411   6.194
 6494WAT      O26695   3.760   7.008   7.642
 6494WAT     H126696   3.790   7.073   7.592
 6494WAT     H226697   3.686   6.985   7.601
 6494WAT    EPW26698   3.753   7.014   7.628
 6495WAT      O26699   3.784   7.170   6.948
 6495WAT     H126700   3.701   7.197   6.939
 6495WAT     H226701   3.778   7.084   6.941
 6495WAT    EPW26702   3.771   7.162   6.945
 6496WAT      O26703   2.712   6.796   7.389
 6496WAT     H126704   2.726   6.762   7.310
 6496WAT     H226705   2.625   6.789   7.399
 6496WAT    EPW26706   2.701   6.790   7.379
 6497WAT      O26707   3.163   6.670   4.497
 6497WAT     H126708   3.167   6.718   4.424
 6497WAT     H226709   3.246   6.647   4.512
 6497WAT    EPW26710   3.176   6.674   4.489
 6498WAT      O26711   3.099   7.311   4.917
 6498WAT     H126712   3.067   7.389   4.941
 6498WAT     H226713   3.153   7.290   4.983
 6498WAT    EPW26714   3.102   7.320   4.931
 6499WAT      O26715   2.088   7.144   4.155
 6499WAT     H126716   2.007   7.153   4.125
 6499WAT     H226717   2.084   7.073   4.206
 6499WAT    EPW26718   2.076   7.135   4.158
 6500WAT      O26719   3.406   7.465   4.586
 6500WAT     H126720   3.408   7.468   4.498
 6500WAT     H226721   3.334   7.419   4.603
 6500WAT    EPW26722   3.396   7.458   4.575
 6501WAT      O26723   2.810   6.781   4.370
 6501WAT     H126724   2.802   6.848   4.314
 6501WAT     H226725   2.889   6.749   4.354
 6501WAT    EPW26726   2.820   6.786   4.359
 6502WAT      O26727   2.282   7.571   4.494
 6502WAT     H126728   2.229   7.520   4.446
 6502WAT     H226729   2.338   7.514   4.530
 6502WAT    EPW26730   2.282   7.555   4.492
 6503WAT      O26731   2.705   7.110   5.135
 6503WAT     H126732   2.776   7.109   5.085
 6503WAT     H226733   2.681   7.027   5.138
 6503WAT    EPW26734   2.712   7.098   5.128
 6504WAT      O26735   2.422   7.360   4.622
 6504WAT     H126736   2.494   7.313   4.635
 6504WAT     H226737   2.361   7.300   4.604
 6504WAT    EPW26738   2.423   7.344   4.621
 6505WAT      O26739   3.130   7.344   5.595
 6505WAT     H126740   3.044   7.338   5.581
 6505WAT     H226741   3.160   7.377   5.520
 6505WAT    EPW26742   3.121   7.348   5.582
 6506WAT      O26743   2.534   6.823   4.456
 6506WAT     H126744   2.497   6.879   4.400
 6506WAT     H226745   2.618   6.822   4.431
 6506WAT    EPW26746   2.541   6.831   4.444
 6507WAT      O26747   3.496   6.565   5.451
 6507WAT     H126748   3.480   6.636   5.403
 6507WAT     H226749   3.421   6.551   5.493
 6507WAT    EPW26750   3.482   6.573   5.450
 6508WAT      O26751   2.850   6.753   4.649
 6508WAT     H126752   2.848   6.837   4.671
 6508WAT     H226753   2.827   6.753   4.565
 6508WAT    EPW26754   2.847   6.765   4.640
 6509WAT      O26755   3.264   6.991   3.898
 6509WAT     H126756   3.220   7.058   3.933
 6509WAT     H226757   3.277   6.937   3.965
 6509WAT    EPW26758   3.259   6.993   3.913
 6510WAT      O26759   2.097   7.218   4.835
 6510WAT     H126760   2.140   7.290   4.860
 6510WAT     H226761   2.030   7.214   4.889
 6510WAT    EPW26762   2.094   7.228   4.846
 6511WAT      O26763   2.410   6.781   4.876
 6511WAT     H126764   2.361   6.714   4.848
 6511WAT     H226765   2.469   6.743   4.928
 6511WAT    EPW26766   2.411   6.765   4.879
 6512WAT      O26767   2.695   6.972   5.808
 6512WAT     H126768   2.694   6.942   5.727
 6512WAT     H226769   2.736   7.049   5.802
 6512WAT    EPW26770   2.701   6.979   5.795
 6513WAT      O26771   3.837   6.944   4.588
 6513WAT     H126772   3.786   7.014   4.601
 6513WAT     H226773   3.779   6.879   4.581
 6513WAT    EPW26774   3.821   6.945   4.589
 6514WAT      O26775   2.268   6.891   5.739
 6514WAT     H126776   2.188   6.864   5.719
 6514WAT     H226777   2.317   6.863   5.673
 6514WAT    EPW26778   2.263   6.883   5.726
 6515WAT      O26779   2.895   6.712   5.657
 6515WAT     H126780   2.909   6.640   5.609
 6515WAT     H226781   2.826   6.749   5.619
 6515WAT    EPW26782   2.887   6.707   5.644
 6516WAT      O26783   2.985   7.197   4.513
 6516WAT     H126784   3.016   7.154   4.443
 6516WAT     H226785   3.056   7.226   4.553
 6516WAT    EPW26786   3.000   7.195   4.508
 6517WAT      O26787   3.102   7.191   4.028
 6517WAT     H126788   3.112   7.269   4.064
 6517WAT     H226789   3.023   7.194   3.991
 6517WAT    EPW26790   3.092   7.203   4.028
 6518WAT      O26791   3.779   6.920   5.052
 6518WAT     H126792   3.832   6.900   4.986
 6518WAT     H226793   3.796   6.859   5.112
 6518WAT    EPW26794   3.789   6.908   5.051
 6519WAT      O26795   2.014   7.004   5.457
 6519WAT     H126796   2.003   7.081   5.497
 6519WAT     H226797   2.075   7.020   5.396
 6519WAT    EPW26798   2.022   7.018   5.454
 6520WAT      O26799   3.311   6.816   4.107
 6520WAT     H126800   3.367   6.749   4.108
 6520WAT     H226801   3.334   6.863   4.177
 6520WAT    EPW26802   3.323   6.813   4.117
 6521WAT      O26803   2.116   6.939   4.351
 6521WAT     H126804   2.097   6.854   4.341
 6521WAT     H226805   2.076   6.960   4.425
 6521WAT    EPW26806   2.107   6.929   4.361
 6522WAT      O26807   3.077   7.071   4.279
 6522WAT     H126808   3.018   7.009   4.262
 6522WAT     H226809   3.086   7.112   4.203
 6522WAT    EPW26810   3.069   7.068   4.266
 6523WAT      O26811   3.071   6.757   4.235
 6523WAT     H126812   3.014   6.739   4.172
 6523WAT     H226813   3.145   6.775   4.192
 6523WAT    EPW26814   3.073   6.757   4.220
 6524WAT      O26815   2.856   7.027   4.696
 6524WAT     H126816   2.899   7.080   4.642
 6524WAT     H226817   2.878   7.056   4.775
 6524WAT    EPW26818   2.866   7.039   4.700
 6525WAT      O26819   2.463   6.567   4.538
 6525WAT     H126820   2.484   6.649   4.518
 6525WAT     H226821   2.434   6.533   4.463
 6525WAT    EPW26822   2.462   6.574   4.524
 6526WAT      O26823   3.245   6.983   5.258
 6526WAT     H126824   3.248   7.020   5.337
 6526WAT     H226825   3.180   6.925   5.265
 6526WAT    EPW26826   3.236   6.980   5.271
 6527WAT      O26827   3.414   6.571   4.581
 6527WAT     H126828   3.407   6.533   4.659
 6527WAT     H226829   3.453   6.510   4.532
 6527WAT    EPW26830   3.419   6.556   4.585
 6528WAT      O26831   3.663   7.020   5.416
 6528WAT     H126832   3.748   7.016   5.435
 6528WAT     H226833   3.625   7.026   5.495
 6528WAT    EPW26834   3.670   7.020   5.431
 6529WAT      O26835   2.410   6.962   4.667
 6529WAT     H126836   2.445   6.913   4.604
 6529WAT     H226837   2.408   6.909   4.736
 6529WAT    EPW26838   2.415   6.947   4.667
 6530WAT      O26839   2.259   7.063   4.997
 6530WAT     H126840   2.341   7.083   4.973
 6530WAT     H226841   2.210   7.111   4.944
 6530WAT    EPW26842   2.264   7.073   4.985
 6531WAT      O26843   3.511   7.445   4.042
 6531WAT     H126844   3.517   7.532   4.033
 6531WAT     H226845   3.479   7.436   4.123
 6531WAT    EPW26846   3.507   7.457   4.053
 6532WAT      O26847   3.789   6.858   4.022
 6532WAT     H126848   3.861   6.820   3.990
 6532WAT     H226849   3.775   6.924   3.967
 6532WAT    EPW26850   3.798   6.862   4.009
 6533WAT      O26851   2.843   7.207   5.803
 6533WAT     H126852   2.778   7.255   5.836
 6533WAT     H226853   2.850   7.236   5.721
 6533WAT    EPW26854   2.835   7.218   5.796
 6534WAT      O26855   3.932   7.288   5.262
 6534WAT     H126856   3.996   7.229   5.260
 6534WAT     H226857   3.884   7.268   5.192
 6534WAT    EPW26858   3.934   7.277   5.251
 6535WAT      O26859   3.674   6.763   4.258
 6535WAT     H126860   3.750   6.725   4.279
 6535WAT     H226861   3.694   6.811   4.189
 6535WAT    EPW26862   3.688   6.764   4.251
 6536WAT      O26863   3.353   7.061   4.697
 6536WAT     H126864   3.371   7.074   4.781
 6536WAT     H226865   3.300   6.992   4.698
 6536WAT    EPW26866   3.348   7.053   4.710
 6537WAT      O26867   2.813   6.977   4.179
 6537WAT     H126868   2.791   6.959   4.097
 6537WAT     H226869   2.790   7.060   4.189
 6537WAT    EPW26870   2.806   6.986   4.169
 6538WAT      O26871   2.356   7.344   5.661
 6538WAT     H126872   2.327   7.277   5.708
 6538WAT     H226873   2.363   7.312   5.581
 6538WAT    EPW26874   2.353   7.329   5.656
 6539WAT      O26875   2.456   7.229   4.142
 6539WAT     H126876   2.436   7.172   4.206
 6539WAT     H226877   2.399   7.209   4.079
 6539WAT    EPW26878   2.444   7.217   4.142
 6540WAT      O26879   2.317   7.389   4.885
 6540WAT     H126880   2.341   7.409   4.804
 6540WAT     H226881   2.374   7.329   4.910
 6540WAT    EPW26882   2.329   7.383   4.877
 6541WAT      O26883   2.429   7.382   5.166
 6541WAT     H126884   2.473   7.335   5.108
 6541WAT     H226885   2.370   7.424   5.119
 6541WAT    EPW26886   2.427   7.381   5.151
 6542WAT      O26887   3.443   7.145   4.944
 6542WAT     H126888   3.396   7.183   5.008
 6542WAT     H226889   3.488   7.211   4.911
 6542WAT    EPW26890   3.442   7.160   4.949
 6543WAT      O26891   3.070   6.779   5.342
 6543WAT     H126892   3.096   6.700   5.315
 6543WAT     H226893   3.104   6.785   5.422
 6543WAT    EPW26894   3.079   6.769   5.350
 6544WAT      O26895   3.334   6.967   4.334
 6544WAT     H126896   3.390   7.033   4.346
 6544WAT     H226897   3.256   7.007   4.328
 6544WAT    EPW26898   3.331   6.983   4.335
 6545WAT      O26899   2.920   7.100   4.956
 6545WAT     H126900   2.980   7.163   4.949
 6545WAT     H226901   2.967   7.029   4.975
 6545WAT    EPW26902   2.936   7.098   4.958
 6546WAT      O26903   3.120   7.424   4.186
 6546WAT     H126904   3.110   7.501   4.147
 6546WAT     H226905   3.051   7.419   4.239
 6546WAT    EPW26906   3.108   7.435   4.188
 6547WAT      O26907   2.611   6.661   4.109
 6547WAT     H126908   2.607   6.647   4.195
 6547WAT     H226909   2.559   6.731   4.097
 6547WAT    EPW26910   2.603   6.669   4.120
 6548WAT      O26911   3.641   6.724   5.625
 6548WAT     H126912   3.596   6.674   5.569
 6548WAT     H226913   3.645   6.674   5.697
 6548WAT    EPW26914   3.635   6.709   5.627
 6549WAT      O26915   2.036   6.665   4.330
 6549WAT     H126916   2.035   6.609   4.263
 6549WAT     H226917   2.009   6.616   4.397
 6549WAT    EPW26918   2.032   6.649   4.330
 6550WAT      O26919   2.898   7.411   4.358
 6550WAT     H126920   2.869   7.475   4.410
 6550WAT     H226921   2.918   7.347   4.414
 6550WAT    EPW26922   2.896   7.411   4.374
 6551WAT      O26923   2.461   6.886   4.048
 6551WAT     H126924   2.398   6.885   3.987
 6551WAT     H226925   2.526   6.928   4.009
 6551WAT    EPW26926   2.461   6.892   4.033
 6552WAT      O26927   2.605   7.154   4.701
 6552WAT     H126928   2.683   7.115   4.693
 6552WAT     H226929   2.548   7.090   4.686
 6552WAT    EPW26930   2.608   7.139   4.697
 6553WAT      O26931   2.122   7.326   4.376
 6553WAT     H126932   2.149   7.273   4.440
 6553WAT     H226933   2.132   7.278   4.303
 6553WAT    EPW26934   2.128   7.311   4.374
 6554WAT      O26935   2.598   7.345   3.916
 6554WAT     H126936   2.561   7.323   3.992
 6554WAT     H226937   2.530   7.354   3.862
 6554WAT    EPW26938   2.583   7.343   3.919
 6555WAT      O26939   2.736   7.239   4.200
 6555WAT     H126940   2.769   7.304   4.247
 6555WAT     H226941   2.650   7.255   4.199
 6555WAT    EPW26942   2.728   7.251   4.207
 6556WAT      O26943   3.491   6.990   5.647
 6556WAT     H126944   3.425   6.992   5.704
 6556WAT     H226945   3.496   6.906   5.624
 6556WAT    EPW26946   3.482   6.978   5.652
 6557WAT      O26947   2.069   6.871   4.836
 6557WAT     H126948   2.052   6.908   4.759
 6557WAT     H226949   2.146   6.904   4.859
 6557WAT    EPW26950   2.078   6.881   4.828
 6558WAT      O26951   3.402   7.355   5.696
 6558WAT     H126952   3.419   7.376   5.779
 6558WAT     H226953   3.315   7.357   5.691
 6558WAT    EPW26954   3.391   7.358   5.708
 6559WAT      O26955   3.572   7.401   5.483
 6559WAT     H126956   3.592   7.485   5.495
 6559WAT     H226957   3.523   7.382   5.553
 6559WAT    EPW26958   3.567   7.411   5.495
 6560WAT      O26959   3.616   7.123   4.626
 6560WAT     H126960   3.543   7.082   4.648
 6560WAT     H226961   3.615   7.195   4.675
 6560WAT    EPW26962   3.605   7.128   4.636
 6561WAT      O26963   3.917   7.389   5.763
 6561WAT     H126964   3.899   7.365   5.681
 6561WAT     H226965   3.999   7.362   5.776
 6561WAT    EPW26966   3.926   7.381   5.753
 6562WAT      O26967   3.457   6.831   5.369
 6562WAT     H126968   3.526   6.884   5.364
 6562WAT     H226969   3.396   6.873   5.321
 6562WAT    EPW26970   3.458   6.845   5.361
 6563WAT      O26971   2.676   7.134   5.416
 6563WAT     H126972   2.677   7.052   5.445
 6563WAT     H226973   2.692   7.126   5.330
 6563WAT    EPW26974   2.678   7.121   5.407
 6564WAT      O26975   3.556   6.627   5.148
 6564WAT     H126976   3.526   6.705   5.123
 6564WAT     H226977   3.637   6.645   5.176
 6564WAT    EPW26978   3.563   6.641   5.149
 6565WAT      O26979   2.797   6.722   5.339
 6565WAT     H126980   2.881   6.743   5.333
 6565WAT     H226981   2.798   6.634   5.340
 6565WAT    EPW26982   2.810   6.712   5.339
 6566WAT      O26983   3.757   7.296   4.011
 6566WAT     H126984   3.814   7.340   3.963
 6566WAT     H226985   3.684   7.345   4.006
 6566WAT    EPW26986   3.754   7.310   4.003
 6567WAT      O26987   2.513   7.197   4.958
 6567WAT     H126988   2.548   7.187   4.879
 6567WAT     H226989   2.573   7.167   5.013
 6567WAT    EPW26990   2.527   7.191   4.955
 6568WAT      O26991   3.283   7.119   5.495
 6568WAT     H126992   3.231   7.157   5.554
 6568WAT     H226993   3.348   7.087   5.543
 6568WAT    EPW26994   3.285   7.120   5.511
 6569WAT      O26995   3.254   7.231   5.129
 6569WAT     H126996   3.275   7.281   5.197
 6569WAT     H226997   3.246   7.151   5.163
 6569WAT    EPW26998   3.256   7.226   5.144
 6570WAT      O26999   3.510   7.189   4.377
 6570WAT     H127000   3.535   7.168   4.458
 6570WAT     H227001   3.582   7.224   4.341
 6570WAT    EPW27002   3.524   7.191   4.383
 6571WAT      O27003   2.835   6.668   4.923
 6571WAT     H127004   2.752   6.656   4.948
 6571WAT     H227005   2.828   6.684   4.838
 6571WAT    EPW27006   2.822   6.669   4.914
 6572WAT      O27007   3.633   6.753   4.538
 6572WAT     H127008   3.557   6.716   4.559
 6572WAT     H227009   3.625   6.772   4.454
 6572WAT    EPW27010   3.621   6.750   4.529
 6573WAT      O27011   2.028   6.782   5.623
 6573WAT     H127012   2.027   6.853   5.573
 6573WAT     H227013   1.943   6.763   5.633
 6573WAT    EPW27014   2.015   6.790   5.617
 6574WAT      O27015   2.390   6.996   4.294
 6574WAT     H127016   2.400   6.960   4.215
 6574WAT     H227017   2.306   6.981   4.313
 6574WAT    EPW27018   2.379   6.988   4.285
 6575WAT      O27019   3.833   7.286   5.518
 6575WAT     H127020   3.749   7.311   5.511
 6575WAT     H227021   3.865   7.300   5.438
 6575WAT    EPW27022   3.825   7.292   5.505
 6576WAT      O27023   3.306   7.364   5.369
 6576WAT     H127024   3.308   7.284   5.404
 6576WAT     H227025   3.385   7.395   5.385
 6576WAT    EPW27026   3.318   7.356   5.377
 6577WAT      O27027   2.410   7.231   5.399
 6577WAT     H127028   2.416   7.290   5.335
 6577WAT     H227029   2.492   7.202   5.408
 6577WAT    EPW27030   2.423   7.235   5.391
 6578WAT      O27031   2.220   7.068   5.269
 6578WAT     H127032   2.235   7.071   5.183
 6578WAT     H227033   2.283   7.118   5.303
 6578WAT    EPW27034   2.232   7.076   5.261
 6579WAT      O27035   3.737   7.323   4.291
 6579WAT     H127036   3.753   7.323   4.206
 6579WAT     H227037   3.817   7.328   4.327
 6579WAT    EPW27038   3.751   7.324   4.284
 6580WAT      O27039   2.412   6.764   5.537
 6580WAT     H127040   2.368   6.689   5.544
 6580WAT     H227041   2.397   6.789   5.455
 6580WAT    EPW27042   2.403   6.756   5.526
 6581WAT      O27043   3.592   7.234   5.249
 6581WAT     H127044   3.611   7.160   5.291
 6581WAT     H227045   3.590   7.294   5.313
 6581WAT    EPW27046   3.594   7.232   5.265
 6582WAT      O27047   2.271   7.153   3.944
 6582WAT     H127048   2.206   7.154   4.002
 6582WAT     H227049   2.265   7.073   3.909
 6582WAT    EPW27050   2.260   7.141   3.947
 6583WAT      O27051   3.152   6.809   5.612
 6583WAT     H127052   3.178   6.873   5.665
 6583WAT     H227053   3.071   6.792   5.639
 6583WAT    EPW27054   3.144   6.816   5.624
 6584WAT      O27055   3.171   6.851   4.709
 6584WAT     H127056   3.091   6.862   4.742
 6584WAT     H227057   3.158   6.798   4.641
 6584WAT    EPW27058   3.158   6.845   4.704
 6585WAT      O27059   3.505   6.882   5.018
 6585WAT     H127060   3.593   6.888   5.018
 6585WAT     H227061   3.480   6.964   5.005
 6585WAT    EPW27062   3.514   6.895   5.016
 6586WAT      O27063   3.564   7.349   4.784
 6586WAT     H127064   3.631   7.402   4.801
 6586WAT     H227065   3.518   7.392   4.724
 6586WAT    EPW27066   3.567   7.363   4.778
 6587WAT      O27067   2.618   6.857   5.170
 6587WAT     H127068   2.537   6.837   5.197
 6587WAT     H227069   2.668   6.802   5.215
 6587WAT    EPW27070   2.613   6.846   5.181
 6588WAT      O27071   3.813   6.711   5.238
 6588WAT     H127072   3.823   6.728   5.323
 6588WAT     H227073   3.887   6.671   5.216
 6588WAT    EPW27074   3.825   6.708   5.248
 6589WAT      O27075   3.040   6.851   4.985
 6589WAT     H127076   2.978   6.790   4.980
 6589WAT     H227077   3.114   6.804   4.991
 6589WAT    EPW27078   3.042   6.835   4.985
 6590WAT      O27079   2.847   7.315   5.548
 6590WAT     H127080   2.800   7.259   5.501
 6590WAT     H227081   2.791   7.380   5.564
 6590WAT    EPW27082   2.832   7.316   5.544
 6591WAT      O27083   2.881   6.682   4.046
 6591WAT     H127084   2.887   6.696   3.960
 6591WAT     H227085   2.796   6.690   4.062
 6591WAT    EPW27086   2.870   6.686   4.036
 6592WAT      O27087   2.359   6.824   5.276
 6592WAT     H127088   2.303   6.762   5.252
 6592WAT     H227089   2.312   6.898   5.268
 6592WAT    EPW27090   2.344   6.826   5.271
 6593WAT      O27091   3.298   6.720   4.922
 6593WAT     H127092   3.361   6.774   4.949
 6593WAT     H227093   3.268   6.759   4.849
 6593WAT    EPW27094   3.302   6.734   4.915
 6594WAT      O27095   3.201   7.287   4.656
 6594WAT     H127096   3.252   7.217   4.663
 6594WAT     H227097   3.172   7.299   4.738
 6594WAT    EPW27098   3.205   7.279   4.669
 6595WAT      O27099   2.225   7.167   4.588
 6595WAT     H127100   2.173   7.174   4.658
 6595WAT     H227101   2.271   7.095   4.604
 6595WAT    EPW27102   2.224   7.158   4.601
 6596WAT      O27103   3.385   7.425   4.296
 6596WAT     H127104   3.411   7.346   4.321
 6596WAT     H227105   3.302   7.413   4.273
 6596WAT    EPW27106   3.377   7.412   4.296
 6597WAT      O27107   3.708   7.011   5.826
 6597WAT     H127108   3.707   7.095   5.850
 6597WAT     H227109   3.641   7.004   5.771
 6597WAT    EPW27110   3.698   7.022   5.822
 6598WAT      O27111   3.780   7.200   5.044
 6598WAT     H127112   3.709   7.220   5.091
 6598WAT     H227113   3.780   7.113   5.043
 6598WAT    EPW27114   3.769   7.190   5.050
 6599WAT      O27115   2.676   6.865   5.540
 6599WAT     H127116   2.710   6.825   5.471
 6599WAT     H227117   2.595   6.832   5.545
 6599WAT    EPW27118   2.669   6.854   5.531
 6600WAT      O27119   3.155   6.678   2.592
 6600WAT     H127120   3.157   6.723   2.517
 6600WAT     H227121   3.239   6.661   2.607
 6600WAT    EPW27122   3.168   6.682   2.583
 6601WAT      O27123   3.093   7.298   3.019
 6601WAT     H127124   3.069   7.378   3.043
 6601WAT     H227125   3.150   7.274   3.081
 6601WAT    EPW27126   3.098   7.306   3.032
 6602WAT      O27127   2.088   7.144   2.254
 6602WAT     H127128   2.008   7.155   2.222
 6602WAT     H227129   2.081   7.073   2.304
 6602WAT    EPW27130   2.076   7.135   2.256
 6603WAT      O27131   3.380   7.476   2.676
 6603WAT     H127132   3.383   7.472   2.588
 6603WAT     H227133   3.320   7.416   2.697
 6603WAT    EPW27134   3.372   7.466   2.666
 6604WAT      O27135   2.808   6.782   2.467
 6604WAT     H127136   2.803   6.849   2.411
 6604WAT     H227137   2.885   6.746   2.449
 6604WAT    EPW27138   2.818   6.787   2.456
 6605WAT      O27139   2.281   7.568   2.596
 6605WAT     H127140   2.230   7.517   2.547
 6605WAT     H227141   2.337   7.512   2.632
 6605WAT    EPW27142   2.282   7.552   2.594
 6606WAT      O27143   2.687   7.063   3.236
 6606WAT     H127144   2.758   7.073   3.186
 6606WAT     H227145   2.668   6.979   3.227
 6606WAT    EPW27146   2.695   7.052   3.228
 6607WAT      O27147   2.426   7.359   2.726
 6607WAT     H127148   2.498   7.312   2.736
 6607WAT     H227149   2.365   7.299   2.705
 6607WAT    EPW27150   2.427   7.343   2.724
 6608WAT      O27151   3.133   7.321   3.692
 6608WAT     H127152   3.047   7.317   3.677
 6608WAT     H227153   3.165   7.360   3.621
 6608WAT    EPW27154   3.125   7.326   3.679
 6609WAT      O27155   2.535   6.823   2.552
 6609WAT     H127156   2.495   6.876   2.495
 6609WAT     H227157   2.617   6.818   2.521
 6609WAT    EPW27158   2.541   6.830   2.539
 6610WAT      O27159   3.509   6.582   3.535
 6610WAT     H127160   3.487   6.648   3.483
 6610WAT     H227161   3.436   6.564   3.579
 6610WAT    EPW27162   3.495   6.589   3.534
 6611WAT      O27163   2.834   6.748   2.745
 6611WAT     H127164   2.840   6.831   2.769
 6611WAT     H227165   2.813   6.752   2.660
 6611WAT    EPW27166   2.832   6.761   2.736
 6612WAT      O27167   3.261   6.987   2.001
 6612WAT     H127168   3.216   7.053   2.036
 6612WAT     H227169   3.275   6.934   2.069
 6612WAT    EPW27170   3.257   6.989   2.016
 6613WAT      O27171   2.099   7.219   2.930
 6613WAT     H127172   2.141   7.290   2.959
 6613WAT     H227173   2.032   7.211   2.985
 6613WAT    EPW27174   2.096   7.229   2.943
 6614WAT      O27175   2.457   6.806   2.977
 6614WAT     H127176   2.409   6.735   2.963
 6614WAT     H227177   2.501   6.787   3.050
 6614WAT    EPW27178   2.456   6.793   2.986
 6615WAT      O27179   2.696   6.972   3.914
 6615WAT     H127180   2.697   6.942   3.832
 6615WAT     H227181   2.739   7.048   3.909
 6615WAT    EPW27182   2.703   6.978   3.901
 6616WAT      O27183   3.836   6.964   2.690
 6616WAT     H127184   3.788   7.036   2.704
 6616WAT     H227185   3.776   6.902   2.678
 6616WAT    EPW27186   3.820   6.965   2.690
 6617WAT      O27187   2.270   6.892   3.840
 6617WAT     H127188   2.189   6.865   3.819
 6617WAT     H227189   2.318   6.864   3.773
 6617WAT    EPW27190   2.265   6.884   3.827
 6618WAT      O27191   2.896   6.717   3.773
 6618WAT     H127192   2.912   6.645   3.726
 6618WAT     H227193   2.826   6.752   3.733
 6618WAT    EPW27194   2.888   6.712   3.760
 6619WAT      O27195   2.996   7.203   2.614
 6619WAT     H127196   3.023   7.160   2.543
 6619WAT     H227197   3.069   7.225   2.655
 6619WAT    EPW27198   3.011   7.200   2.610
 6620WAT      O27199   3.098   7.188   2.127
 6620WAT     H127200   3.109   7.268   2.160
 6620WAT     H227201   3.018   7.192   2.092
 6620WAT    EPW27202   3.088   7.200   2.126
 6621WAT      O27203   3.746   6.884   3.111
 6621WAT     H127204   3.809   6.871   3.052
 6621WAT     H227205   3.766   6.828   3.175
 6621WAT    EPW27206   3.758   6.874   3.112
 6622WAT      O27207   2.016   7.009   3.558
 6622WAT     H127208   2.006   7.086   3.598
 6622WAT     H227209   2.073   7.027   3.494
 6622WAT    EPW27210   2.023   7.023   3.554
 6623WAT      O27211   3.312   6.815   2.213
 6623WAT     H127212   3.366   6.746   2.216
 6623WAT     H227213   3.333   6.861   2.284
 6623WAT    EPW27214   3.323   6.811   2.224
 6624WAT      O27215   2.113   6.936   2.449
 6624WAT     H127216   2.094   6.852   2.439
 6624WAT     H227217   2.072   6.957   2.524
 6624WAT    EPW27218   2.104   6.927   2.459
 6625WAT      O27219   3.076   7.072   2.379
 6625WAT     H127220   3.011   7.016   2.362
 6625WAT     H227221   3.087   7.114   2.303
 6625WAT    EPW27222   3.068   7.070   2.366
 6626WAT      O27223   3.067   6.754   2.330
 6626WAT     H127224   3.009   6.746   2.265
 6626WAT     H227225   3.142   6.772   2.288
 6626WAT    EPW27226   3.070   6.755   2.314
 6627WAT      O27227   2.879   7.021   2.791
 6627WAT     H127228   2.912   7.083   2.739
 6627WAT     H227229   2.887   7.054   2.871
 6627WAT    EPW27230   2.885   7.035   2.795
 6628WAT      O27231   2.464   6.569   2.635
 6628WAT     H127232   2.486   6.650   2.611
 6628WAT     H227233   2.430   6.535   2.562
 6628WAT    EPW27234   2.462   6.576   2.620
 6629WAT      O27235   3.229   6.967   3.347
 6629WAT     H127236   3.240   7.002   3.426
 6629WAT     H227237   3.160   6.915   3.356
 6629WAT    EPW27238   3.221   6.965   3.360
 6630WAT      O27239   3.413   6.598   2.673
 6630WAT     H127240   3.414   6.581   2.759
 6630WAT     H227241   3.447   6.527   2.637
 6630WAT    EPW27242   3.418   6.585   2.681
 6631WAT      O27243   3.624   7.001   3.484
 6631WAT     H127244   3.711   7.002   3.498
 6631WAT     H227245   3.591   7.001   3.564
 6631WAT    EPW27246   3.632   7.001   3.497
 6632WAT      O27247   2.416   6.970   2.759
 6632WAT     H127248   2.448   6.920   2.695
 6632WAT     H227249   2.422   6.920   2.830
 6632WAT    EPW27250   2.422   6.955   2.760
 6633WAT      O27251   2.254   7.052   3.085
 6633WAT     H127252   2.337   7.071   3.063
 6633WAT     H227253   2.207   7.107   3.036
 6633WAT    EPW27254   2.259   7.063   3.075
 6634WAT      O27255   3.509   7.454   2.143
 6634WAT     H127256   3.512   7.540   2.134
 6634WAT     H227257   3.477   7.442   2.224
 6634WAT    EPW27258   3.505   7.465   2.154
 6635WAT      O27259   3.800   6.873   2.124
 6635WAT     H127260   3.858   6.824   2.080
 6635WAT     H227261   3.781   6.937   2.067
 6635WAT    EPW27262   3.806   6.875   2.109
 6636WAT      O27263   2.848   7.205   3.903
 6636WAT     H127264   2.783   7.254   3.935
 6636WAT     H227265   2.853   7.230   3.820
 6636WAT    EPW27266   2.839   7.216   3.896
 6637WAT      O27267   3.917   7.275   3.343
 6637WAT     H127268   3.980   7.215   3.344
 6637WAT     H227269   3.865   7.249   3.278
 6637WAT    EPW27270   3.918   7.263   3.334
 6638WAT      O27271   3.673   6.776   2.353
 6638WAT     H127272   3.748   6.740   2.378
 6638WAT     H227273   3.695   6.822   2.282
 6638WAT    EPW27274   3.687   6.778   2.346
 6639WAT      O27275   3.369   7.036   2.809
 6639WAT     H127276   3.401   7.000   2.881
 6639WAT     H227277   3.304   6.981   2.786
 6639WAT    EPW27278   3.364   7.022   2.816
 6640WAT      O27279   2.819   6.979   2.280
 6640WAT     H127280   2.795   6.961   2.198
 6640WAT     H227281   2.790   7.060   2.292
 6640WAT    EPW27282   2.811   6.988   2.269
 6641WAT      O27283   2.361   7.340   3.757
 6641WAT     H127284   2.329   7.274   3.805
 6641WAT     H227285   2.366   7.307   3.677
 6641WAT    EPW27286   2.357   7.325   3.753
 6642WAT      O27287   2.453   7.227   2.246
 6642WAT     H127288   2.434   7.169   2.309
 6642WAT     H227289   2.398   7.206   2.181
 6642WAT    EPW27290   2.442   7.216   2.246
 6643WAT      O27291   2.322   7.384   2.989
 6643WAT     H127292   2.347   7.403   2.907
 6643WAT     H227293   2.377   7.320   3.012
 6643WAT    EPW27294   2.334   7.377   2.980
 6644WAT      O27295   2.440   7.378   3.264
 6644WAT     H127296   2.481   7.327   3.206
 6644WAT     H227297   2.382   7.422   3.215
 6644WAT    EPW27298   2.437   7.377   3.248
 6645WAT      O27299   3.508   7.205   3.072
 6645WAT     H127300   3.445   7.230   3.127
 6645WAT     H227301   3.510   7.269   3.013
 6645WAT    EPW27302   3.499   7.218   3.072
 6646WAT      O27303   3.051   6.771   3.448
 6646WAT     H127304   3.080   6.693   3.421
 6646WAT     H227305   3.089   6.781   3.526
 6646WAT    EPW27306   3.061   6.761   3.455
 6647WAT      O27307   3.329   6.964   2.442
 6647WAT     H127308   3.385   7.030   2.451
 6647WAT     H227309   3.252   7.004   2.431
 6647WAT    EPW27310   3.326   6.980   2.442
 6648WAT      O27311   2.900   7.097   3.055
 6648WAT     H127312   2.963   7.157   3.054
 6648WAT     H227313   2.942   7.025   3.081
 6648WAT    EPW27314   2.916   7.095   3.059
 6649WAT      O27315   3.119   7.424   2.280
 6649WAT     H127316   3.107   7.499   2.237
 6649WAT     H227317   3.051   7.419   2.334
 6649WAT    EPW27318   3.107   7.434   2.282
 6650WAT      O27319   2.609   6.659   2.187
 6650WAT     H127320   2.604   6.637   2.271
 6650WAT     H227321   2.556   6.728   2.181
 6650WAT    EPW27322   2.600   6.666   2.198
 6651WAT      O27323   3.636   6.724   3.740
 6651WAT     H127324   3.601   6.677   3.676
 6651WAT     H227325   3.642   6.668   3.806
 6651WAT    EPW27326   3.632   6.709   3.740
 6652WAT      O27327   2.036   6.661   2.428
 6652WAT     H127328   2.036   6.605   2.361
 6652WAT     H227329   2.008   6.612   2.495
 6652WAT    EPW27330   2.032   6.646   2.428
 6653WAT      O27331   2.901   7.415   2.458
 6653WAT     H127332   2.873   7.480   2.509
 6653WAT     H227333   2.923   7.352   2.514
 6653WAT    EPW27334   2.900   7.415   2.474
 6654WAT      O27335   2.459   6.887   2.146
 6654WAT     H127336   2.397   6.885   2.085
 6654WAT     H227337   2.525   6.929   2.108
 6654WAT    EPW27338   2.460   6.893   2.131
 6655WAT      O27339   2.616   7.152   2.802
 6655WAT     H127340   2.692   7.112   2.790
 6655WAT     H227341   2.557   7.091   2.783
 6655WAT    EPW27342   2.619   7.137   2.798
 6656WAT      O27343   2.123   7.327   2.472
 6656WAT     H127344   2.150   7.274   2.536
 6656WAT     H227345   2.133   7.279   2.400
 6656WAT    EPW27346   2.128   7.312   2.471
 6657WAT      O27347   2.594   7.349   2.026
 6657WAT     H127348   2.555   7.323   2.100
 6657WAT     H227349   2.528   7.359   1.970
 6657WAT    EPW27350   2.578   7.347   2.029
 6658WAT      O27351   2.729   7.233   2.319
 6658WAT     H127352   2.763   7.304   2.356
 6658WAT     H227353   2.645   7.253   2.309
 6658WAT    EPW27354   2.722   7.247   2.323
 6659WAT      O27355   3.499   6.974   3.741
 6659WAT     H127356   3.438   6.979   3.802
 6659WAT     H227357   3.531   6.893   3.751
 6659WAT    EPW27358   3.495   6.963   3.752
 6660WAT      O27359   2.075   6.864   2.930
 6660WAT     H127360   2.053   6.903   2.856
 6660WAT     H227361   2.143   6.911   2.959
 6660WAT    EPW27362   2.082   6.876   2.924
 6661WAT      O27363   3.403   7.328   3.804
 6661WAT     H127364   3.419   7.357   3.885
 6661WAT     H227365   3.316   7.332   3.798
 6661WAT    EPW27366   3.392   7.333   3.815
 6662WAT      O27367   3.600   7.400   3.624
 6662WAT     H127368   3.596   7.487   3.627
 6662WAT     H227369   3.537   7.375   3.678
 6662WAT    EPW27370   3.590   7.409   3.632
 6663WAT      O27371   3.613   7.144   2.728
 6663WAT     H127372   3.544   7.098   2.755
 6663WAT     H227373   3.607   7.219   2.772
 6663WAT    EPW27374   3.602   7.148   2.738
 6664WAT      O27375   3.949   7.398   3.835
 6664WAT     H127376   3.923   7.359   3.762
 6664WAT     H227377   4.035   7.405   3.826
 6664WAT    EPW27378   3.958   7.393   3.823
 6665WAT      O27379   3.457   6.806   3.372
 6665WAT     H127380   3.513   6.868   3.396
 6665WAT     H227381   3.384   6.850   3.354
 6665WAT    EPW27382   3.454   6.822   3.373
 6666WAT      O27383   2.671   7.121   3.512
 6666WAT     H127384   2.672   7.043   3.551
 6666WAT     H227385   2.683   7.103   3.428
 6666WAT    EPW27386   2.673   7.107   3.506
 6667WAT      O27387   3.549   6.608   3.198
 6667WAT     H127388   3.514   6.678   3.236
 6667WAT     H227389   3.634   6.613   3.219
 6667WAT    EPW27390   3.556   6.619   3.207
 6668WAT      O27391   2.778   6.711   3.443
 6668WAT     H127392   2.862   6.732   3.436
 6668WAT     H227393   2.779   6.633   3.483
 6668WAT    EPW27394   2.791   6.703   3.448
 6669WAT      O27395   3.755   7.304   2.113
 6669WAT     H127396   3.816   7.346   2.067
 6669WAT     H227397   3.685   7.355   2.106
 6669WAT    EPW27398   3.754   7.318   2.105
 6670WAT      O27399   2.512   7.184   3.059
 6670WAT     H127400   2.552   7.178   2.982
 6670WAT     H227401   2.565   7.143   3.115
 6670WAT    EPW27402   2.526   7.177   3.056
 6671WAT      O27403   3.281   7.094   3.590
 6671WAT     H127404   3.230   7.134   3.648
 6671WAT     H227405   3.348   7.065   3.637
 6671WAT    EPW27406   3.283   7.096   3.605
 6672WAT      O27407   3.261   7.214   3.217
 6672WAT     H127408   3.269   7.260   3.290
 6672WAT     H227409   3.251   7.132   3.245
 6672WAT    EPW27410   3.261   7.209   3.232
 6673WAT      O27411   3.505   7.188   2.475
 6673WAT     H127412   3.530   7.172   2.557
 6673WAT     H227413   3.576   7.221   2.438
 6673WAT    EPW27414   3.519   7.190   2.482
 6674WAT      O27415   2.839   6.641   3.011
 6674WAT     H127416   2.763   6.608   3.037
 6674WAT     H227417   2.823   6.668   2.930
 6674WAT    EPW27418   2.826   6.640   3.003
 6675WAT      O27419   3.624   6.785   2.630
 6675WAT     H127420   3.547   6.747   2.647
 6675WAT     H227421   3.620   6.801   2.544
 6675WAT    EPW27422   3.612   6.782   2.620
 6676WAT      O27423   2.031   6.785   3.722
 6676WAT     H127424   2.030   6.857   3.672
 6676WAT     H227425   1.946   6.767   3.733
 6676WAT    EPW27426   2.018   6.793   3.716
 6677WAT      O27427   2.386   6.993   2.392
 6677WAT     H127428   2.397   6.958   2.313
 6677WAT     H227429   2.302   6.978   2.410
 6677WAT    EPW27430   2.375   6.986   2.383
 6678WAT      O27431   3.847   7.273   3.609
 6678WAT     H127432   3.769   7.310   3.617
 6678WAT     H227433   3.869   7.288   3.526
 6678WAT    EPW27434   3.839   7.281   3.598
 6679WAT      O27435   3.303   7.336   3.459
 6679WAT     H127436   3.299   7.260   3.501
 6679WAT     H227437   3.387   7.341   3.434
 6679WAT    EPW27438   3.315   7.326   3.461
 6680WAT      O27439   2.407   7.224   3.493
 6680WAT     H127440   2.415   7.285   3.431
 6680WAT     H227441   2.488   7.193   3.503
 6680WAT    EPW27442   2.420   7.229   3.485
 6681WAT      O27443   2.212   7.067   3.359
 6681WAT     H127444   2.226   7.068   3.273
 6681WAT     H227445   2.274   7.119   3.391
 6681WAT    EPW27446   2.223   7.075   3.351
 6682WAT      O27447   3.734   7.322   2.391
 6682WAT     H127448   3.750   7.323   2.306
 6682WAT     H227449   3.813   7.328   2.428
 6682WAT    EPW27450   3.748   7.323   2.384
 6683WAT      O27451   2.411   6.764   3.636
 6683WAT     H127452   2.363   6.691   3.643
 6683WAT     H227453   2.396   6.790   3.554
 6683WAT    EPW27454   2.401   6.757   3.625
 6684WAT      O27455   3.561   7.262   3.384
 6684WAT     H127456   3.582   7.179   3.401
 6684WAT     H227457   3.592   7.305   3.454
 6684WAT    EPW27458   3.569   7.256   3.397
 6685WAT      O27459   2.273   7.149   2.045
 6685WAT     H127460   2.208   7.151   2.102
 6685WAT     H227461   2.266   7.070   2.008
 6685WAT    EPW27462   2.262   7.137   2.048
 6686WAT      O27463   3.150   6.811   3.711
 6686WAT     H127464   3.182   6.874   3.762
 6686WAT     H227465   3.072   6.794   3.745
 6686WAT    EPW27466   3.143   6.818   3.723
 6687WAT      O27467   3.139   6.876   2.788
 6687WAT     H127468   3.059   6.912   2.787
 6687WAT     H227469   3.134   6.815   2.726
 6687WAT    EPW27470   3.126   6.872   2.778
 6688WAT      O27471   3.474   6.933   3.047
 6688WAT     H127472   3.554   6.902   3.059
 6688WAT     H227473   3.481   7.017   3.067
 6688WAT    EPW27474   3.487   6.941   3.052
 6689WAT      O27475   3.561   7.385   2.863
 6689WAT     H127476   3.628   7.442   2.864
 6689WAT     H227477   3.506   7.421   2.805
 6689WAT    EPW27478   3.563   7.399   2.854
 6690WAT      O27479   2.599   6.800   3.234
 6690WAT     H127480   2.525   6.805   3.280
 6690WAT     H227481   2.654   6.760   3.289
 6690WAT    EPW27482   2.596   6.795   3.249
 6691WAT      O27483   3.800   6.695   3.313
 6691WAT     H127484   3.787   6.734   3.390
 6691WAT     H227485   3.882   6.666   3.318
 6691WAT    EPW27486   3.810   6.697   3.325
 6692WAT      O27487   2.997   6.848   3.122
 6692WAT     H127488   2.945   6.783   3.095
 6692WAT     H227489   3.077   6.819   3.104
 6692WAT    EPW27490   3.001   6.835   3.115
 6693WAT      O27491   2.849   7.300   3.642
 6693WAT     H127492   2.800   7.245   3.596
 6693WAT     H227493   2.795   7.368   3.655
 6693WAT    EPW27494   2.834   7.302   3.637
 6694WAT      O27495   2.878   6.698   2.134
 6694WAT     H127496   2.888   6.703   2.048
 6694WAT     H227497   2.792   6.701   2.146
 6694WAT    EPW27498   2.867   6.699   2.123
 6695WAT      O27499   2.359   6.827   3.374
 6695WAT     H127500   2.302   6.763   3.355
 6695WAT     H227501   2.311   6.900   3.365
 6695WAT    EPW27502   2.343   6.828   3.370
 6696WAT      O27503   3.246   6.770   3.022
 6696WAT     H127504   3.312   6.824   3.041
 6696WAT     H227505   3.214   6.803   2.948
 6696WAT    EPW27506   3.251   6.783   3.014
 6697WAT      O27507   3.216   7.267   2.769
 6697WAT     H127508   3.269   7.199   2.782
 6697WAT     H227509   3.180   7.280   2.847
 6697WAT    EPW27510   3.219   7.259   2.782
 6698WAT      O27511   2.227   7.170   2.684
 6698WAT     H127512   2.175   7.176   2.754
 6698WAT     H227513   2.273   7.097   2.699
 6698WAT    EPW27514   2.226   7.160   2.697
 6699WAT      O27515   3.380   7.425   2.394
 6699WAT     H127516   3.407   7.345   2.418
 6699WAT     H227517   3.298   7.412   2.367
 6699WAT    EPW27518   3.372   7.411   2.393
 6700WAT      O27519   3.743   7.066   3.849
 6700WAT     H127520   3.741   7.141   3.892
 6700WAT     H227521   3.662   7.057   3.818
 6700WAT    EPW27522   3.731   7.075   3.851
 6701WAT      O27523   3.780   7.164   3.124
 6701WAT     H127524   3.697   7.188   3.118
 6701WAT     H227525   3.776   7.077   3.125
 6701WAT    EPW27526   3.767   7.154   3.124
 6702WAT      O27527   2.675   6.863   3.646
 6702WAT     H127528   2.707   6.822   3.575
 6702WAT     H227529   2.594   6.831   3.652
 6702WAT    EPW27530   2.668   6.852   3.636
 6703WAT      O27531   3.200   6.674   0.663
 6703WAT     H127532   3.221   6.708   0.585
 6703WAT     H227533   3.276   6.644   0.694
 6703WAT    EPW27534   3.214   6.675   0.656
 6704WAT      O27535   3.103   7.310   1.121
 6704WAT     H127536   3.078   7.390   1.148
 6704WAT     H227537   3.157   7.283   1.184
 6704WAT    EPW27538   3.107   7.318   1.134
 6705WAT      O27539   2.136   7.159   0.381
 6705WAT     H127540   2.066   7.168   0.330
 6705WAT     H227541   2.119   7.088   0.428
 6705WAT    EPW27542   2.123   7.150   0.380
 6706WAT      O27543   3.388   7.486   0.797
 6706WAT     H127544   3.395   7.487   0.710
 6706WAT     H227545   3.329   7.424   0.812
 6706WAT    EPW27546   3.380   7.477   0.786
 6707WAT      O27547   2.823   6.774   0.614
 6707WAT     H127548   2.833   6.850   0.573
 6707WAT     H227549   2.838   6.715   0.551
 6707WAT    EPW27550   2.827   6.777   0.598
 6708WAT      O27551   2.297   7.589   0.692
 6708WAT     H127552   2.239   7.539   0.649
 6708WAT     H227553   2.347   7.532   0.734
 6708WAT    EPW27554   2.296   7.573   0.692
 6709WAT      O27555   2.700   7.108   1.339
 6709WAT     H127556   2.772   7.108   1.290
 6709WAT     H227557   2.682   7.023   1.349
 6709WAT    EPW27558   2.708   7.095   1.333
 6710WAT      O27559   2.416   7.373   0.830
 6710WAT     H127560   2.487   7.326   0.845
 6710WAT     H227561   2.355   7.313   0.812
 6710WAT    EPW27562   2.417   7.357   0.830
 6711WAT      O27563   3.141   7.334   1.799
 6711WAT     H127564   3.055   7.330   1.782
 6711WAT     H227565   3.175   7.363   1.724
 6711WAT    EPW27566   3.133   7.338   1.785
 6712WAT      O27567   2.550   6.811   0.688
 6712WAT     H127568   2.505   6.842   0.621
 6712WAT     H227569   2.631   6.803   0.657
 6712WAT    EPW27570   2.555   6.814   0.674
 6713WAT      O27571   3.512   6.588   1.657
 6713WAT     H127572   3.486   6.651   1.602
 6713WAT     H227573   3.438   6.565   1.698
 6713WAT    EPW27574   3.497   6.594   1.655
 6714WAT      O27575   2.888   6.772   0.883
 6714WAT     H127576   2.867   6.854   0.904
 6714WAT     H227577   2.867   6.766   0.799
 6714WAT    EPW27578   2.882   6.783   0.874
 6715WAT      O27579   2.094   7.222   1.043
 6715WAT     H127580   2.137   7.292   1.071
 6715WAT     H227581   2.027   7.214   1.099
 6715WAT    EPW27582   2.090   7.231   1.055
 6716WAT      O27583   2.379   6.783   1.079
 6716WAT     H127584   2.342   6.712   1.044
 6716WAT     H227585   2.439   6.750   1.134
 6716WAT    EPW27586   2.383   6.768   1.082
 6717WAT      O27587   2.697   6.975   2.017
 6717WAT     H127588   2.691   6.948   1.935
 6717WAT     H227589   2.737   7.052   2.011
 6717WAT    EPW27590   2.702   6.982   2.004
 6718WAT      O27591   3.829   6.966   0.793
 6718WAT     H127592   3.777   7.034   0.811
 6718WAT     H227593   3.773   6.901   0.777
 6718WAT    EPW27594   3.813   6.967   0.793
 6719WAT      O27595   2.265   6.889   1.941
 6719WAT     H127596   2.185   6.861   1.921
 6719WAT     H227597   2.313   6.862   1.873
 6719WAT    EPW27598   2.260   6.881   1.928
 6720WAT      O27599   2.909   6.697   1.861
 6720WAT     H127600   2.936   6.621   1.828
 6720WAT     H227601   2.852   6.726   1.802
 6720WAT    EPW27602   2.905   6.690   1.847
 6721WAT      O27603   3.000   7.201   0.730
 6721WAT     H127604   3.030   7.160   0.659
 6721WAT     H227605   3.073   7.223   0.773
 6721WAT    EPW27606   3.015   7.198   0.726
 6722WAT      O27607   3.082   7.257   0.269
 6722WAT     H127608   3.097   7.332   0.311
 6722WAT     H227609   2.999   7.264   0.243
 6722WAT    EPW27610   3.072   7.269   0.271
 6723WAT      O27611   3.753   6.891   1.226
 6723WAT     H127612   3.813   6.877   1.165
 6723WAT     H227613   3.771   6.831   1.287
 6723WAT    EPW27614   3.764   6.880   1.226
 6724WAT      O27615   2.011   7.002   1.658
 6724WAT     H127616   2.002   7.078   1.700
 6724WAT     H227617   2.073   7.018   1.599
 6724WAT    EPW27618   2.019   7.016   1.656
 6725WAT      O27619   3.260   6.753   0.403
 6725WAT     H127620   3.325   6.705   0.370
 6725WAT     H227621   3.298   6.827   0.426
 6725WAT    EPW27622   3.275   6.757   0.401
 6726WAT      O27623   2.098   6.936   0.553
 6726WAT     H127624   2.071   6.855   0.534
 6726WAT     H227625   2.057   6.954   0.628
 6726WAT    EPW27626   2.088   6.927   0.561
 6727WAT      O27627   3.077   7.088   0.488
 6727WAT     H127628   3.006   7.042   0.470
 6727WAT     H227629   3.087   7.140   0.418
 6727WAT    EPW27630   3.068   7.089   0.475
 6728WAT      O27631   2.988   6.744   0.341
 6728WAT     H127632   2.959   6.826   0.337
 6728WAT     H227633   3.074   6.753   0.353
 6728WAT    EPW27634   2.997   6.758   0.342
 6729WAT      O27635   2.844   7.046   0.906
 6729WAT     H127636   2.895   7.094   0.854
 6729WAT     H227637   2.870   7.069   0.986
 6729WAT    EPW27638   2.856   7.056   0.910
 6730WAT      O27639   2.476   6.553   0.747
 6730WAT     H127640   2.498   6.636   0.732
 6730WAT     H227641   2.443   6.526   0.670
 6730WAT    EPW27642   2.474   6.561   0.733
 6731WAT      O27643   3.230   6.969   1.449
 6731WAT     H127644   3.231   6.999   1.530
 6731WAT     H227645   3.162   6.914   1.448
 6731WAT    EPW27646   3.220   6.965   1.461
 6732WAT      O27647   3.435   6.589   0.775
 6732WAT     H127648   3.435   6.570   0.860
 6732WAT     H227649   3.468   6.517   0.738
 6732WAT    EPW27650   3.440   6.576   0.782
 6733WAT      O27651   3.624   7.021   1.590
 6733WAT     H127652   3.710   7.015   1.602
 6733WAT     H227653   3.591   7.019   1.670
 6733WAT    EPW27654   3.632   7.020   1.603
 6734WAT      O27655   2.409   6.966   0.874
 6734WAT     H127656   2.450   6.916   0.816
 6734WAT     H227657   2.400   6.914   0.943
 6734WAT    EPW27658   2.414   6.951   0.875
 6735WAT      O27659   2.262   7.075   1.211
 6735WAT     H127660   2.342   7.100   1.184
 6735WAT     H227661   2.209   7.112   1.152
 6735WAT    EPW27662   2.266   7.084   1.198
 6736WAT      O27663   3.520   7.350   0.270
 6736WAT     H127664   3.446   7.306   0.255
 6736WAT     H227665   3.503   7.397   0.341
 6736WAT    EPW27666   3.506   7.350   0.278
 6737WAT      O27667   3.736   6.961   0.237
 6737WAT     H127668   3.758   6.937   0.156
 6737WAT     H227669   3.742   7.048   0.235
 6737WAT    EPW27670   3.740   6.970   0.224
 6738WAT      O27671   2.841   7.213   2.006
 6738WAT     H127672   2.773   7.260   2.032
 6738WAT     H227673   2.853   7.238   1.923
 6738WAT    EPW27674   2.833   7.224   1.997
 6739WAT      O27675   3.923   7.286   1.450
 6739WAT     H127676   3.984   7.223   1.452
 6739WAT     H227677   3.869   7.259   1.387
 6739WAT    EPW27678   3.924   7.272   1.441
 6740WAT      O27679   3.652   6.775   0.433
 6740WAT     H127680   3.731   6.742   0.449
 6740WAT     H227681   3.667   6.840   0.377
 6740WAT    EPW27682   3.666   6.780   0.427
 6741WAT      O27683   3.362   7.030   0.923
 6741WAT     H127684   3.398   6.997   0.995
 6741WAT     H227685   3.302   6.970   0.900
 6741WAT    EPW27686   3.358   7.016   0.930
 6742WAT      O27687   2.829   6.976   0.413
 6742WAT     H127688   2.767   6.920   0.388
 6742WAT     H227689   2.792   7.054   0.400
 6742WAT    EPW27690   2.814   6.979   0.408
 6743WAT      O27691   2.355   7.347   1.868
 6743WAT     H127692   2.327   7.278   1.913
 6743WAT     H227693   2.362   7.318   1.787
 6743WAT    EPW27694   2.352   7.333   1.863
 6744WAT      O27695   2.430   7.154   0.363
 6744WAT     H127696   2.424   7.095   0.428
 6744WAT     H227697   2.348   7.181   0.352
 6744WAT    EPW27698   2.417   7.149   0.371
 6745WAT      O27699   2.311   7.396   1.093
 6745WAT     H127700   2.336   7.415   1.012
 6745WAT     H227701   2.369   7.336   1.119
 6745WAT    EPW27702   2.323   7.390   1.085
 6746WAT      O27703   2.428   7.394   1.371
 6746WAT     H127704   2.471   7.345   1.314
 6746WAT     H227705   2.366   7.432   1.323
 6746WAT    EPW27706   2.425   7.393   1.356
 6747WAT      O27707   3.510   7.204   1.184
 6747WAT     H127708   3.441   7.227   1.233
 6747WAT     H227709   3.513   7.268   1.124
 6747WAT    EPW27710   3.500   7.217   1.183
 6748WAT      O27711   3.063   6.753   1.549
 6748WAT     H127712   3.091   6.675   1.522
 6748WAT     H227713   3.106   6.765   1.624
 6748WAT    EPW27714   3.074   6.743   1.556
 6749WAT      O27715   3.341   6.989   0.515
 6749WAT     H127716   3.397   7.053   0.535
 6749WAT     H227717   3.263   7.028   0.516
 6749WAT    EPW27718   3.338   7.004   0.518
 6750WAT      O27719   2.918   7.104   1.165
 6750WAT     H127720   2.979   7.165   1.157
 6750WAT     H227721   2.963   7.032   1.186
 6750WAT    EPW27722   2.934   7.102   1.167
 6751WAT      O27723   3.129   7.475   0.435
 6751WAT     H127724   3.121   7.559   0.414
 6751WAT     H227725   3.058   7.459   0.484
 6751WAT    EPW27726   3.117   7.485   0.440
 6752WAT      O27727   2.640   6.779   0.358
 6752WAT     H127728   2.626   6.695   0.376
 6752WAT     H227729   2.573   6.801   0.307
 6752WAT    EPW27730   2.628   6.770   0.353
 6753WAT      O27731   3.638   6.739   1.850
 6753WAT     H127732   3.602   6.690   1.788
 6753WAT     H227733   3.643   6.685   1.919
 6753WAT    EPW27734   3.633   6.724   1.851
 6754WAT      O27735   2.012   6.668   0.503
 6754WAT     H127736   2.015   6.610   0.438
 6754WAT     H227737   1.988   6.621   0.572
 6754WAT    EPW27738   2.009   6.653   0.503
 6755WAT      O27739   2.899   7.412   0.580
 6755WAT     H127740   2.863   7.470   0.635
 6755WAT     H227741   2.924   7.347   0.631
 6755WAT    EPW27742   2.897   7.411   0.595
 6756WAT      O27743   2.423   6.903   0.226
 6756WAT     H127744   2.389   6.902   0.145
 6756WAT     H227745   2.432   6.988   0.243
 6756WAT    EPW27746   2.419   6.916   0.216
 6757WAT      O27747   2.595   7.167   0.906
 6757WAT     H127748   2.674   7.130   0.900
 6757WAT     H227749   2.540   7.101   0.892
 6757WAT    EPW27750   2.598   7.152   0.903
 6758WAT      O27751   2.136   7.344   0.594
 6758WAT     H127752   2.155   7.290   0.660
 6758WAT     H227753   2.149   7.294   0.523
 6758WAT    EPW27754   2.141   7.329   0.593
 6759WAT      O27755   2.715   7.225   0.377
 6759WAT     H127756   2.728   7.291   0.433
 6759WAT     H227757   2.628   7.221   0.370
 6759WAT    EPW27758   2.704   7.234   0.384
 6760WAT      O27759   3.496   6.983   1.844
 6760WAT     H127760   3.434   6.987   1.906
 6760WAT     H227761   3.530   6.903   1.853
 6760WAT    EPW27762   3.492   6.972   1.854
 6761WAT      O27763   2.061   6.869   1.039
 6761WAT     H127764   2.045   6.901   0.960
 6761WAT     H227765   2.148   6.879   1.048
 6761WAT    EPW27766   2.072   6.875   1.029
 6762WAT      O27767   3.406   7.324   1.911
 6762WAT     H127768   3.419   7.357   1.991
 6762WAT     H227769   3.320   7.332   1.899
 6762WAT    EPW27770   3.395   7.330   1.921
 6763WAT      O27771   3.614   7.399   1.746
 6763WAT     H127772   3.609   7.486   1.751
 6763WAT     H227773   3.548   7.371   1.795
 6763WAT    EPW27774   3.604   7.408   1.754
 6764WAT      O27775   3.606   7.141   0.839
 6764WAT     H127776   3.537   7.096   0.866
 6764WAT     H227777   3.602   7.215   0.885
 6764WAT    EPW27778   3.595   7.145   0.850
 6765WAT      O27779   3.956   7.404   1.945
 6765WAT     H127780   3.933   7.364   1.871
 6765WAT     H227781   4.043   7.412   1.938
 6765WAT    EPW27782   3.966   7.400   1.933
 6766WAT      O27783   3.458   6.816   1.495
 6766WAT     H127784   3.514   6.880   1.514
 6766WAT     H227785   3.386   6.858   1.471
 6766WAT    EPW27786   3.456   6.832   1.495
 6767WAT      O27787   2.673   7.152   1.616
 6767WAT     H127788   2.668   7.072   1.650
 6767WAT     H227789   2.687   7.137   1.531
 6767WAT    EPW27790   2.675   7.138   1.608
 6768WAT      O27791   3.541   6.616   1.321
 6768WAT     H127792   3.511   6.687   1.362
 6768WAT     H227793   3.628   6.621   1.333
 6768WAT    EPW27794   3.550   6.627   1.329
 6769WAT      O27795   2.790   6.717   1.594
 6769WAT     H127796   2.874   6.721   1.571
 6769WAT     H227797   2.777   6.631   1.608
 6769WAT    EPW27798   2.800   6.705   1.593
 6770WAT      O27799   3.774   7.243   0.233
 6770WAT     H127800   3.805   7.282   0.162
 6770WAT     H227801   3.693   7.274   0.240
 6770WAT    EPW27802   3.767   7.253   0.224
 6771WAT      O27803   2.510   7.207   1.166
 6771WAT     H127804   2.545   7.196   1.087
 6771WAT     H227805   2.569   7.172   1.219
 6771WAT    EPW27806   2.524   7.200   1.162
 6772WAT      O27807   3.271   7.091   1.696
 6772WAT     H127808   3.225   7.132   1.758
 6772WAT     H227809   3.341   7.061   1.739
 6772WAT    EPW27810   3.275   7.093   1.712
 6773WAT      O27811   3.263   7.215   1.319
 6773WAT     H127812   3.270   7.259   1.393
 6773WAT     H227813   3.251   7.133   1.345
 6773WAT    EPW27814   3.262   7.209   1.334
 6774WAT      O27815   3.511   7.203   0.587
 6774WAT     H127816   3.533   7.180   0.668
 6774WAT     H227817   3.586   7.233   0.553
 6774WAT    EPW27818   3.525   7.204   0.594
 6775WAT      O27819   2.827   6.673   1.155
 6775WAT     H127820   2.742   6.668   1.171
 6775WAT     H227821   2.831   6.688   1.069
 6775WAT    EPW27822   2.815   6.675   1.145
 6776WAT      O27823   3.636   6.776   0.716
 6776WAT     H127824   3.563   6.735   0.740
 6776WAT     H227825   3.625   6.791   0.631
 6776WAT    EPW27826   3.624   6.772   0.707
 6777WAT      O27827   2.027   6.780   1.823
 6777WAT     H127828   2.027   6.851   1.773
 6777WAT     H227829   1.943   6.763   1.835
 6777WAT    EPW27830   2.015   6.788   1.818
 6778WAT      O27831   2.372   6.921   0.508
 6778WAT     H127832   2.369   6.888   0.427
 6778WAT     H227833   2.289   6.924   0.532
 6778WAT    EPW27834   2.359   6.917   0.500
 6779WAT      O27835   3.862   7.276   1.718
 6779WAT     H127836   3.782   7.310   1.728
 6779WAT     H227837   3.881   7.294   1.635
 6779WAT    EPW27838   3.853   7.284   1.707
 6780WAT      O27839   3.304   7.331   1.564
 6780WAT     H127840   3.297   7.253   1.603
 6780WAT     H227841   3.388   7.335   1.541
 6780WAT    EPW27842   3.315   7.320   1.566
 6781WAT      O27843   2.406   7.241   1.603
 6781WAT     H127844   2.410   7.301   1.539
 6781WAT     H227845   2.489   7.214   1.611
 6781WAT    EPW27846   2.419   7.246   1.595
 6782WAT      O27847   2.219   7.072   1.479
 6782WAT     H127848   2.234   7.076   1.393
 6782WAT     H227849   2.282   7.122   1.513
 6782WAT    EPW27850   2.231   7.080   1.471
 6783WAT      O27851   3.750   7.321   0.508
 6783WAT     H127852   3.773   7.303   0.425
 6783WAT     H227853   3.826   7.333   0.548
 6783WAT    EPW27854   3.765   7.320   0.502
 6784WAT      O27855   2.408   6.772   1.734
 6784WAT     H127856   2.374   6.692   1.740
 6784WAT     H227857   2.395   6.794   1.651
 6784WAT    EPW27858   2.401   6.764   1.723
 6785WAT      O27859   3.566   7.284   1.497
 6785WAT     H127860   3.587   7.200   1.509
 6785WAT     H227861   3.597   7.323   1.568
 6785WAT    EPW27862   3.574   7.277   1.509
 6786WAT      O27863   3.163   6.797   1.812
 6786WAT     H127864   3.190   6.863   1.863
 6786WAT     H227865   3.083   6.781   1.841
 6786WAT    EPW27866   3.155   6.805   1.824
 6787WAT      O27867   3.168   6.830   0.887
 6787WAT     H127868   3.081   6.824   0.898
 6787WAT     H227869   3.182   6.787   0.812
 6787WAT    EPW27870   3.157   6.823   0.878
 6788WAT      O27871   3.482   6.932   1.155
 6788WAT     H127872   3.563   6.901   1.169
 6788WAT     H227873   3.489   7.016   1.176
 6788WAT    EPW27874   3.495   6.940   1.160
 6789WAT      O27875   3.568   7.383   0.977
 6789WAT     H127876   3.635   7.439   0.983
 6789WAT     H227877   3.513   7.423   0.922
 6789WAT    EPW27878   3.570   7.397   0.969
 6790WAT      O27879   2.631   6.852   1.400
 6790WAT     H127880   2.547   6.834   1.416
 6790WAT     H227881   2.675   6.795   1.451
 6790WAT    EPW27882   2.625   6.841   1.410
 6791WAT      O27883   3.800   6.697   1.423
 6791WAT     H127884   3.789   6.731   1.503
 6791WAT     H227885   3.883   6.668   1.425
 6791WAT    EPW27886   3.811   6.698   1.435
 6792WAT      O27887   3.034   6.859   1.219
 6792WAT     H127888   2.972   6.797   1.211
 6792WAT     H227889   3.108   6.816   1.202
 6792WAT    EPW27890   3.036   6.843   1.215
 6793WAT      O27891   2.859   7.316   1.748
 6793WAT     H127892   2.809   7.262   1.701
 6793WAT     H227893   2.809   7.386   1.759
 6793WAT    EPW27894   2.844   7.318   1.743
 6794WAT      O27895   2.360   6.828   1.472
 6794WAT     H127896   2.306   6.764   1.449
 6794WAT     H227897   2.311   6.900   1.464
 6794WAT    EPW27898   2.345   6.829   1.467
 6795WAT      O27899   3.277   6.742   1.132
 6795WAT     H127900   3.339   6.800   1.149
 6795WAT     H227901   3.250   6.764   1.052
 6795WAT    EPW27902   3.282   6.754   1.123
 6796WAT      O27903   3.225   7.270   0.875
 6796WAT     H127904   3.272   7.197   0.889
 6796WAT     H227905   3.189   7.286   0.952
 6796WAT    EPW27906   3.227   7.261   0.888
 6797WAT      O27907   2.225   7.173   0.800
 6797WAT     H127908   2.173   7.178   0.870
 6797WAT     H227909   2.271   7.100   0.814
 6797WAT    EPW27910   2.224   7.163   0.812
 6798WAT      O27911   3.401   7.447   0.516
 6798WAT     H127912   3.421   7.366   0.541
 6798WAT     H227913   3.316   7.442   0.497
 6798WAT    EPW27914   3.391   7.434   0.517
 6799WAT      O27915   3.739   7.075   1.951
 6799WAT     H127916   3.737   7.151   1.993
 6799WAT     H227917   3.657   7.066   1.921
 6799WAT    EPW27918   3.727   7.085   1.953
 6800WAT      O27919   3.782   7.170   1.236
 6800WAT     H127920   3.698   7.192   1.230
 6800WAT     H227921   3.780   7.083   1.239
 6800WAT    EPW27922   3.770   7.160   1.236
 6801WAT      O27923   2.656   6.901   1.747
 6801WAT     H127924   2.700   6.851   1.691
 6801WAT     H227925   2.577   6.864   1.750
 6801WAT    EPW27926   2.651   6.888   1.739
 6802WAT      O27927   3.145   4.843   6.357
 6802WAT     H127928   3.145   4.875   6.275
 6802WAT     H227929   3.228   4.817   6.368
 6802WAT    EPW27930   3.157   4.844   6.346
 6803WAT      O27931   3.038   5.476   6.928
 6803WAT     H127932   3.029   5.560   6.906
 6803WAT     H227933   3.124   5.466   6.938
 6803WAT    EPW27934   3.049   5.487   6.927
 6804WAT      O27935   2.076   5.939   6.348
 6804WAT     H127936   2.026   5.938   6.419
 6804WAT     H227937   2.079   5.856   6.323
 6804WAT    EPW27938   2.069   5.927   6.355
 6805WAT      O27939   3.702   6.335   6.141
 6805WAT     H127940   3.761   6.278   6.170
 6805WAT     H227941   3.650   6.287   6.091
 6805WAT    EPW27942   3.703   6.320   6.138
 6806WAT      O27943   2.081   5.283   6.009
 6806WAT     H127944   2.015   5.331   5.977
 6806WAT     H227945   2.048   5.203   6.011
 6806WAT    EPW27946   2.066   5.278   6.005
 6807WAT      O27947   2.357   5.878   5.939
 6807WAT     H127948   2.333   5.832   5.869
 6807WAT     H227949   2.372   5.817   6.000
 6807WAT    EPW27950   2.356   5.862   5.938
 6808WAT      O27951   3.427   5.736   6.407
 6808WAT     H127952   3.425   5.700   6.328
 6808WAT     H227953   3.385   5.679   6.457
 6808WAT    EPW27954   3.420   5.722   6.403
 6809WAT      O27955   2.325   6.060   6.319
 6809WAT     H127956   2.380   6.021   6.374
 6809WAT     H227957   2.250   6.018   6.333
 6809WAT    EPW27958   2.322   6.048   6.329
 6810WAT      O27959   2.804   4.950   6.243
 6810WAT     H127960   2.819   5.022   6.197
 6810WAT     H227961   2.859   4.891   6.208
 6810WAT    EPW27962   2.815   4.952   6.231
 6811WAT      O27963   2.208   6.336   5.916
 6811WAT     H127964   2.258   6.343   5.845
 6811WAT     H227965   2.245   6.271   5.961
 6811WAT    EPW27966   2.221   6.328   5.912
 6812WAT      O27967   2.124   6.151   7.038
 6812WAT     H127968   2.151   6.126   7.117
 6812WAT     H227969   2.053   6.102   7.025
 6812WAT    EPW27970   2.117   6.140   7.048
 6813WAT      O27971   2.782   6.000   7.479
 6813WAT     H127972   2.790   5.957   7.554
 6813WAT     H227973   2.706   5.972   7.446
 6813WAT    EPW27974   2.772   5.990   7.485
 6814WAT      O27975   2.285   5.689   6.493
 6814WAT     H127976   2.236   5.688   6.420
 6814WAT     H227977   2.338   5.621   6.481
 6814WAT    EPW27978   2.285   5.679   6.480
 6815WAT      O27979   2.708   5.261   7.035
 6815WAT     H127980   2.778   5.259   6.984
 6815WAT     H227981   2.676   5.180   7.029
 6815WAT    EPW27982   2.714   5.249   7.027
 6816WAT      O27983   2.724   6.240   7.234
 6816WAT     H127984   2.703   6.316   7.196
 6816WAT     H227985   2.811   6.243   7.240
 6816WAT    EPW27986   2.734   6.252   7.229
 6817WAT      O27987   2.457   5.471   6.476
 6817WAT     H127988   2.524   5.420   6.498
 6817WAT     H227989   2.389   5.417   6.479
 6817WAT    EPW27990   2.457   5.456   6.480
 6818WAT      O27991   2.862   6.119   6.645
 6818WAT     H127992   2.883   6.035   6.660
 6818WAT     H227993   2.939   6.159   6.639
 6818WAT    EPW27994   2.876   6.112   6.647
 6819WAT      O27995   2.888   6.018   6.275
 6819WAT     H127996   2.932   5.958   6.321
 6819WAT     H227997   2.913   6.002   6.193
 6819WAT    EPW27998   2.898   6.007   6.270
 6820WAT      O27999   3.092   5.465   7.431
 6820WAT     H128000   3.008   5.470   7.408
 6820WAT     H228001   3.098   5.521   7.497
 6820WAT    EPW28002   3.080   5.474   7.437
 6821WAT      O28003   2.536   4.990   6.345
 6821WAT     H128004   2.496   5.045   6.290
 6821WAT     H228005   2.616   4.982   6.310
 6821WAT    EPW28006   2.542   4.997   6.332
 6822WAT      O28007   3.538   4.692   7.349
 6822WAT     H128008   3.529   4.725   7.269
 6822WAT     H228009   3.456   4.689   7.379
 6822WAT    EPW28010   3.524   4.696   7.342
 6823WAT      O28011   2.851   4.922   6.519
 6823WAT     H128012   2.864   5.004   6.545
 6823WAT     H228013   2.831   4.931   6.435
 6823WAT    EPW28014   2.850   4.936   6.510
 6824WAT      O28015   3.256   5.232   5.916
 6824WAT     H128016   3.315   5.264   5.861
 6824WAT     H228017   3.281   5.149   5.927
 6824WAT    EPW28018   3.268   5.224   5.910
 6825WAT      O28019   2.100   5.431   6.737
 6825WAT     H128020   2.099   5.518   6.747
 6825WAT     H228021   2.033   5.404   6.786
 6825WAT    EPW28022   2.090   5.440   6.746
 6826WAT      O28023   2.084   6.395   6.573
 6826WAT     H128024   2.020   6.444   6.539
 6826WAT     H228025   2.123   6.361   6.502
 6826WAT    EPW28026   2.080   6.397   6.557
 6827WAT      O28027   2.680   6.197   6.268
 6827WAT     H128028   2.644   6.189   6.347
 6827WAT     H228029   2.750   6.146   6.272
 6827WAT    EPW28030   2.685   6.189   6.281
 6828WAT      O28031   3.270   6.407   6.052
 6828WAT     H128032   3.340   6.458   6.059
 6828WAT     H228033   3.298   6.329   6.079
 6828WAT    EPW28034   3.284   6.403   6.057
 6829WAT      O28035   3.074   6.453   6.242
 6829WAT     H128036   3.099   6.522   6.290
 6829WAT     H228037   3.138   6.445   6.183
 6829WAT    EPW28038   3.087   6.462   6.240
 6830WAT      O28039   2.405   4.934   6.772
 6830WAT     H128040   2.362   4.863   6.744
 6830WAT     H228041   2.468   4.901   6.823
 6830WAT    EPW28042   2.408   4.919   6.775
 6831WAT      O28043   2.214   6.312   6.337
 6831WAT     H128044   2.261   6.239   6.349
 6831WAT     H228045   2.267   6.363   6.290
 6831WAT    EPW28046   2.229   6.308   6.332
 6832WAT      O28047   3.822   5.102   6.479
 6832WAT     H128048   3.771   5.171   6.491
 6832WAT     H228049   3.766   5.038   6.459
 6832WAT    EPW28050   3.806   5.102   6.478
 6833WAT      O28051   3.340   6.437   7.055
 6833WAT     H128052   3.411   6.486   7.045
 6833WAT     H228053   3.319   6.412   6.974
 6833WAT    EPW28054   3.347   6.440   7.042
 6834WAT      O28055   2.273   5.126   7.549
 6834WAT     H128056   2.206   5.071   7.545
 6834WAT     H228057   2.338   5.081   7.511
 6834WAT    EPW28058   2.273   5.111   7.543
 6835WAT      O28059   2.357   6.116   6.687
 6835WAT     H128060   2.415   6.099   6.624
 6835WAT     H228061   2.381   6.063   6.752
 6835WAT    EPW28062   2.369   6.106   6.687
 6836WAT      O28063   2.656   6.443   6.605
 6836WAT     H128064   2.734   6.456   6.570
 6836WAT     H228065   2.602   6.490   6.554
 6836WAT    EPW28066   2.659   6.452   6.592
 6837WAT      O28067   2.952   4.903   7.514
 6837WAT     H128068   2.960   4.821   7.484
 6837WAT     H228069   2.879   4.931   7.475
 6837WAT    EPW28070   2.942   4.895   7.504
 6838WAT      O28071   3.030   5.366   6.404
 6838WAT     H128072   3.071   5.322   6.341
 6838WAT     H228073   3.095   5.398   6.453
 6838WAT    EPW28074   3.046   5.364   6.402
 6839WAT      O28075   3.476   6.600   6.042
 6839WAT     H128076   3.526   6.581   5.973
 6839WAT     H228077   3.527   6.649   6.092
 6839WAT    EPW28078   3.491   6.604   6.039
 6840WAT      O28079   2.567   6.460   7.152
 6840WAT     H128080   2.573   6.484   7.236
 6840WAT     H228081   2.486   6.427   7.147
 6840WAT    EPW28082   2.556   6.459   7.164
 6841WAT      O28083   3.758   5.043   6.934
 6841WAT     H128084   3.816   5.030   6.871
 6841WAT     H228085   3.789   4.995   7.001
 6841WAT    EPW28086   3.771   5.034   6.935
 6842WAT      O28087   1.985   5.118   7.281
 6842WAT     H128088   1.981   5.180   7.342
 6842WAT     H228089   2.049   5.145   7.228
 6842WAT    EPW28090   1.994   5.131   7.282
 6843WAT      O28091   3.189   6.194   7.463
 6843WAT     H128092   3.183   6.124   7.515
 6843WAT     H228093   3.275   6.203   7.452
 6843WAT    EPW28094   3.201   6.185   7.469
 6844WAT      O28095   2.969   6.233   5.862
 6844WAT     H128096   2.939   6.295   5.916
 6844WAT     H228097   3.048   6.263   5.838
 6844WAT    EPW28098   2.976   6.246   5.866
 6845WAT      O28099   3.332   4.980   6.029
 6845WAT     H128100   3.393   4.919   6.020
 6845WAT     H228101   3.357   5.023   6.101
 6845WAT    EPW28102   3.345   4.977   6.038
 6846WAT      O28103   2.139   5.075   6.271
 6846WAT     H128104   2.115   4.992   6.257
 6846WAT     H228105   2.090   5.100   6.339
 6846WAT    EPW28106   2.128   5.066   6.279
 6847WAT      O28107   2.306   6.370   7.055
 6847WAT     H128108   2.250   6.303   7.054
 6847WAT     H228109   2.344   6.367   6.976
 6847WAT    EPW28110   2.304   6.360   7.043
 6848WAT      O28111   3.128   5.220   6.176
 6848WAT     H128112   3.050   5.190   6.149
 6848WAT     H228113   3.170   5.237   6.101
 6848WAT    EPW28114   3.122   5.218   6.161
 6849WAT      O28115   3.092   6.482   7.169
 6849WAT     H128116   3.172   6.473   7.135
 6849WAT     H228117   3.040   6.481   7.099
 6849WAT    EPW28118   3.096   6.481   7.154
 6850WAT      O28119   3.078   4.877   6.070
 6850WAT     H128120   3.029   4.891   5.999
 6850WAT     H228121   3.155   4.913   6.049
 6850WAT    EPW28122   3.082   4.885   6.057
 6851WAT      O28123   3.783   6.540   6.429
 6851WAT     H128124   3.745   6.616   6.449
 6851WAT     H228125   3.716   6.487   6.412
 6851WAT    EPW28126   3.768   6.543   6.429
 6852WAT      O28127   2.909   5.186   6.586
 6852WAT     H128128   2.940   5.252   6.538
 6852WAT     H228129   2.917   5.214   6.668
 6852WAT    EPW28130   2.915   5.200   6.591
 6853WAT      O28131   3.502   6.141   6.497
 6853WAT     H128132   3.559   6.076   6.487
 6853WAT     H228133   3.425   6.102   6.486
 6853WAT    EPW28134   3.499   6.126   6.494
 6854WAT      O28135   2.473   6.185   7.346
 6854WAT     H128136   2.550   6.210   7.313
 6854WAT     H228137   2.460   6.242   7.411
 6854WAT    EPW28138   2.483   6.197   7.351
 6855WAT      O28139   2.458   4.732   6.411
 6855WAT     H128140   2.479   4.815   6.392
 6855WAT     H228141   2.422   4.703   6.337
 6855WAT    EPW28142   2.456   4.740   6.397
 6856WAT      O28143   2.663   5.802   6.767
 6856WAT     H128144   2.688   5.789   6.849
 6856WAT     H228145   2.610   5.735   6.750
 6856WAT    EPW28146   2.658   5.790   6.776
 6857WAT      O28147   3.218   5.177   7.137
 6857WAT     H128148   3.221   5.197   7.221
 6857WAT     H228149   3.162   5.110   7.133
 6857WAT    EPW28150   3.210   5.170   7.149
 6858WAT      O28151   2.765   5.816   7.024
 6858WAT     H128152   2.737   5.899   7.032
 6858WAT     H228153   2.733   5.777   7.095
 6858WAT    EPW28154   2.756   5.822   7.036
 6859WAT      O28155   3.419   5.897   7.071
 6859WAT     H128156   3.342   5.861   7.089
 6859WAT     H228157   3.399   5.980   7.054
 6859WAT    EPW28158   3.405   5.904   7.071
 6860WAT      O28159   3.397   4.737   6.423
 6860WAT     H128160   3.395   4.715   6.507
 6860WAT     H228161   3.437   4.669   6.385
 6860WAT    EPW28162   3.403   4.724   6.429
 6861WAT      O28163   3.591   5.123   7.304
 6861WAT     H128164   3.677   5.140   7.298
 6861WAT     H228165   3.570   5.152   7.384
 6861WAT    EPW28166   3.601   5.130   7.315
 6862WAT      O28167   2.416   5.117   6.568
 6862WAT     H128168   2.446   5.067   6.503
 6862WAT     H228169   2.410   5.062   6.635
 6862WAT    EPW28170   2.420   5.102   6.569
 6863WAT      O28171   3.689   5.927   5.984
 6863WAT     H128172   3.688   5.876   6.055
 6863WAT     H228173   3.775   5.941   5.971
 6863WAT    EPW28174   3.702   5.921   5.993
 6864WAT      O28175   2.462   5.904   6.499
 6864WAT     H128176   2.525   5.874   6.447
 6864WAT     H228177   2.407   5.836   6.506
 6864WAT    EPW28178   2.463   5.890   6.493
 6865WAT      O28179   2.296   6.552   6.656
 6865WAT     H128180   2.221   6.514   6.631
 6865WAT     H228181   2.341   6.558   6.581
 6865WAT    EPW28182   2.291   6.547   6.641
 6866WAT      O28183   2.263   5.244   6.859
 6866WAT     H128184   2.347   5.268   6.854
 6866WAT     H228185   2.220   5.311   6.824
 6866WAT    EPW28186   2.269   5.258   6.853
 6867WAT      O28187   3.913   6.314   7.370
 6867WAT     H128188   3.837   6.327   7.328
 6867WAT     H228189   3.888   6.284   7.448
 6867WAT    EPW28190   3.898   6.312   7.375
 6868WAT      O28191   3.527   5.565   5.899
 6868WAT     H128192   3.516   5.646   5.869
 6868WAT     H228193   3.506   5.572   5.984
 6868WAT    EPW28194   3.522   5.578   5.907
 6869WAT      O28195   2.639   5.839   6.292
 6869WAT     H128196   2.695   5.905   6.290
 6869WAT     H228197   2.684   5.772   6.258
 6869WAT    EPW28198   2.654   5.839   6.287
 6870WAT      O28199   2.101   6.000   6.660
 6870WAT     H128200   2.050   6.062   6.695
 6870WAT     H228201   2.180   6.037   6.658
 6870WAT    EPW28202   2.105   6.015   6.665
 6871WAT      O28203   3.930   5.469   7.154
 6871WAT     H128204   3.946   5.394   7.112
 6871WAT     H228205   3.847   5.486   7.133
 6871WAT    EPW28206   3.920   5.460   7.145
 6872WAT      O28207   2.145   5.682   6.255
 6872WAT     H128208   2.126   5.597   6.255
 6872WAT     H228209   2.219   5.685   6.208
 6872WAT    EPW28210   2.153   5.670   6.248
 6873WAT      O28211   3.090   6.276   6.599
 6873WAT     H128212   3.040   6.343   6.577
 6873WAT     H228213   3.112   6.240   6.522
 6873WAT    EPW28214   3.086   6.280   6.584
 6874WAT      O28215   2.044   6.155   6.181
 6874WAT     H128216   2.097   6.210   6.223
 6874WAT     H228217   2.039   6.086   6.235
 6874WAT    EPW28218   2.051   6.153   6.195
 6875WAT      O28219   2.457   5.950   6.882
 6875WAT     H128220   2.508   5.995   6.937
 6875WAT     H228221   2.514   5.908   6.832
 6875WAT    EPW28222   2.473   5.950   6.883
 6876WAT      O28223   3.393   5.189   6.621
 6876WAT     H128224   3.357   5.268   6.625
 6876WAT     H228225   3.327   5.138   6.595
 6876WAT    EPW28226   3.378   5.193   6.618
 6877WAT      O28227   2.068   5.990   5.951
 6877WAT     H128228   2.144   5.946   5.952
 6877WAT     H228229   2.075   6.043   6.019
 6877WAT    EPW28230   2.081   5.991   5.961
 6878WAT      O28231   2.129   5.730   6.719
 6878WAT     H128232   2.182   5.710   6.653
 6878WAT     H228233   2.119   5.817   6.712
 6878WAT    EPW28234   2.136   5.740   6.708
 6879WAT      O28235   2.866   5.159   6.070
 6879WAT     H128236   2.838   5.130   5.992
 6879WAT     H228237   2.822   5.234   6.080
 6879WAT    EPW28238   2.855   5.166   6.060
 6880WAT      O28239   3.654   6.342   7.252
 6880WAT     H128240   3.618   6.422   7.260
 6880WAT     H228241   3.645   6.323   7.168
 6880WAT    EPW28242   3.647   6.351   7.241
 6881WAT      O28243   2.606   6.182   6.532
 6881WAT     H128244   2.612   6.265   6.559
 6881WAT     H228245   2.677   6.145   6.566
 6881WAT    EPW28246   2.617   6.189   6.541
 6882WAT      O28247   2.231   5.399   7.482
 6882WAT     H128248   2.249   5.322   7.518
 6882WAT     H228249   2.278   5.399   7.408
 6882WAT    EPW28250   2.241   5.387   7.476
 6883WAT      O28251   2.434   5.405   6.043
 6883WAT     H128252   2.419   5.345   6.104
 6883WAT     H228253   2.391   5.376   5.973
 6883WAT    EPW28254   2.426   5.392   6.042
 6884WAT      O28255   2.486   5.597   6.726
 6884WAT     H128256   2.477   5.568   6.645
 6884WAT     H228257   2.497   5.524   6.773
 6884WAT    EPW28258   2.487   5.582   6.721
 6885WAT      O28259   2.462   5.562   7.072
 6885WAT     H128260   2.488   5.511   7.005
 6885WAT     H228261   2.405   5.616   7.036
 6885WAT    EPW28262   2.458   5.562   7.057
 6886WAT      O28263   3.550   5.407   6.905
 6886WAT     H128264   3.465   5.408   6.925
 6886WAT     H228265   3.552   5.442   6.825
 6886WAT    EPW28266   3.538   5.412   6.896
 6887WAT      O28267   2.892   6.476   6.978
 6887WAT     H128268   2.851   6.406   6.944
 6887WAT     H228269   2.884   6.536   6.916
 6887WAT    EPW28270   2.884   6.474   6.964
 6888WAT      O28271   3.232   4.891   7.215
 6888WAT     H128272   3.189   4.816   7.197
 6888WAT     H228273   3.220   4.901   7.301
 6888WAT    EPW28274   3.224   4.881   7.225
 6889WAT      O28275   3.392   5.123   6.258
 6889WAT     H128276   3.436   5.197   6.244
 6889WAT     H228277   3.309   5.150   6.266
 6889WAT    EPW28278   3.386   5.138   6.257
 6890WAT      O28279   2.147   5.660   7.571
 6890WAT     H128280   2.194   5.717   7.526
 6890WAT     H228281   2.180   5.583   7.548
 6890WAT    EPW28282   2.159   5.657   7.561
 6891WAT      O28283   3.437   5.952   7.505
 6891WAT     H128284   3.460   6.035   7.492
 6891WAT     H228285   3.474   5.910   7.438
 6891WAT    EPW28286   3.446   5.958   7.493
 6892WAT      O28287   2.824   6.296   7.530
 6892WAT     H128288   2.823   6.282   7.616
 6892WAT     H228289   2.810   6.217   7.495
 6892WAT    EPW28290   2.822   6.282   7.537
 6893WAT      O28291   2.922   5.237   6.858
 6893WAT     H128292   2.964   5.311   6.880
 6893WAT     H228293   2.968   5.175   6.898
 6893WAT    EPW28294   2.935   5.239   6.867
 6894WAT      O28295   3.185   5.595   6.035
 6894WAT     H128296   3.164   5.667   5.991
 6894WAT     H228297   3.133   5.598   6.105
 6894WAT    EPW28298   3.174   5.606   6.039
 6895WAT      O28299   3.665   5.916   6.473
 6895WAT     H128300   3.675   5.871   6.547
 6895WAT     H228301   3.621   5.861   6.421
 6895WAT    EPW28302   3.660   5.901   6.476
 6896WAT      O28303   3.281   6.328   6.802
 6896WAT     H128304   3.218   6.306   6.745
 6896WAT     H228305   3.322   6.394   6.764
 6896WAT    EPW28306   3.278   6.334   6.788
 6897WAT      O28307   3.299   5.929   6.759
 6897WAT     H128308   3.230   5.968   6.795
 6897WAT     H228309   3.288   5.845   6.780
 6897WAT    EPW28310   3.287   5.922   6.768
 6898WAT      O28311   2.672   6.462   6.196
 6898WAT     H128312   2.675   6.385   6.236
 6898WAT     H228313   2.737   6.458   6.138
 6898WAT    EPW28314   2.682   6.450   6.194
 6899WAT      O28315   2.665   4.815   5.942
 6899WAT     H128316   2.655   4.763   6.012
 6899WAT     H228317   2.607   4.878   5.955
 6899WAT    EPW28318   2.655   4.816   5.955
 6900WAT      O28319   2.892   6.438   6.032
 6900WAT     H128320   2.950   6.446   6.097
 6900WAT     H228321   2.896   6.515   5.992
 6900WAT    EPW28322   2.901   6.450   6.036
 6901WAT      O28323   3.552   5.813   7.300
 6901WAT     H128324   3.514   5.839   7.226
 6901WAT     H228325   3.637   5.830   7.287
 6901WAT    EPW28326   3.559   5.819   7.287
 6902WAT      O28327   3.655   4.854   7.548
 6902WAT     H128328   3.615   4.809   7.484
 6902WAT     H228329   3.631   4.812   7.621
 6902WAT    EPW28330   3.646   4.841   7.549
 6903WAT      O28331   2.399   5.682   6.135
 6903WAT     H128332   2.414   5.598   6.119
 6903WAT     H228333   2.464   5.705   6.188
 6903WAT    EPW28334   2.411   5.673   6.140
 6904WAT      O28335   3.172   5.795   7.144
 6904WAT     H128336   3.120   5.834   7.202
 6904WAT     H228337   3.197   5.722   7.184
 6904WAT    EPW28338   3.168   5.790   7.159
 6905WAT      O28339   2.036   4.810   6.234
 6905WAT     H128340   2.034   4.755   6.167
 6905WAT     H228341   2.006   4.762   6.301
 6905WAT    EPW28342   2.031   4.795   6.234
 6906WAT      O28343   3.023   5.608   6.260
 6906WAT     H128344   3.037   5.674   6.317
 6906WAT     H228345   3.020   5.538   6.312
 6906WAT    EPW28346   3.025   5.608   6.276
 6907WAT      O28347   3.527   6.102   6.780
 6907WAT     H128348   3.521   6.130   6.697
 6907WAT     H228349   3.462   6.043   6.786
 6907WAT    EPW28350   3.516   6.098   6.768
 6908WAT      O28351   2.489   5.034   5.940
 6908WAT     H128352   2.429   5.027   5.877
 6908WAT     H228353   2.554   5.078   5.902
 6908WAT    EPW28354   2.490   5.040   5.925
 6909WAT      O28355   2.916   5.843   6.665
 6909WAT     H128356   2.833   5.824   6.683
 6909WAT     H228357   2.960   5.812   6.734
 6909WAT    EPW28358   2.910   5.836   6.678
 6910WAT      O28359   2.578   6.453   5.826
 6910WAT     H128360   2.599   6.384   5.875
 6910WAT     H228361   2.590   6.521   5.879
 6910WAT    EPW28362   2.583   6.453   5.841
 6911WAT      O28363   2.284   5.746   6.957
 6911WAT     H128364   2.334   5.814   6.940
 6911WAT     H228365   2.240   5.733   6.883
 6911WAT    EPW28366   2.285   5.754   6.944
 6912WAT      O28367   2.630   5.287   6.607
 6912WAT     H128368   2.708   5.250   6.596
 6912WAT     H228369   2.573   5.222   6.593
 6912WAT    EPW28370   2.633   5.272   6.603
 6913WAT      O28371   3.872   6.505   5.998
 6913WAT     H128372   3.941   6.458   5.972
 6913WAT     H228373   3.826   6.448   6.046
 6913WAT    EPW28374   3.876   6.489   6.001
 6914WAT      O28375   2.103   5.406   6.267
 6914WAT     H128376   2.137   5.367   6.336
 6914WAT     H228377   2.114   5.349   6.202
 6914WAT    EPW28378   2.109   5.392   6.267
 6915WAT      O28379   3.657   5.797   6.961
 6915WAT     H128380   3.666   5.724   7.008
 6915WAT     H228381   3.576   5.825   6.982
 6915WAT    EPW28382   3.646   5.791   6.971
 6916WAT      O28383   2.579   5.564   5.833
 6916WAT     H128384   2.536   5.527   5.899
 6916WAT     H228385   2.529   5.544   5.763
 6916WAT    EPW28386   2.565   5.555   5.832
 6917WAT      O28387   2.260   5.851   7.395
 6917WAT     H128388   2.226   5.805   7.329
 6917WAT     H228389   2.232   5.932   7.380
 6917WAT    EPW28390   2.251   5.856   7.383
 6918WAT      O28391   3.731   5.760   6.695
 6918WAT     H128392   3.705   5.777   6.777
 6918WAT     H228393   3.816   5.746   6.703
 6918WAT    EPW28394   3.740   5.761   6.708
 6919WAT      O28395   2.715   5.391   6.058
 6919WAT     H128396   2.731   5.467   6.098
 6919WAT     H228397   2.628   5.385   6.060
 6919WAT    EPW28398   2.705   5.402   6.064
 6920WAT      O28399   3.499   5.213   7.560
 6920WAT     H128400   3.489   5.290   7.599
 6920WAT     H228401   3.461   5.157   7.615
 6920WAT    EPW28402   3.492   5.216   7.574
 6921WAT      O28403   2.075   5.046   6.737
 6921WAT     H128404   2.055   5.077   6.658
 6921WAT     H228405   2.147   5.089   6.759
 6921WAT    EPW28406   2.083   5.057   6.729
 6922WAT      O28407   3.910   6.334   6.851
 6922WAT     H128408   3.917   6.339   6.765
 6922WAT     H228409   3.933   6.414   6.878
 6922WAT    EPW28410   3.914   6.347   6.843
 6923WAT      O28411   3.410   5.494   7.609
 6923WAT     H128412   3.458   5.560   7.637
 6923WAT     H228413   3.328   5.523   7.615
 6923WAT    EPW28414   3.405   5.508   7.614
 6924WAT      O28415   3.532   5.541   7.358
 6924WAT     H128416   3.543   5.627   7.359
 6924WAT     H228417   3.505   5.523   7.438
 6924WAT    EPW28418   3.530   5.551   7.370
 6925WAT      O28419   3.548   6.164   5.993
 6925WAT     H128420   3.589   6.087   5.996
 6925WAT     H228421   3.475   6.150   6.039
 6925WAT    EPW28422   3.543   6.150   6.000
 6926WAT      O28423   3.621   5.295   6.490
 6926WAT     H128424   3.552   5.252   6.524
 6926WAT     H228425   3.627   5.366   6.540
 6926WAT    EPW28426   3.611   5.299   6.503
 6927WAT      O28427   3.822   5.875   7.276
 6927WAT     H128428   3.884   5.821   7.248
 6927WAT     H228429   3.818   5.936   7.215
 6927WAT    EPW28430   3.830   5.876   7.263
 6928WAT      O28431   3.236   5.931   5.953
 6928WAT     H128432   3.313   5.892   5.939
 6928WAT     H228433   3.208   5.950   5.872
 6928WAT    EPW28434   3.243   5.928   5.939
 6929WAT      O28435   2.665   6.077   7.020
 6929WAT     H128436   2.679   6.120   7.095
 6929WAT     H228437   2.688   6.135   6.959
 6929WAT    EPW28438   2.670   6.092   7.022
 6930WAT      O28439   2.531   5.914   7.374
 6930WAT     H128440   2.453   5.880   7.392
 6930WAT     H228441   2.514   5.998   7.358
 6930WAT    EPW28442   2.517   5.922   7.374
 6931WAT      O28443   3.014   5.766   6.923
 6931WAT     H128444   3.067   5.764   6.992
 6931WAT     H228445   2.935   5.773   6.958
 6931WAT    EPW28446   3.010   5.767   6.938
 6932WAT      O28447   2.661   5.265   7.309
 6932WAT     H128448   2.682   5.186   7.337
 6932WAT     H228449   2.684   5.264   7.225
 6932WAT    EPW28450   2.667   5.254   7.301
 6933WAT      O28451   2.915   6.475   6.499
 6933WAT     H128452   2.919   6.561   6.514
 6933WAT     H228453   2.929   6.468   6.413
 6933WAT    EPW28454   2.918   6.487   6.489
 6934WAT      O28455   3.574   4.783   7.086
 6934WAT     H128456   3.578   4.727   7.019
 6934WAT     H228457   3.658   4.804   7.100
 6934WAT    EPW28458   3.587   4.778   7.078
 6935WAT      O28459   2.811   4.860   7.133
 6935WAT     H128460   2.880   4.902   7.100
 6935WAT     H228461   2.820   4.779   7.103
 6935WAT    EPW28462   2.823   4.854   7.124
 6936WAT      O28463   2.746   6.277   6.842
 6936WAT     H128464   2.693   6.325   6.792
 6936WAT     H228465   2.789   6.227   6.785
 6936WAT    EPW28466   2.744   6.277   6.826
 6937WAT      O28467   3.166   5.910   7.544
 6937WAT     H128468   3.251   5.919   7.525
 6937WAT     H228469   3.127   5.919   7.466
 6937WAT    EPW28470   3.173   5.913   7.529
 6938WAT      O28471   3.474   6.228   7.445
 6938WAT     H128472   3.478   6.295   7.501
 6938WAT     H228473   3.526   6.253   7.379
 6938WAT    EPW28474   3.482   6.242   7.443
 6939WAT      O28475   2.782   5.742   5.896
 6939WAT     H128476   2.719   5.690   5.866
 6939WAT     H228477   2.745   5.822   5.894
 6939WAT    EPW28478   2.767   5.746   5.891
 6940WAT      O28479   2.526   5.357   6.857
 6940WAT     H128480   2.562   5.332   6.782
 6940WAT     H228481   2.581   5.327   6.918
 6940WAT    EPW28482   2.540   5.349   6.855
 6941WAT      O28483   3.249   5.233   7.408
 6941WAT     H128484   3.197   5.301   7.427
 6941WAT     H228485   3.325   5.255   7.445
 6941WAT    EPW28486   3.252   5.247   7.416
 6942WAT      O28487   3.296   5.414   7.015
 6942WAT     H128488   3.290   5.466   7.086
 6942WAT     H228489   3.267   5.337   7.044
 6942WAT    EPW28490   3.291   5.410   7.030
 6943WAT      O28491   3.015   6.493   7.444
 6943WAT     H128492   3.029   6.476   7.360
 6943WAT     H228493   2.971   6.422   7.472
 6943WAT    EPW28494   3.010   6.480   7.436
 6944WAT      O28495   3.544   5.353   6.230
 6944WAT     H128496   3.574   5.344   6.311
 6944WAT     H228497   3.617   5.355   6.181
 6944WAT    EPW28498   3.559   5.352   6.235
 6945WAT      O28499   2.837   4.838   6.794
 6945WAT     H128500   2.755   4.819   6.817
 6945WAT     H228501   2.832   4.854   6.708
 6945WAT    EPW28502   2.824   4.838   6.785
 6946WAT      O28503   3.581   4.943   6.393
 6946WAT     H128504   3.520   4.882   6.411
 6946WAT     H228505   3.535   5.007   6.355
 6946WAT    EPW28506   3.565   4.943   6.390
 6947WAT      O28507   3.680   5.761   6.204
 6947WAT     H128508   3.752   5.711   6.209
 6947WAT     H228509   3.616   5.703   6.193
 6947WAT    EPW28510   3.681   5.745   6.203
 6948WAT      O28511   3.010   5.950   7.313
 6948WAT     H128512   2.934   5.950   7.357
 6948WAT     H228513   3.014   6.031   7.280
 6948WAT    EPW28514   2.999   5.962   7.315
 6949WAT      O28515   2.074   4.935   7.474
 6949WAT     H128516   2.047   4.989   7.412
 6949WAT     H228517   2.000   4.899   7.504
 6949WAT    EPW28518   2.059   4.937   7.469
 6950WAT      O28519   2.577   6.580   6.898
 6950WAT     H128520   2.577   6.551   6.980
 6950WAT     H228521   2.542   6.514   6.852
 6950WAT    EPW28522   2.572   6.566   6.903
 6951WAT      O28523   2.393   5.159   6.177
 6951WAT     H128524   2.407   5.115   6.103
 6951WAT     H228525   2.312   5.134   6.201
 6951WAT    EPW28526   2.383   5.149   6.169
 6952WAT      O28527   3.286   5.959   6.485
 6952WAT     H128528   3.286   5.950   6.572
 6952WAT     H228529   3.334   5.891   6.458
 6952WAT    EPW28530   3.293   5.947   6.494
 6953WAT      O28531   3.042   5.840   6.418
 6953WAT     H128532   3.003   5.831   6.495
 6953WAT     H228533   3.118   5.879   6.436
 6953WAT    EPW28534   3.047   5.844   6.432
 6954WAT      O28535   3.009   6.228   7.258
 6954WAT     H128536   3.062   6.224   7.327
 6954WAT     H228537   3.041   6.295   7.212
 6954WAT    EPW28538   3.022   6.238   7.261
 6955WAT      O28539   3.824   5.397   7.457
 6955WAT     H128540   3.776   5.468   7.439
 6955WAT     H228541   3.906   5.427   7.453
 6955WAT    EPW28542   3.829   5.412   7.454
 6956WAT      O28543   3.276   5.563   7.248
 6956WAT     H128544   3.219   5.528   7.305
 6956WAT     H228545   3.353   5.552   7.287
 6956WAT    EPW28546   3.279   5.556   7.263
 6957WAT      O28547   2.214   6.544   7.410
 6957WAT     H128548   2.155   6.480   7.403
 6957WAT     H228549   2.167   6.610   7.445
 6957WAT    EPW28550   2.198   6.544   7.414
 6958WAT      O28551   3.159   5.644   7.634
 6958WAT     H128552   3.162   5.727   7.607
 6958WAT     H228553   3.115   5.648   7.709
 6958WAT    EPW28554   3.153   5.657   7.641
 6959WAT      O28555   3.411   6.572   6.751
 6959WAT     H128556   3.351   6.631   6.775
 6959WAT     H228557   3.473   6.580   6.811
 6959WAT    EPW28558   3.411   6.582   6.763
 6960WAT      O28559   3.085   6.042   6.891
 6960WAT     H128560   3.050   5.967   6.919
 6960WAT     H228561   3.129   6.071   6.961
 6960WAT    EPW28562   3.087   6.035   6.906
 6961WAT      O28563   2.394   5.360   7.254
 6961WAT     H128564   2.414   5.428   7.203
 6961WAT     H228565   2.472   5.329   7.278
 6961WAT    EPW28566   2.409   5.365   7.250
 6962WAT      O28567   2.196   5.212   7.124
 6962WAT     H128568   2.214   5.222   7.039
 6962WAT     H228569   2.256   5.260   7.163
 6962WAT    EPW28570   2.207   5.221   7.117
 6963WAT      O28571   2.437   4.938   7.402
 6963WAT     H128572   2.395   4.864   7.423
 6963WAT     H228573   2.408   4.955   7.321
 6963WAT    EPW28574   2.427   4.929   7.393
 6964WAT      O28575   3.110   6.191   6.329
 6964WAT     H128576   3.089   6.271   6.301
 6964WAT     H228577   3.037   6.144   6.316
 6964WAT    EPW28578   3.096   6.196   6.323
 6965WAT      O28579   3.667   5.556   7.105
 6965WAT     H128580   3.627   5.505   7.047
 6965WAT     H228581   3.625   5.540   7.180
 6965WAT    EPW28582   3.655   5.546   7.108
 6966WAT      O28583   2.133   5.720   7.189
 6966WAT     H128584   2.175   5.732   7.113
 6966WAT     H228585   2.109   5.636   7.185
 6966WAT    EPW28586   2.136   5.710   7.177
 6967WAT      O28587   2.289   5.297   5.826
 6967WAT     H128588   2.218   5.294   5.876
 6967WAT     H228589   2.293   5.217   5.791
 6967WAT    EPW28590   2.279   5.285   5.828
 6968WAT      O28591   3.217   4.966   7.486
 6968WAT     H128592   3.223   5.052   7.469
 6968WAT     H228593   3.133   4.955   7.507
 6968WAT    EPW28594   3.205   4.977   7.487
 6969WAT      O28595   3.159   5.028   6.575
 6969WAT     H128596   3.086   5.075   6.579
 6969WAT     H228597   3.144   4.972   6.510
 6969WAT    EPW28598   3.146   5.027   6.566
 6970WAT      O28599   2.599   6.221   5.994
 6970WAT     H128600   2.637   6.217   6.073
 6970WAT     H228601   2.516   6.201   6.011
 6970WAT    EPW28602   2.593   6.218   6.008
 6971WAT      O28603   3.490   5.049   6.846
 6971WAT     H128604   3.576   5.049   6.854
 6971WAT     H228605   3.476   5.105   6.780
 6971WAT    EPW28606   3.500   5.057   6.837
 6972WAT      O28607   2.649   5.691   7.242
 6972WAT     H128608   2.607   5.756   7.283
 6972WAT     H228609   2.586   5.652   7.196
 6972WAT    EPW28610   2.634   5.695   7.241
 6973WAT      O28611   3.600   5.518   6.654
 6973WAT     H128612   3.636   5.597   6.659
 6973WAT     H228613   3.517   5.534   6.633
 6973WAT    EPW28614   3.593   5.532   6.652
 6974WAT      O28615   3.554   6.388   6.373
 6974WAT     H128616   3.537   6.311   6.410
 6974WAT     H228617   3.588   6.367   6.296
 6974WAT    EPW28618   3.557   6.374   6.367
 6975WAT      O28619   2.346   6.132   6.049
 6975WAT     H128620   2.343   6.114   6.134
 6975WAT     H228621   2.348   6.053   6.012
 6975WAT    EPW28622   2.346   6.118   6.056
 6976WAT      O28623   2.624   5.972   5.865
 6976WAT     H128624   2.544   5.943   5.882
 6976WAT     H228625   2.627   6.049   5.906
 6976WAT    EPW28626   2.612   5.979   5.873
 6977WAT      O28627   2.596   5.016   7.027
 6977WAT     H128628   2.517   4.996   7.058
 6977WAT     H228629   2.645   4.948   7.049
 6977WAT    EPW28630   2.592   5.003   7.035
 6978WAT      O28631   3.832   4.864   7.141
 6978WAT     H128632   3.845   4.886   7.224
 6978WAT     H228633   3.906   4.824   7.118
 6978WAT    EPW28634   3.845   4.861   7.150
 6979WAT      O28635   3.015   4.982   6.955
 6979WAT     H128636   2.957   4.945   6.901
 6979WAT     H228637   3.091   4.950   6.928
 6979WAT    EPW28638   3.017   4.972   6.943
 6980WAT      O28639   3.319   6.152   7.024
 6980WAT     H128640   3.334   6.223   7.074
 6980WAT     H228641   3.319   6.184   6.943
 6980WAT    EPW28642   3.321   6.167   7.020
 6981WAT      O28643   3.294   6.568   7.473
 6981WAT     H128644   3.215   6.532   7.477
 6981WAT     H228645   3.279   6.652   7.490
 6981WAT    EPW28646   3.280   6.575   7.476
 6982WAT      O28647   2.820   5.495   7.368
 6982WAT     H128648   2.770   5.424   7.359
 6982WAT     H228649   2.772   5.558   7.330
 6982WAT    EPW28650   2.806   5.494   7.361
 6983WAT      O28651   2.923   4.825   5.841
 6983WAT     H128652   2.918   4.826   5.754
 6983WAT     H228653   2.840   4.827   5.866
 6983WAT    EPW28654   2.910   4.825   5.832
 6984WAT      O28655   3.801   6.023   7.040
 6984WAT     H128656   3.758   5.954   7.007
 6984WAT     H228657   3.747   6.089   7.025
 6984WAT    EPW28658   3.786   6.022   7.033
 6985WAT      O28659   2.650   6.499   7.424
 6985WAT     H128660   2.688   6.576   7.438
 6985WAT     H228661   2.709   6.442   7.452
 6985WAT    EPW28662   2.664   6.502   7.430
 6986WAT      O28663   3.662   6.254   6.976
 6986WAT     H128664   3.726   6.287   6.927
 6986WAT     H228665   3.609   6.216   6.918
 6986WAT    EPW28666   3.663   6.253   6.961
 6987WAT      O28667   2.346   4.977   7.146
 6987WAT     H128668   2.292   4.911   7.124
 6987WAT     H228669   2.297   5.048   7.133
 6987WAT    EPW28670   2.331   4.978   7.141
 6988WAT      O28671   3.256   4.904   6.810
 6988WAT     H128672   3.328   4.951   6.820
 6988WAT     H228673   3.219   4.937   6.738
 6988WAT    EPW28674   3.261   4.916   6.801
 6989WAT      O28675   2.417   6.386   7.527
 6989WAT     H128676   2.489   6.433   7.507
 6989WAT     H228677   2.352   6.436   7.499
 6989WAT    EPW28678   2.418   6.400   7.520
 6990WAT      O28679   2.228   5.320   6.504
 6990WAT     H128680   2.183   5.344   6.575
 6990WAT     H228681   2.268   5.247   6.529
 6990WAT    EPW28682   2.227   5.313   6.518
 6991WAT      O28683   2.205   6.116   7.302
 6991WAT     H128684   2.156   6.182   7.329
 6991WAT     H228685   2.286   6.146   7.309
 6991WAT    EPW28686   2.210   6.130   7.307
 6992WAT      O28687   3.439   5.600   6.162
 6992WAT     H128688   3.456   5.519   6.188
 6992WAT     H228689   3.359   5.595   6.128
 6992WAT    EPW28690   3.430   5.587   6.161
 6993WAT      O28691   2.393   6.460   6.181
 6993WAT     H128692   2.363   6.473   6.100
 6993WAT     H228693   2.480   6.455   6.171
 6993WAT    EPW28694   2.402   6.461   6.168
 6994WAT      O28695   2.772   5.642   6.154
 6994WAT     H128696   2.785   5.681   6.077
 6994WAT     H228697   2.852   5.635   6.187
 6994WAT    EPW28698   2.785   5.647   6.148
 6995WAT      O28699   3.653   6.543   5.836
 6995WAT     H128700   3.726   6.532   5.882
 6995WAT     H228701   3.637   6.464   5.803
 6995WAT    EPW28702   3.661   6.530   5.838
 6996WAT      O28703   3.789   5.729   7.520
 6996WAT     H128704   3.870   5.715   7.551
 6996WAT     H228705   3.802   5.785   7.454
 6996WAT    EPW28706   3.803   5.735   7.515
 6997WAT      O28707   3.307   6.139   6.130
 6997WAT     H128708   3.258   6.139   6.202
 6997WAT     H228709   3.275   6.074   6.083
 6997WAT    EPW28710   3.295   6.130   6.134
 6998WAT      O28711   3.818   5.165   7.618
 6998WAT     H128712   3.819   5.244   7.581
 6998WAT     H228713   3.736   5.138   7.606
 6998WAT    EPW28714   3.806   5.173   7.611
 6999WAT      O28715   3.815   5.318   6.906
 6999WAT     H128716   3.732   5.344   6.905
 6999WAT     H228717   3.809   5.232   6.919
 6999WAT    EPW28718   3.802   5.310   6.908
 7000WAT      O28719   2.715   4.974   7.373
 7000WAT     H128720   2.733   4.941   7.295
 7000WAT     H228721   2.629   4.961   7.381
 7000WAT    EPW28722   2.705   4.967   7.363
 7001WAT      O28723   3.545   5.730   7.653
 7001WAT     H128724   3.626   5.731   7.621
 7001WAT     H228725   3.511   5.805   7.626
 7001WAT    EPW28726   3.552   5.741   7.644
 7002WAT      O28727   2.420   6.360   6.804
 7002WAT     H128728   2.405   6.283   6.766
 7002WAT     H228729   2.377   6.417   6.754
 7002WAT    EPW28730   2.412   6.357   6.791
 7003WAT      O28731   2.969   5.996   6.015
 7003WAT     H128732   3.050   5.967   6.003
 7003WAT     H228733   2.965   6.066   5.964
 7003WAT    EPW28734   2.980   6.002   6.006
 7004WAT      O28735   2.176   6.603   7.140
 7004WAT     H128736   2.188   6.584   7.225
 7004WAT     H228737   2.209   6.533   7.099
 7004WAT    EPW28738   2.183   6.590   7.147
 7005WAT      O28739   3.111   5.646   4.880
 7005WAT     H128740   3.094   5.669   4.963
 7005WAT     H228741   3.133   5.562   4.887
 7005WAT    EPW28742   3.112   5.637   4.893
 7006WAT      O28743   2.061   5.927   4.431
 7006WAT     H128744   1.994   5.924   4.487
 7006WAT     H228745   2.084   5.844   4.422
 7006WAT    EPW28746   2.054   5.915   4.438
 7007WAT      O28747   3.737   6.293   4.239
 7007WAT     H128748   3.796   6.231   4.257
 7007WAT     H228749   3.678   6.251   4.189
 7007WAT    EPW28750   3.737   6.277   4.234
 7008WAT      O28751   2.063   5.273   4.100
 7008WAT     H128752   2.001   5.324   4.067
 7008WAT     H228753   2.032   5.192   4.088
 7008WAT    EPW28754   2.049   5.269   4.093
 7009WAT      O28755   2.350   5.891   4.013
 7009WAT     H128756   2.327   5.846   3.942
 7009WAT     H228757   2.360   5.830   4.074
 7009WAT    EPW28758   2.348   5.876   4.011
 7010WAT      O28759   2.318   6.040   4.426
 7010WAT     H128760   2.369   5.994   4.479
 7010WAT     H228761   2.239   6.003   4.435
 7010WAT    EPW28762   2.314   6.028   4.435
 7011WAT      O28763   2.836   4.876   4.246
 7011WAT     H128764   2.846   4.958   4.220
 7011WAT     H228765   2.917   4.846   4.254
 7011WAT    EPW28766   2.849   4.883   4.243
 7012WAT      O28767   2.217   6.337   4.021
 7012WAT     H128768   2.267   6.343   3.949
 7012WAT     H228769   2.253   6.271   4.065
 7012WAT    EPW28770   2.230   6.328   4.017
 7013WAT      O28771   2.128   6.161   5.146
 7013WAT     H128772   2.153   6.142   5.228
 7013WAT     H228773   2.060   6.108   5.133
 7013WAT    EPW28774   2.121   6.150   5.156
 7014WAT      O28775   2.732   6.001   5.606
 7014WAT     H128776   2.704   5.990   5.688
 7014WAT     H228777   2.664   5.974   5.558
 7014WAT    EPW28778   2.718   5.996   5.611
 7015WAT      O28779   2.303   5.611   4.638
 7015WAT     H128780   2.266   5.642   4.566
 7015WAT     H228781   2.287   5.525   4.634
 7015WAT    EPW28782   2.295   5.603   4.627
 7016WAT      O28783   2.685   5.167   5.117
 7016WAT     H128784   2.767   5.140   5.101
 7016WAT     H228785   2.637   5.096   5.101
 7016WAT    EPW28786   2.690   5.152   5.113
 7017WAT      O28787   2.721   6.249   5.329
 7017WAT     H128788   2.697   6.324   5.292
 7017WAT     H228789   2.808   6.255   5.333
 7017WAT    EPW28790   2.730   6.261   5.324
 7018WAT      O28791   2.843   6.083   4.743
 7018WAT     H128792   2.870   6.001   4.751
 7018WAT     H228793   2.916   6.127   4.725
 7018WAT    EPW28794   2.858   6.077   4.741
 7019WAT      O28795   2.922   6.028   4.367
 7019WAT     H128796   2.950   5.956   4.407
 7019WAT     H228797   2.938   6.011   4.282
 7019WAT    EPW28798   2.929   6.015   4.360
 7020WAT      O28799   3.024   5.553   5.564
 7020WAT     H128800   2.941   5.532   5.545
 7020WAT     H228801   3.016   5.618   5.622
 7020WAT    EPW28802   3.010   5.560   5.570
 7021WAT      O28803   2.603   4.934   4.404
 7021WAT     H128804   2.573   4.902   4.328
 7021WAT     H228805   2.684   4.902   4.409
 7021WAT    EPW28806   2.611   4.925   4.393
 7022WAT      O28807   2.823   4.912   4.665
 7022WAT     H128808   2.810   4.855   4.730
 7022WAT     H228809   2.897   4.884   4.628
 7022WAT    EPW28810   2.832   4.900   4.669
 7023WAT      O28811   2.102   5.417   4.859
 7023WAT     H128812   2.091   5.503   4.870
 7023WAT     H228813   2.038   5.382   4.906
 7023WAT    EPW28814   2.091   5.425   4.868
 7024WAT      O28815   2.086   6.395   4.678
 7024WAT     H128816   2.023   6.444   4.643
 7024WAT     H228817   2.125   6.358   4.609
 7024WAT    EPW28818   2.083   6.396   4.663
 7025WAT      O28819   2.673   6.140   4.348
 7025WAT     H128820   2.640   6.139   4.429
 7025WAT     H228821   2.754   6.109   4.358
 7025WAT    EPW28822   2.680   6.135   4.362
 7026WAT      O28823   3.273   6.431   4.155
 7026WAT     H128824   3.346   6.478   4.157
 7026WAT     H228825   3.299   6.350   4.175
 7026WAT    EPW28826   3.287   6.426   4.159
 7027WAT      O28827   3.084   6.449   4.354
 7027WAT     H128828   3.107   6.518   4.402
 7027WAT     H228829   3.143   6.447   4.290
 7027WAT    EPW28830   3.096   6.458   4.352
 7028WAT      O28831   2.324   4.951   4.846
 7028WAT     H128832   2.321   4.865   4.829
 7028WAT     H228833   2.382   4.956   4.911
 7028WAT    EPW28834   2.332   4.939   4.853
 7029WAT      O28835   2.724   5.139   5.818
 7029WAT     H128836   2.731   5.103   5.739
 7029WAT     H228837   2.755   5.220   5.806
 7029WAT    EPW28838   2.730   5.146   5.804
 7030WAT      O28839   2.215   6.298   4.446
 7030WAT     H128840   2.261   6.225   4.458
 7030WAT     H228841   2.269   6.349   4.400
 7030WAT    EPW28842   2.230   6.295   4.441
 7031WAT      O28843   3.346   6.439   5.145
 7031WAT     H128844   3.412   6.492   5.164
 7031WAT     H228845   3.346   6.436   5.057
 7031WAT    EPW28846   3.356   6.446   5.135
 7032WAT      O28847   2.300   5.031   5.725
 7032WAT     H128848   2.222   5.000   5.702
 7032WAT     H228849   2.352   5.008   5.659
 7032WAT    EPW28850   2.296   5.023   5.712
 7033WAT      O28851   2.381   6.120   4.793
 7033WAT     H128852   2.439   6.115   4.728
 7033WAT     H228853   2.409   6.060   4.850
 7033WAT    EPW28854   2.394   6.110   4.792
 7034WAT      O28855   2.652   6.413   4.688
 7034WAT     H128856   2.731   6.435   4.660
 7034WAT     H228857   2.599   6.467   4.644
 7034WAT    EPW28858   2.656   6.424   4.677
 7035WAT      O28859   2.907   4.818   5.563
 7035WAT     H128860   2.992   4.810   5.543
 7035WAT     H228861   2.871   4.748   5.524
 7035WAT    EPW28862   2.914   4.806   5.554
 7036WAT      O28863   3.151   5.357   4.483
 7036WAT     H128864   3.200   5.304   4.434
 7036WAT     H228865   3.190   5.354   4.562
 7036WAT    EPW28866   3.164   5.349   4.488
 7037WAT      O28867   3.492   6.602   4.127
 7037WAT     H128868   3.542   6.576   4.061
 7037WAT     H228869   3.547   6.646   4.178
 7037WAT    EPW28870   3.507   6.605   4.125
 7038WAT      O28871   2.566   6.481   5.278
 7038WAT     H128872   2.572   6.489   5.364
 7038WAT     H228873   2.488   6.445   5.266
 7038WAT    EPW28874   2.556   6.477   5.289
 7039WAT      O28875   2.009   5.162   5.455
 7039WAT     H128876   2.004   5.235   5.503
 7039WAT     H228877   2.069   5.181   5.395
 7039WAT    EPW28878   2.017   5.175   5.454
 7040WAT      O28879   3.220   6.220   5.524
 7040WAT     H128880   3.211   6.243   5.608
 7040WAT     H228881   3.306   6.224   5.510
 7040WAT    EPW28882   3.231   6.224   5.534
 7041WAT      O28883   2.980   6.241   3.960
 7041WAT     H128884   2.950   6.296   4.021
 7041WAT     H228885   3.059   6.274   3.940
 7041WAT    EPW28886   2.988   6.254   3.966
 7042WAT      O28887   2.177   5.066   4.418
 7042WAT     H128888   2.152   4.988   4.389
 7042WAT     H228889   2.110   5.093   4.466
 7042WAT    EPW28890   2.164   5.059   4.421
 7043WAT      O28891   2.312   6.381   5.172
 7043WAT     H128892   2.255   6.315   5.171
 7043WAT     H228893   2.348   6.378   5.092
 7043WAT    EPW28894   2.309   6.371   5.160
 7044WAT      O28895   3.101   6.515   5.252
 7044WAT     H128896   3.179   6.495   5.218
 7044WAT     H228897   3.045   6.494   5.189
 7044WAT    EPW28898   3.104   6.509   5.238
 7045WAT      O28899   3.785   6.520   4.522
 7045WAT     H128900   3.746   6.595   4.543
 7045WAT     H228901   3.719   6.468   4.500
 7045WAT    EPW28902   3.770   6.524   4.522
 7046WAT      O28903   3.468   6.129   4.531
 7046WAT     H128904   3.531   6.070   4.542
 7046WAT     H228905   3.399   6.080   4.508
 7046WAT    EPW28906   3.467   6.113   4.529
 7047WAT      O28907   2.470   6.211   5.465
 7047WAT     H128908   2.548   6.239   5.437
 7047WAT     H228909   2.455   6.260   5.536
 7047WAT    EPW28910   2.479   6.223   5.472
 7048WAT      O28911   2.408   4.781   4.521
 7048WAT     H128912   2.470   4.839   4.502
 7048WAT     H228913   2.422   4.716   4.464
 7048WAT    EPW28914   2.419   4.780   4.510
 7049WAT      O28915   2.683   5.766   4.891
 7049WAT     H128916   2.710   5.763   4.974
 7049WAT     H228917   2.630   5.697   4.883
 7049WAT    EPW28918   2.679   5.755   4.902
 7050WAT      O28919   2.771   5.800   5.154
 7050WAT     H128920   2.746   5.884   5.153
 7050WAT     H228921   2.727   5.767   5.221
 7050WAT    EPW28922   2.761   5.807   5.164
 7051WAT      O28923   3.406   5.914   5.160
 7051WAT     H128924   3.452   5.881   5.227
 7051WAT     H228925   3.399   5.999   5.180
 7051WAT    EPW28926   3.412   5.922   5.173
 7052WAT      O28927   2.014   6.201   5.763
 7052WAT     H128928   2.071   6.248   5.810
 7052WAT     H228929   2.021   6.121   5.797
 7052WAT    EPW28930   2.024   6.196   5.775
 7053WAT      O28931   2.372   5.104   4.622
 7053WAT     H128932   2.322   5.070   4.559
 7053WAT     H228933   2.353   5.054   4.692
 7053WAT    EPW28934   2.362   5.091   4.623
 7054WAT      O28935   3.706   5.934   4.163
 7054WAT     H128936   3.707   5.865   4.216
 7054WAT     H228937   3.773   5.918   4.109
 7054WAT    EPW28938   3.716   5.921   4.163
 7055WAT      O28939   2.458   5.853   4.580
 7055WAT     H128940   2.515   5.834   4.517
 7055WAT     H228941   2.430   5.775   4.606
 7055WAT    EPW28942   2.463   5.839   4.575
 7056WAT      O28943   2.300   6.551   4.761
 7056WAT     H128944   2.225   6.513   4.737
 7056WAT     H228945   2.344   6.556   4.686
 7056WAT    EPW28946   2.295   6.546   4.747
 7057WAT      O28947   2.296   5.287   5.017
 7057WAT     H128948   2.371   5.282   4.972
 7057WAT     H228949   2.241   5.327   4.962
 7057WAT    EPW28950   2.299   5.292   5.002
 7058WAT      O28951   3.930   6.322   5.494
 7058WAT     H128952   3.854   6.332   5.453
 7058WAT     H228953   3.908   6.283   5.569
 7058WAT    EPW28954   3.916   6.318   5.499
 7059WAT      O28955   2.606   5.828   4.342
 7059WAT     H128956   2.634   5.909   4.327
 7059WAT     H228957   2.674   5.779   4.318
 7059WAT    EPW28958   2.620   5.833   4.336
 7060WAT      O28959   2.125   5.998   4.786
 7060WAT     H128960   2.071   6.061   4.814
 7060WAT     H228961   2.202   6.038   4.779
 7060WAT    EPW28962   2.128   6.013   4.789
 7061WAT      O28963   2.831   5.399   5.790
 7061WAT     H128964   2.780   5.424   5.856
 7061WAT     H228965   2.792   5.433   5.720
 7061WAT    EPW28966   2.818   5.408   5.789
 7062WAT      O28967   2.179   5.677   4.399
 7062WAT     H128968   2.150   5.596   4.380
 7062WAT     H228969   2.240   5.692   4.339
 7062WAT    EPW28970   2.183   5.667   4.387
 7063WAT      O28971   3.065   6.243   4.700
 7063WAT     H128972   3.026   6.319   4.685
 7063WAT     H228973   3.098   6.221   4.621
 7063WAT    EPW28974   3.064   6.251   4.686
 7064WAT      O28975   2.050   6.153   4.275
 7064WAT     H128976   2.102   6.204   4.322
 7064WAT     H228977   2.041   6.081   4.324
 7064WAT    EPW28978   2.056   6.150   4.289
 7065WAT      O28979   2.477   5.936   4.977
 7065WAT     H128980   2.525   5.981   5.034
 7065WAT     H228981   2.536   5.886   4.935
 7065WAT    EPW28982   2.493   5.935   4.979
 7066WAT      O28983   2.071   5.993   4.042
 7066WAT     H128984   2.149   5.955   4.035
 7066WAT     H228985   2.080   6.045   4.111
 7066WAT    EPW28986   2.084   5.995   4.051
 7067WAT      O28987   2.127   5.725   4.828
 7067WAT     H128988   2.180   5.695   4.766
 7067WAT     H228989   2.126   5.811   4.814
 7067WAT    EPW28990   2.134   5.733   4.816
 7068WAT      O28991   2.782   5.143   4.162
 7068WAT     H128992   2.772   5.124   4.078
 7068WAT     H228993   2.784   5.230   4.164
 7068WAT    EPW28994   2.781   5.153   4.150
 7069WAT      O28995   3.673   6.365   5.359
 7069WAT     H128996   3.623   6.432   5.382
 7069WAT     H228997   3.671   6.366   5.272
 7069WAT    EPW28998   3.666   6.375   5.350
 7070WAT      O28999   2.600   6.153   4.615
 7070WAT     H129000   2.611   6.237   4.636
 7070WAT     H229001   2.669   6.114   4.652
 7070WAT    EPW29002   2.612   6.160   4.624
 7071WAT      O29003   2.383   5.491   5.645
 7071WAT     H129004   2.345   5.426   5.689
 7071WAT     H229005   2.388   5.459   5.564
 7071WAT    EPW29006   2.378   5.477   5.639
 7072WAT      O29007   2.419   5.436   4.125
 7072WAT     H129008   2.402   5.378   4.188
 7072WAT     H229009   2.377   5.404   4.056
 7072WAT    EPW29010   2.410   5.422   4.124
 7073WAT      O29011   2.495   5.563   4.873
 7073WAT     H129012   2.439   5.574   4.807
 7073WAT     H229013   2.516   5.479   4.869
 7073WAT    EPW29014   2.490   5.552   4.863
 7074WAT      O29015   2.447   5.576   5.174
 7074WAT     H129016   2.474   5.544   5.098
 7074WAT     H229017   2.386   5.633   5.151
 7074WAT    EPW29018   2.442   5.580   5.159
 7075WAT      O29019   2.905   6.440   5.071
 7075WAT     H129020   2.858   6.377   5.032
 7075WAT     H229021   2.888   6.511   5.022
 7075WAT    EPW29022   2.895   6.441   5.058
 7076WAT      O29023   2.269   5.731   5.724
 7076WAT     H129024   2.260   5.779   5.652
 7076WAT     H229025   2.310   5.659   5.695
 7076WAT    EPW29026   2.274   5.727   5.709
 7077WAT      O29027   3.416   5.941   5.579
 7077WAT     H129028   3.447   6.020   5.559
 7077WAT     H229029   3.456   5.889   5.523
 7077WAT    EPW29030   3.427   5.945   5.568
 7078WAT      O29031   2.844   6.263   5.616
 7078WAT     H129032   2.879   6.255   5.696
 7078WAT     H229033   2.804   6.187   5.603
 7078WAT    EPW29034   2.843   6.251   5.626
 7079WAT      O29035   3.253   5.665   4.213
 7079WAT     H129036   3.222   5.699   4.138
 7079WAT     H229037   3.182   5.632   4.251
 7079WAT    EPW29038   3.238   5.665   4.208
 7080WAT      O29039   3.653   5.920   4.569
 7080WAT     H129040   3.619   5.870   4.631
 7080WAT     H229041   3.663   5.865   4.502
 7080WAT    EPW29042   3.649   5.905   4.568
 7081WAT      O29043   3.278   6.197   4.876
 7081WAT     H129044   3.207   6.212   4.827
 7081WAT     H229045   3.328   6.268   4.861
 7081WAT    EPW29046   3.275   6.210   4.866
 7082WAT      O29047   3.377   5.941   4.792
 7082WAT     H129048   3.347   6.022   4.804
 7082WAT     H229049   3.328   5.893   4.845
 7082WAT    EPW29050   3.365   5.946   4.801
 7083WAT      O29051   2.663   6.418   4.301
 7083WAT     H129052   2.669   6.336   4.330
 7083WAT     H229053   2.733   6.426   4.249
 7083WAT    EPW29054   2.674   6.407   4.298
 7084WAT      O29055   2.580   4.805   4.150
 7084WAT     H129056   2.665   4.822   4.163
 7084WAT     H229057   2.550   4.878   4.113
 7084WAT    EPW29058   2.588   4.818   4.146
 7085WAT      O29059   2.894   6.427   4.149
 7085WAT     H129060   2.953   6.436   4.213
 7085WAT     H229061   2.896   6.505   4.109
 7085WAT    EPW29062   2.903   6.440   4.153
 7086WAT      O29063   3.521   5.782   5.378
 7086WAT     H129064   3.502   5.701   5.403
 7086WAT     H229065   3.606   5.777   5.358
 7086WAT    EPW29066   3.531   5.769   5.379
 7087WAT      O29067   3.214   6.344   5.785
 7087WAT     H129068   3.237   6.366   5.866
 7087WAT     H229069   3.233   6.416   5.738
 7087WAT    EPW29070   3.220   6.358   5.790
 7088WAT      O29071   2.385   5.708   4.216
 7088WAT     H129072   2.404   5.626   4.195
 7088WAT     H229073   2.457   5.737   4.255
 7088WAT    EPW29074   2.398   5.700   4.219
 7089WAT      O29075   3.182   5.606   5.340
 7089WAT     H129076   3.140   5.580   5.411
 7089WAT     H229077   3.230   5.537   5.317
 7089WAT    EPW29078   3.183   5.592   5.347
 7090WAT      O29079   2.046   4.821   4.341
 7090WAT     H129080   2.053   4.761   4.278
 7090WAT     H229081   2.014   4.776   4.409
 7090WAT    EPW29082   2.042   4.806   4.342
 7091WAT      O29083   3.031   5.578   4.357
 7091WAT     H129084   3.036   5.644   4.414
 7091WAT     H229085   3.064   5.510   4.402
 7091WAT    EPW29086   3.037   5.578   4.372
 7092WAT      O29087   3.589   5.997   4.971
 7092WAT     H129088   3.547   5.986   4.895
 7092WAT     H229089   3.536   5.961   5.030
 7092WAT    EPW29090   3.575   5.990   4.968
 7093WAT      O29091   2.474   5.044   4.051
 7093WAT     H129092   2.411   5.036   3.992
 7093WAT     H229093   2.543   5.072   4.005
 7093WAT    EPW29094   2.475   5.047   4.036
 7094WAT      O29095   2.925   5.815   4.760
 7094WAT     H129096   2.848   5.790   4.792
 7094WAT     H229097   2.982   5.760   4.797
 7094WAT    EPW29098   2.922   5.803   4.770
 7095WAT      O29099   2.585   6.460   3.918
 7095WAT     H129100   2.607   6.387   3.961
 7095WAT     H229101   2.594   6.522   3.978
 7095WAT    EPW29102   2.590   6.458   3.933
 7096WAT      O29103   2.272   5.767   5.066
 7096WAT     H129104   2.330   5.827   5.042
 7096WAT     H229105   2.227   5.751   4.993
 7096WAT    EPW29106   2.274   5.773   5.052
 7097WAT      O29107   2.647   5.143   4.674
 7097WAT     H129108   2.699   5.074   4.680
 7097WAT     H229109   2.567   5.108   4.666
 7097WAT    EPW29110   2.643   5.128   4.674
 7098WAT      O29111   3.891   6.471   4.098
 7098WAT     H129112   3.956   6.423   4.066
 7098WAT     H229113   3.843   6.414   4.143
 7098WAT    EPW29114   3.893   6.456   4.100
 7099WAT      O29115   2.108   5.409   4.355
 7099WAT     H129116   2.138   5.368   4.426
 7099WAT     H229117   2.114   5.348   4.293
 7099WAT    EPW29118   2.113   5.394   4.357
 7100WAT      O29119   2.573   5.573   3.922
 7100WAT     H129120   2.525   5.542   3.987
 7100WAT     H229121   2.524   5.558   3.851
 7100WAT    EPW29122   2.558   5.566   3.921
 7101WAT      O29123   2.243   5.876   5.493
 7101WAT     H129124   2.205   5.827   5.431
 7101WAT     H229125   2.217   5.957   5.473
 7101WAT    EPW29126   2.233   5.880   5.481
 7102WAT      O29127   2.679   5.400   4.234
 7102WAT     H129128   2.720   5.477   4.236
 7102WAT     H229129   2.609   5.414   4.184
 7102WAT    EPW29130   2.675   5.413   4.227
 7103WAT      O29131   2.048   5.024   4.841
 7103WAT     H129132   2.033   5.054   4.761
 7103WAT     H229133   2.134   5.007   4.841
 7103WAT    EPW29134   2.059   5.026   4.830
 7104WAT      O29135   3.883   6.202   4.861
 7104WAT     H129136   3.915   6.256   4.800
 7104WAT     H229137   3.936   6.212   4.929
 7104WAT    EPW29138   3.895   6.211   4.862
 7105WAT      O29139   3.366   5.425   5.728
 7105WAT     H129140   3.422   5.465   5.781
 7105WAT     H229141   3.398   5.442   5.648
 7105WAT    EPW29142   3.379   5.434   5.724
 7106WAT      O29143   3.502   5.519   5.485
 7106WAT     H129144   3.586   5.524   5.508
 7106WAT     H229145   3.500   5.455   5.427
 7106WAT    EPW29146   3.514   5.510   5.480
 7107WAT      O29147   3.557   6.157   4.088
 7107WAT     H129148   3.589   6.077   4.101
 7107WAT     H229149   3.480   6.155   4.129
 7107WAT    EPW29150   3.550   6.145   4.096
 7108WAT      O29151   3.791   5.757   5.305
 7108WAT     H129152   3.827   5.682   5.280
 7108WAT     H229153   3.814   5.812   5.241
 7108WAT    EPW29154   3.800   5.754   5.292
 7109WAT      O29155   3.276   6.017   3.983
 7109WAT     H129156   3.355   5.983   3.967
 7109WAT     H229157   3.228   5.988   3.916
 7109WAT    EPW29158   3.281   6.008   3.970
 7110WAT      O29159   2.677   6.065   5.126
 7110WAT     H129160   2.682   6.114   5.198
 7110WAT     H229161   2.695   6.121   5.062
 7110WAT    EPW29162   2.680   6.080   5.128
 7111WAT      O29163   2.509   5.933   5.449
 7111WAT     H129164   2.429   5.905   5.467
 7111WAT     H229165   2.500   6.020   5.440
 7111WAT    EPW29166   2.496   5.942   5.450
 7112WAT      O29167   3.038   5.732   5.132
 7112WAT     H129168   3.056   5.668   5.189
 7112WAT     H229169   2.952   5.743   5.141
 7112WAT    EPW29170   3.028   5.724   5.142
 7113WAT      O29171   2.662   5.263   5.385
 7113WAT     H129172   2.688   5.195   5.434
 7113WAT     H229173   2.673   5.235   5.304
 7113WAT    EPW29174   2.668   5.249   5.380
 7114WAT      O29175   2.916   6.469   4.607
 7114WAT     H129176   2.924   6.554   4.626
 7114WAT     H229177   2.939   6.465   4.523
 7114WAT    EPW29178   2.921   6.481   4.597
 7115WAT      O29179   2.739   6.257   4.932
 7115WAT     H129180   2.688   6.308   4.884
 7115WAT     H229181   2.775   6.203   4.873
 7115WAT    EPW29182   2.737   6.257   4.916
 7116WAT      O29183   3.155   5.943   5.688
 7116WAT     H129184   3.234   5.947   5.651
 7116WAT     H229185   3.102   5.975   5.626
 7116WAT    EPW29186   3.159   5.949   5.673
 7117WAT      O29187   3.501   6.202   5.514
 7117WAT     H129188   3.531   6.231   5.590
 7117WAT     H229189   3.551   6.241   5.455
 7117WAT    EPW29190   3.513   6.212   5.516
 7118WAT      O29191   2.798   5.737   3.977
 7118WAT     H129192   2.736   5.685   3.945
 7118WAT     H229193   2.763   5.816   3.973
 7118WAT    EPW29194   2.784   5.741   3.972
 7119WAT      O29195   2.557   5.294   4.899
 7119WAT     H129196   2.592   5.250   4.832
 7119WAT     H229197   2.601   5.263   4.968
 7119WAT    EPW29198   2.569   5.283   4.899
 7120WAT      O29199   2.991   6.487   5.510
 7120WAT     H129200   3.016   6.476   5.427
 7120WAT     H229201   2.956   6.410   5.531
 7120WAT    EPW29202   2.989   6.474   5.501
 7121WAT      O29203   3.719   5.732   4.366
 7121WAT     H129204   3.771   5.665   4.345
 7121WAT     H229205   3.639   5.698   4.365
 7121WAT    EPW29206   3.715   5.717   4.362
 7122WAT      O29207   2.980   5.985   5.472
 7122WAT     H129208   2.902   5.975   5.511
 7122WAT     H229209   2.975   6.065   5.437
 7122WAT    EPW29210   2.967   5.995   5.472
 7123WAT      O29211   2.045   4.933   5.613
 7123WAT     H129212   2.040   5.006   5.564
 7123WAT     H229213   1.961   4.915   5.630
 7123WAT    EPW29214   2.032   4.941   5.608
 7124WAT      O29215   2.582   6.582   5.009
 7124WAT     H129216   2.583   6.563   5.094
 7124WAT     H229217   2.545   6.513   4.972
 7124WAT    EPW29218   2.577   6.569   5.016
 7125WAT      O29219   2.395   5.197   4.278
 7125WAT     H129220   2.410   5.148   4.207
 7125WAT     H229221   2.325   5.159   4.314
 7125WAT    EPW29222   2.387   5.184   4.273
 7126WAT      O29223   3.304   5.878   4.528
 7126WAT     H129224   3.333   5.889   4.609
 7126WAT     H229225   3.353   5.813   4.497
 7126WAT    EPW29226   3.315   5.870   4.535
 7127WAT      O29227   3.034   5.815   4.503
 7127WAT     H129228   3.002   5.814   4.585
 7127WAT     H229229   3.117   5.838   4.514
 7127WAT    EPW29230   3.041   5.818   4.517
 7128WAT      O29231   3.012   6.229   5.339
 7128WAT     H129232   3.079   6.238   5.394
 7128WAT     H229233   3.045   6.254   5.263
 7128WAT    EPW29234   3.026   6.234   5.336
 7129WAT      O29235   2.193   6.562   5.546
 7129WAT     H129236   2.139   6.494   5.536
 7129WAT     H229237   2.140   6.625   5.574
 7129WAT    EPW29238   2.177   6.561   5.549
 7130WAT      O29239   3.038   5.711   5.794
 7130WAT     H129240   3.070   5.787   5.766
 7130WAT     H229241   2.959   5.733   5.825
 7130WAT    EPW29242   3.031   5.726   5.794
 7131WAT      O29243   3.401   6.464   4.862
 7131WAT     H129244   3.381   6.546   4.884
 7131WAT     H229245   3.483   6.453   4.891
 7131WAT    EPW29246   3.410   6.474   4.870
 7132WAT      O29247   3.617   6.282   5.752
 7132WAT     H129248   3.701   6.256   5.751
 7132WAT     H229249   3.585   6.243   5.824
 7132WAT    EPW29250   3.625   6.272   5.763
 7133WAT      O29251   2.408   5.386   5.384
 7133WAT     H129252   2.416   5.443   5.318
 7133WAT     H229253   2.485   5.345   5.385
 7133WAT    EPW29254   2.421   5.388   5.375
 7134WAT      O29255   2.216   5.218   5.271
 7134WAT     H129256   2.234   5.234   5.187
 7134WAT     H229257   2.272   5.270   5.314
 7134WAT    EPW29258   2.227   5.228   5.265
 7135WAT      O29259   2.470   4.950   5.518
 7135WAT     H129260   2.497   4.867   5.516
 7135WAT     H229261   2.433   4.962   5.440
 7135WAT    EPW29262   2.468   4.939   5.506
 7136WAT      O29263   3.136   6.186   4.438
 7136WAT     H129264   3.117   6.266   4.409
 7136WAT     H229265   3.067   6.138   4.414
 7136WAT    EPW29266   3.123   6.190   4.430
 7137WAT      O29267   2.123   5.727   5.295
 7137WAT     H129268   2.163   5.747   5.220
 7137WAT     H229269   2.100   5.644   5.284
 7137WAT    EPW29270   2.125   5.718   5.282
 7138WAT      O29271   2.276   5.310   3.921
 7138WAT     H129272   2.204   5.300   3.970
 7138WAT     H229273   2.288   5.231   3.887
 7138WAT    EPW29274   2.267   5.297   3.923
 7139WAT      O29275   3.251   4.997   5.507
 7139WAT     H129276   3.308   5.011   5.442
 7139WAT     H229277   3.200   5.068   5.506
 7139WAT    EPW29278   3.252   5.009   5.497
 7140WAT      O29279   2.603   6.214   4.069
 7140WAT     H129280   2.651   6.205   4.141
 7140WAT     H229281   2.522   6.195   4.096
 7140WAT    EPW29282   2.598   6.210   4.084
 7141WAT      O29283   2.624   5.690   5.362
 7141WAT     H129284   2.585   5.763   5.390
 7141WAT     H229285   2.565   5.655   5.308
 7141WAT    EPW29286   2.610   5.696   5.358
 7142WAT      O29287   3.561   6.374   4.442
 7142WAT     H129288   3.529   6.298   4.472
 7142WAT     H229289   3.606   6.349   4.371
 7142WAT    EPW29290   3.563   6.359   4.436
 7143WAT      O29291   2.353   6.130   4.154
 7143WAT     H129292   2.349   6.105   4.238
 7143WAT     H229293   2.353   6.055   4.111
 7143WAT    EPW29294   2.352   6.115   4.160
 7144WAT      O29295   2.634   5.966   3.941
 7144WAT     H129296   2.551   5.939   3.952
 7144WAT     H229297   2.635   6.044   3.980
 7144WAT    EPW29298   2.622   5.973   3.948
 7145WAT      O29299   2.521   4.950   5.054
 7145WAT     H129300   2.469   4.951   5.124
 7145WAT     H229301   2.560   4.872   5.057
 7145WAT    EPW29302   2.519   4.939   5.065
 7146WAT      O29303   3.277   6.165   5.161
 7146WAT     H129304   3.307   6.245   5.178
 7146WAT     H229305   3.268   6.164   5.074
 7146WAT    EPW29306   3.280   6.177   5.150
 7147WAT      O29307   3.252   6.549   5.598
 7147WAT     H129308   3.178   6.520   5.563
 7147WAT     H229309   3.237   6.634   5.613
 7147WAT    EPW29310   3.239   6.558   5.595
 7148WAT      O29311   2.753   5.492   5.525
 7148WAT     H129312   2.730   5.421   5.480
 7148WAT     H229313   2.711   5.557   5.484
 7148WAT    EPW29314   2.743   5.491   5.512
 7149WAT      O29315   3.840   5.923   5.077
 7149WAT     H129316   3.884   5.880   5.016
 7149WAT     H229317   3.768   5.949   5.036
 7149WAT    EPW29318   3.836   5.921   5.062
 7150WAT      O29319   2.654   6.464   5.552
 7150WAT     H129320   2.633   6.479   5.635
 7150WAT     H229321   2.714   6.402   5.557
 7150WAT    EPW29322   2.660   6.457   5.565
 7151WAT      O29323   3.628   6.283   4.966
 7151WAT     H129324   3.706   6.276   4.929
 7151WAT     H229325   3.602   6.200   4.975
 7151WAT    EPW29326   3.635   6.270   4.962
 7152WAT      O29327   2.347   4.970   5.270
 7152WAT     H129328   2.287   4.907   5.256
 7152WAT     H229329   2.300   5.043   5.267
 7152WAT    EPW29330   2.331   4.971   5.267
 7153WAT      O29331   2.358   6.368   5.682
 7153WAT     H129332   2.427   6.404   5.723
 7153WAT     H229333   2.319   6.437   5.645
 7153WAT    EPW29334   2.363   6.384   5.683
 7154WAT      O29335   2.224   5.345   4.614
 7154WAT     H129336   2.174   5.348   4.685
 7154WAT     H229337   2.270   5.271   4.624
 7154WAT    EPW29338   2.224   5.334   4.626
 7155WAT      O29339   2.205   6.139   5.410
 7155WAT     H129340   2.153   6.201   5.443
 7155WAT     H229341   2.285   6.171   5.422
 7155WAT    EPW29342   2.209   6.153   5.416
 7156WAT      O29343   3.451   5.650   4.411
 7156WAT     H129344   3.443   5.568   4.439
 7156WAT     H229345   3.398   5.654   4.343
 7156WAT    EPW29346   3.442   5.639   4.405
 7157WAT      O29347   2.388   6.451   4.288
 7157WAT     H129348   2.360   6.458   4.206
 7157WAT     H229349   2.474   6.436   4.279
 7157WAT    EPW29350   2.397   6.449   4.275
 7158WAT      O29351   2.792   5.650   4.240
 7158WAT     H129352   2.807   5.678   4.158
 7158WAT     H229353   2.871   5.631   4.270
 7158WAT    EPW29354   2.806   5.651   4.232
 7159WAT      O29355   3.671   6.521   3.929
 7159WAT     H129356   3.743   6.512   3.977
 7159WAT     H229357   3.656   6.440   3.900
 7159WAT    EPW29358   3.679   6.508   3.932
 7160WAT      O29359   3.774   5.594   5.547
 7160WAT     H129360   3.843   5.543   5.531
 7160WAT     H229361   3.788   5.664   5.497
 7160WAT    EPW29362   3.786   5.597   5.537
 7161WAT      O29363   3.310   6.166   4.213
 7161WAT     H129364   3.264   6.146   4.284
 7161WAT     H229365   3.279   6.112   4.152
 7161WAT    EPW29366   3.298   6.155   4.215
 7162WAT      O29367   2.730   5.044   5.554
 7162WAT     H129368   2.785   4.978   5.544
 7162WAT     H229369   2.652   5.008   5.542
 7162WAT    EPW29370   2.727   5.029   5.551
 7163WAT      O29371   3.472   5.832   5.839
 7163WAT     H129372   3.547   5.864   5.870
 7163WAT     H229373   3.468   5.863   5.758
 7163WAT    EPW29374   3.482   5.841   5.831
 7164WAT      O29375   2.423   6.365   4.920
 7164WAT     H129376   2.412   6.288   4.882
 7164WAT     H229377   2.381   6.421   4.866
 7164WAT    EPW29378   2.415   6.362   4.906
 7165WAT      O29379   2.966   5.995   4.101
 7165WAT     H129380   3.015   5.931   4.068
 7165WAT     H229381   2.981   6.062   4.047
 7165WAT    EPW29382   2.976   5.995   4.088
 7166WAT      O29383   2.180   6.609   5.266
 7166WAT     H129384   2.185   6.590   5.351
 7166WAT     H229385   2.216   6.540   5.227
 7166WAT    EPW29386   2.186   6.596   5.273
 7167WAT      O29387   3.193   4.764   2.613
 7167WAT     H129388   3.167   4.828   2.560
 7167WAT     H229389   3.277   4.783   2.627
 7167WAT    EPW29390   3.202   4.776   2.608
 7168WAT      O29391   3.097   5.458   3.103
 7168WAT     H129392   3.066   5.539   3.109
 7168WAT     H229393   3.112   5.435   3.186
 7168WAT    EPW29394   3.094   5.466   3.116
 7169WAT      O29395   2.059   5.937   2.527
 7169WAT     H129396   1.996   5.932   2.586
 7169WAT     H229397   2.075   5.853   2.506
 7169WAT    EPW29398   2.052   5.924   2.532
 7170WAT      O29399   3.717   6.309   2.356
 7170WAT     H129400   3.780   6.250   2.369
 7170WAT     H229401   3.662   6.269   2.302
 7170WAT    EPW29402   3.718   6.295   2.350
 7171WAT      O29403   2.075   5.288   2.211
 7171WAT     H129404   2.009   5.334   2.177
 7171WAT     H229405   2.045   5.207   2.214
 7171WAT    EPW29406   2.061   5.283   2.206
 7172WAT      O29407   2.409   5.865   2.131
 7172WAT     H129408   2.371   5.824   2.064
 7172WAT     H229409   2.413   5.804   2.193
 7172WAT    EPW29410   2.404   5.850   2.130
 7173WAT      O29411   3.332   5.638   2.708
 7173WAT     H129412   3.340   5.610   2.625
 7173WAT     H229413   3.282   5.578   2.745
 7173WAT    EPW29414   3.326   5.625   2.701
 7174WAT      O29415   2.313   6.053   2.509
 7174WAT     H129416   2.368   6.007   2.558
 7174WAT     H229417   2.237   6.014   2.521
 7174WAT    EPW29418   2.310   6.041   2.518
 7175WAT      O29419   2.807   4.951   2.462
 7175WAT     H129420   2.806   5.018   2.406
 7175WAT     H229421   2.884   4.913   2.447
 7175WAT    EPW29422   2.818   4.955   2.451
 7176WAT      O29423   2.221   6.331   2.111
 7176WAT     H129424   2.269   6.339   2.038
 7176WAT     H229425   2.255   6.261   2.150
 7176WAT    EPW29426   2.233   6.322   2.106
 7177WAT      O29427   2.084   6.170   3.233
 7177WAT     H129428   2.118   6.142   3.308
 7177WAT     H229429   2.013   6.120   3.222
 7177WAT    EPW29430   2.078   6.159   3.242
 7178WAT      O29431   2.748   6.008   3.685
 7178WAT     H129432   2.725   5.989   3.767
 7178WAT     H229433   2.679   5.982   3.638
 7178WAT    EPW29434   2.734   6.001   3.690
 7179WAT      O29435   2.291   5.669   2.708
 7179WAT     H129436   2.238   5.684   2.641
 7179WAT     H229437   2.341   5.603   2.682
 7179WAT    EPW29438   2.290   5.662   2.694
 7180WAT      O29439   2.709   5.137   3.206
 7180WAT     H129440   2.781   5.161   3.162
 7180WAT     H229441   2.645   5.178   3.163
 7180WAT    EPW29442   2.710   5.147   3.193
 7181WAT      O29443   2.730   6.243   3.437
 7181WAT     H129444   2.705   6.321   3.406
 7181WAT     H229445   2.813   6.256   3.458
 7181WAT    EPW29446   2.738   6.257   3.436
 7182WAT      O29447   2.442   5.467   2.609
 7182WAT     H129448   2.501   5.438   2.665
 7182WAT     H229449   2.374   5.413   2.621
 7182WAT    EPW29450   2.440   5.455   2.619
 7183WAT      O29451   2.841   6.114   2.859
 7183WAT     H129452   2.869   6.033   2.877
 7183WAT     H229453   2.915   6.158   2.844
 7183WAT    EPW29454   2.856   6.108   2.859
 7184WAT      O29455   2.894   6.020   2.479
 7184WAT     H129456   2.936   5.959   2.526
 7184WAT     H229457   2.920   6.004   2.398
 7184WAT    EPW29458   2.904   6.008   2.474
 7185WAT      O29459   2.531   4.988   2.543
 7185WAT     H129460   2.498   5.046   2.487
 7185WAT     H229461   2.614   4.981   2.519
 7185WAT    EPW29462   2.538   4.996   2.531
 7186WAT      O29463   3.565   4.716   3.510
 7186WAT     H129464   3.633   4.764   3.536
 7186WAT     H229465   3.564   4.650   3.567
 7186WAT    EPW29466   3.575   4.714   3.523
 7187WAT      O29467   2.870   4.962   2.735
 7187WAT     H129468   2.860   5.047   2.750
 7187WAT     H229469   2.843   4.953   2.653
 7187WAT    EPW29470   2.864   4.973   2.725
 7188WAT      O29471   3.259   5.124   2.003
 7188WAT     H129472   3.212   5.190   2.034
 7188WAT     H229473   3.272   5.073   2.073
 7188WAT    EPW29474   3.254   5.126   2.018
 7189WAT      O29475   2.103   5.432   2.950
 7189WAT     H129476   2.106   5.518   2.966
 7189WAT     H229477   2.037   5.404   2.998
 7189WAT    EPW29478   2.094   5.440   2.959
 7190WAT      O29479   2.103   6.419   2.785
 7190WAT     H129480   2.036   6.461   2.749
 7190WAT     H229481   2.140   6.378   2.717
 7190WAT    EPW29482   2.099   6.419   2.769
 7191WAT      O29483   2.676   6.188   2.451
 7191WAT     H129484   2.635   6.173   2.526
 7191WAT     H229485   2.749   6.140   2.458
 7191WAT    EPW29486   2.681   6.179   2.463
 7192WAT      O29487   3.276   6.413   2.264
 7192WAT     H129488   3.349   6.462   2.267
 7192WAT     H229489   3.304   6.333   2.284
 7192WAT    EPW29490   3.291   6.409   2.267
 7193WAT      O29491   3.081   6.450   2.453
 7193WAT     H129492   3.106   6.521   2.498
 7193WAT     H229493   3.143   6.442   2.392
 7193WAT    EPW29494   3.094   6.460   2.451
 7194WAT      O29495   2.413   4.933   2.954
 7194WAT     H129496   2.353   4.875   2.930
 7194WAT     H229497   2.488   4.888   2.951
 7194WAT    EPW29498   2.415   4.918   2.950
 7195WAT      O29499   2.697   5.107   3.893
 7195WAT     H129500   2.709   5.064   3.818
 7195WAT     H229501   2.714   5.190   3.873
 7195WAT    EPW29502   2.701   5.113   3.879
 7196WAT      O29503   2.214   6.309   2.546
 7196WAT     H129504   2.258   6.234   2.553
 7196WAT     H229505   2.266   6.358   2.496
 7196WAT    EPW29506   2.228   6.305   2.540
 7197WAT      O29507   3.786   5.138   2.608
 7197WAT     H129508   3.750   5.207   2.647
 7197WAT     H229509   3.721   5.079   2.605
 7197WAT    EPW29510   3.771   5.139   2.613
 7198WAT      O29511   3.339   6.434   3.267
 7198WAT     H129512   3.409   6.484   3.255
 7198WAT     H229513   3.312   6.416   3.187
 7198WAT    EPW29514   3.345   6.438   3.254
 7199WAT      O29515   2.301   5.044   3.829
 7199WAT     H129516   2.222   5.017   3.805
 7199WAT     H229517   2.353   5.015   3.764
 7199WAT    EPW29518   2.297   5.036   3.816
 7200WAT      O29519   2.343   6.125   2.850
 7200WAT     H129520   2.401   6.110   2.786
 7200WAT     H229521   2.374   6.077   2.916
 7200WAT    EPW29522   2.356   6.115   2.850
 7201WAT      O29523   2.654   6.425   2.788
 7201WAT     H129524   2.734   6.446   2.759
 7201WAT     H229525   2.601   6.476   2.742
 7201WAT    EPW29526   2.658   6.435   2.777
 7202WAT      O29527   3.023   5.384   2.611
 7202WAT     H129528   3.055   5.335   2.546
 7202WAT     H229529   3.091   5.392   2.665
 7202WAT    EPW29530   3.038   5.378   2.609
 7203WAT      O29531   3.099   5.328   2.113
 7203WAT     H129532   3.123   5.407   2.140
 7203WAT     H229533   3.023   5.342   2.073
 7203WAT    EPW29534   3.092   5.341   2.111
 7204WAT      O29535   3.488   6.599   2.245
 7204WAT     H129536   3.536   6.578   2.176
 7204WAT     H229537   3.541   6.648   2.293
 7204WAT    EPW29538   3.503   6.603   2.242
 7205WAT      O29539   2.556   6.463   3.381
 7205WAT     H129540   2.566   6.482   3.466
 7205WAT     H229541   2.478   6.424   3.378
 7205WAT    EPW29542   2.546   6.460   3.393
 7206WAT      O29543   3.762   5.084   3.280
 7206WAT     H129544   3.833   5.044   3.250
 7206WAT     H229545   3.774   5.084   3.367
 7206WAT    EPW29546   3.774   5.078   3.289
 7207WAT      O29547   2.007   5.170   3.546
 7207WAT     H129548   2.003   5.243   3.593
 7207WAT     H229549   2.065   5.189   3.484
 7207WAT    EPW29550   2.015   5.184   3.544
 7208WAT      O29551   3.224   6.245   3.636
 7208WAT     H129552   3.220   6.265   3.721
 7208WAT     H229553   3.308   6.227   3.623
 7208WAT    EPW29554   3.236   6.245   3.646
 7209WAT      O29555   2.964   6.241   2.067
 7209WAT     H129556   2.936   6.303   2.122
 7209WAT     H229557   3.044   6.269   2.044
 7209WAT    EPW29558   2.972   6.254   2.072
 7210WAT      O29559   3.308   4.953   2.222
 7210WAT     H129560   3.360   4.884   2.226
 7210WAT     H229561   3.333   5.003   2.289
 7210WAT    EPW29562   3.319   4.950   2.233
 7211WAT      O29563   2.131   5.077   2.471
 7211WAT     H129564   2.111   4.993   2.458
 7211WAT     H229565   2.084   5.099   2.541
 7211WAT    EPW29566   2.121   5.068   2.479
 7212WAT      O29567   2.288   6.375   3.260
 7212WAT     H129568   2.225   6.315   3.263
 7212WAT     H229569   2.319   6.368   3.179
 7212WAT    EPW29570   2.283   6.365   3.248
 7213WAT      O29571   3.089   5.226   2.379
 7213WAT     H129572   3.015   5.181   2.366
 7213WAT     H229573   3.102   5.266   2.302
 7213WAT    EPW29574   3.080   5.226   2.365
 7214WAT      O29575   3.089   6.501   3.363
 7214WAT     H129576   3.173   6.487   3.342
 7214WAT     H229577   3.047   6.489   3.287
 7214WAT    EPW29578   3.095   6.498   3.348
 7215WAT      O29579   3.070   4.879   2.355
 7215WAT     H129580   3.016   4.868   2.288
 7215WAT     H229581   3.144   4.905   2.318
 7215WAT    EPW29582   3.073   4.881   2.340
 7216WAT      O29583   3.763   6.546   2.625
 7216WAT     H129584   3.722   6.622   2.640
 7216WAT     H229585   3.698   6.490   2.611
 7216WAT    EPW29586   3.748   6.549   2.625
 7217WAT      O29587   2.846   5.235   2.778
 7217WAT     H129588   2.899   5.285   2.730
 7217WAT     H229589   2.879   5.242   2.859
 7217WAT    EPW29590   2.859   5.244   2.783
 7218WAT      O29591   3.494   6.118   2.697
 7218WAT     H129592   3.561   6.064   2.684
 7218WAT     H229593   3.424   6.068   2.686
 7218WAT    EPW29594   3.494   6.103   2.693
 7219WAT      O29595   2.465   6.219   3.555
 7219WAT     H129596   2.548   6.236   3.536
 7219WAT     H229597   2.452   6.258   3.632
 7219WAT    EPW29598   2.475   6.227   3.563
 7220WAT      O29599   2.408   4.744   2.599
 7220WAT     H129600   2.448   4.820   2.581
 7220WAT     H229601   2.388   4.713   2.520
 7220WAT    EPW29602   2.411   4.751   2.584
 7221WAT      O29603   2.668   5.838   2.985
 7221WAT     H129604   2.688   5.811   3.065
 7221WAT     H229605   2.617   5.775   2.954
 7221WAT    EPW29606   2.663   5.825   2.992
 7222WAT      O29607   2.776   5.812   3.239
 7222WAT     H129608   2.762   5.898   3.246
 7222WAT     H229609   2.736   5.779   3.309
 7222WAT    EPW29610   2.768   5.820   3.251
 7223WAT      O29611   3.372   5.886   3.244
 7223WAT     H129612   3.310   5.852   3.295
 7223WAT     H229613   3.360   5.972   3.251
 7223WAT    EPW29614   3.361   5.893   3.252
 7224WAT      O29615   3.445   4.781   2.746
 7224WAT     H129616   3.449   4.826   2.820
 7224WAT     H229617   3.509   4.722   2.755
 7224WAT    EPW29618   3.455   4.779   2.758
 7225WAT      O29619   2.019   6.209   3.862
 7225WAT     H129620   2.076   6.255   3.909
 7225WAT     H229621   2.026   6.128   3.894
 7225WAT    EPW29622   2.028   6.204   3.874
 7226WAT      O29623   2.402   5.122   2.756
 7226WAT     H129624   2.436   5.075   2.691
 7226WAT     H229625   2.400   5.067   2.823
 7226WAT    EPW29626   2.407   5.107   2.756
 7227WAT      O29627   3.693   5.932   2.166
 7227WAT     H129628   3.696   5.876   2.233
 7227WAT     H229629   3.776   5.941   2.143
 7227WAT    EPW29630   3.706   5.925   2.173
 7228WAT      O29631   2.459   5.893   2.675
 7228WAT     H129632   2.528   5.869   2.627
 7228WAT     H229633   2.418   5.819   2.692
 7228WAT    EPW29634   2.463   5.879   2.671
 7229WAT      O29635   2.320   6.581   2.871
 7229WAT     H129636   2.239   6.555   2.851
 7229WAT     H229637   2.361   6.581   2.794
 7229WAT    EPW29638   2.314   6.577   2.857
 7230WAT      O29639   2.244   5.226   3.077
 7230WAT     H129640   2.331   5.231   3.066
 7230WAT     H229641   2.215   5.299   3.040
 7230WAT    EPW29642   2.253   5.238   3.070
 7231WAT      O29643   3.898   6.311   3.584
 7231WAT     H129644   3.823   6.323   3.542
 7231WAT     H229645   3.875   6.268   3.656
 7231WAT    EPW29646   3.884   6.306   3.588
 7232WAT      O29647   3.516   5.575   2.151
 7232WAT     H129648   3.499   5.652   2.114
 7232WAT     H229649   3.545   5.596   2.230
 7232WAT    EPW29650   3.518   5.589   2.157
 7233WAT      O29651   2.662   5.841   2.492
 7233WAT     H129652   2.724   5.902   2.488
 7233WAT     H229653   2.693   5.777   2.442
 7233WAT    EPW29654   2.676   5.841   2.484
 7234WAT      O29655   2.087   6.012   2.856
 7234WAT     H129656   2.037   6.076   2.888
 7234WAT     H229657   2.164   6.051   2.843
 7234WAT    EPW29658   2.091   6.027   2.859
 7235WAT      O29659   2.749   5.372   3.844
 7235WAT     H129660   2.699   5.437   3.875
 7235WAT     H229661   2.769   5.399   3.763
 7235WAT    EPW29662   2.744   5.386   3.836
 7236WAT      O29663   3.936   5.460   3.409
 7236WAT     H129664   3.935   5.410   3.481
 7236WAT     H229665   3.890   5.414   3.351
 7236WAT    EPW29666   3.929   5.446   3.411
 7237WAT      O29667   2.156   5.683   2.466
 7237WAT     H129668   2.131   5.600   2.464
 7237WAT     H229669   2.229   5.684   2.419
 7237WAT    EPW29670   2.163   5.671   2.459
 7238WAT      O29671   3.684   4.907   2.341
 7238WAT     H129672   3.760   4.871   2.364
 7238WAT     H229673   3.650   4.934   2.416
 7238WAT    EPW29674   3.690   4.906   2.355
 7239WAT      O29675   3.070   6.263   2.803
 7239WAT     H129676   3.027   6.334   2.777
 7239WAT     H229677   3.099   6.229   2.728
 7239WAT    EPW29678   3.068   6.268   2.788
 7240WAT      O29679   2.049   6.164   2.374
 7240WAT     H129680   2.099   6.216   2.422
 7240WAT     H229681   2.040   6.092   2.423
 7240WAT    EPW29682   2.055   6.161   2.388
 7241WAT      O29683   2.470   6.014   3.065
 7241WAT     H129684   2.407   5.967   3.104
 7241WAT     H229685   2.528   5.954   3.039
 7241WAT    EPW29686   2.469   5.998   3.067
 7242WAT      O29687   3.385   5.210   2.887
 7242WAT     H129688   3.425   5.239   2.959
 7242WAT     H229689   3.370   5.126   2.904
 7242WAT    EPW29690   3.389   5.202   2.900
 7243WAT      O29691   2.060   5.994   2.144
 7243WAT     H129692   2.133   5.947   2.141
 7243WAT     H229693   2.073   6.048   2.211
 7243WAT    EPW29694   2.073   5.995   2.154
 7244WAT      O29695   2.123   5.748   2.920
 7244WAT     H129696   2.172   5.720   2.854
 7244WAT     H229697   2.108   5.832   2.901
 7244WAT    EPW29698   2.128   5.756   2.907
 7245WAT      O29699   2.826   5.148   2.273
 7245WAT     H129700   2.809   5.119   2.192
 7245WAT     H229701   2.789   5.227   2.274
 7245WAT    EPW29702   2.818   5.156   2.261
 7246WAT      O29703   3.656   6.352   3.443
 7246WAT     H129704   3.612   6.426   3.457
 7246WAT     H229705   3.646   6.339   3.357
 7246WAT    EPW29706   3.648   6.361   3.432
 7247WAT      O29707   2.602   6.168   2.718
 7247WAT     H129708   2.616   6.253   2.732
 7247WAT     H229709   2.676   6.131   2.745
 7247WAT    EPW29710   2.615   6.175   2.724
 7248WAT      O29711   2.378   5.494   3.735
 7248WAT     H129712   2.337   5.433   3.783
 7248WAT     H229713   2.390   5.455   3.658
 7248WAT    EPW29714   2.374   5.479   3.731
 7249WAT      O29715   2.424   5.406   2.246
 7249WAT     H129716   2.408   5.345   2.306
 7249WAT     H229717   2.382   5.378   2.176
 7249WAT    EPW29718   2.416   5.393   2.245
 7250WAT      O29719   2.491   5.645   2.915
 7250WAT     H129720   2.416   5.643   2.869
 7250WAT     H229721   2.468   5.611   2.991
 7250WAT    EPW29722   2.476   5.640   2.919
 7251WAT      O29723   3.500   5.389   3.076
 7251WAT     H129724   3.431   5.420   3.119
 7251WAT     H229725   3.511   5.446   3.011
 7251WAT    EPW29726   3.492   5.402   3.073
 7252WAT      O29727   2.973   6.423   3.128
 7252WAT     H129728   3.042   6.401   3.078
 7252WAT     H229729   2.936   6.488   3.082
 7252WAT    EPW29730   2.978   6.430   3.114
 7253WAT      O29731   3.344   5.116   2.442
 7253WAT     H129732   3.399   5.184   2.437
 7253WAT     H229733   3.265   5.152   2.435
 7253WAT    EPW29734   3.341   5.132   2.440
 7254WAT      O29735   2.264   5.738   3.800
 7254WAT     H129736   2.255   5.785   3.727
 7254WAT     H229737   2.305   5.666   3.773
 7254WAT    EPW29738   2.269   5.735   3.785
 7255WAT      O29739   3.396   5.926   3.633
 7255WAT     H129740   3.432   6.003   3.613
 7255WAT     H229741   3.438   5.870   3.580
 7255WAT    EPW29742   3.408   5.929   3.622
 7256WAT      O29743   2.847   6.272   3.720
 7256WAT     H129744   2.884   6.262   3.798
 7256WAT     H229745   2.815   6.193   3.702
 7256WAT    EPW29746   2.848   6.259   3.729
 7257WAT      O29747   2.936   5.224   3.047
 7257WAT     H129748   2.984   5.294   3.065
 7257WAT     H229749   2.991   5.157   3.060
 7257WAT    EPW29750   2.951   5.224   3.051
 7258WAT      O29751   3.168   5.569   2.232
 7258WAT     H129752   3.149   5.623   2.167
 7258WAT     H229753   3.115   5.596   2.297
 7258WAT    EPW29754   3.157   5.581   2.232
 7259WAT      O29755   3.695   5.928   2.672
 7259WAT     H129756   3.699   5.877   2.743
 7259WAT     H229757   3.681   5.871   2.607
 7259WAT    EPW29758   3.694   5.912   2.673
 7260WAT      O29759   3.230   6.341   3.018
 7260WAT     H129760   3.189   6.305   2.949
 7260WAT     H229761   3.286   6.396   2.981
 7260WAT    EPW29762   3.232   6.344   3.002
 7261WAT      O29763   3.255   5.958   2.991
 7261WAT     H129764   3.179   5.989   3.020
 7261WAT     H229765   3.285   5.910   3.057
 7261WAT    EPW29766   3.248   5.956   3.005
 7262WAT      O29767   2.663   6.455   2.389
 7262WAT     H129768   2.667   6.375   2.423
 7262WAT     H229769   2.734   6.458   2.337
 7262WAT    EPW29770   2.674   6.443   2.386
 7263WAT      O29771   2.619   4.816   2.190
 7263WAT     H129772   2.610   4.789   2.273
 7263WAT     H229773   2.566   4.885   2.185
 7263WAT    EPW29774   2.610   4.822   2.202
 7264WAT      O29775   2.896   6.446   2.242
 7264WAT     H129776   2.955   6.454   2.306
 7264WAT     H229777   2.900   6.523   2.201
 7264WAT    EPW29778   2.906   6.459   2.246
 7265WAT      O29779   3.518   5.756   3.454
 7265WAT     H129780   3.502   5.807   3.385
 7265WAT     H229781   3.603   5.770   3.470
 7265WAT    EPW29782   3.528   5.766   3.446
 7266WAT      O29783   3.216   6.376   3.889
 7266WAT     H129784   3.239   6.396   3.971
 7266WAT     H229785   3.244   6.443   3.842
 7266WAT    EPW29786   3.223   6.389   3.894
 7267WAT      O29787   2.403   5.672   2.336
 7267WAT     H129788   2.406   5.588   2.315
 7267WAT     H229789   2.465   5.679   2.398
 7267WAT    EPW29790   2.413   5.661   2.342
 7268WAT      O29791   3.163   5.787   3.406
 7268WAT     H129792   3.106   5.838   3.448
 7268WAT     H229793   3.193   5.735   3.469
 7268WAT    EPW29794   3.159   5.787   3.421
 7269WAT      O29795   2.038   4.808   2.431
 7269WAT     H129796   2.041   4.754   2.363
 7269WAT     H229797   2.008   4.758   2.496
 7269WAT    EPW29798   2.034   4.793   2.430
 7270WAT      O29799   3.009   5.622   2.460
 7270WAT     H129800   3.023   5.687   2.517
 7270WAT     H229801   3.013   5.550   2.509
 7270WAT    EPW29802   3.012   5.621   2.476
 7271WAT      O29803   3.485   6.124   2.980
 7271WAT     H129804   3.499   6.134   2.894
 7271WAT     H229805   3.413   6.075   2.983
 7271WAT    EPW29806   3.476   6.118   2.968
 7272WAT      O29807   2.470   5.046   2.140
 7272WAT     H129808   2.409   5.040   2.078
 7272WAT     H229809   2.538   5.081   2.099
 7272WAT    EPW29810   2.471   5.050   2.125
 7273WAT      O29811   2.930   5.846   2.898
 7273WAT     H129812   2.846   5.831   2.916
 7273WAT     H229813   2.972   5.812   2.966
 7273WAT    EPW29814   2.923   5.839   2.911
 7274WAT      O29815   2.591   6.447   2.007
 7274WAT     H129816   2.609   6.377   2.056
 7274WAT     H229817   2.598   6.513   2.063
 7274WAT    EPW29818   2.594   6.446   2.022
 7275WAT      O29819   2.266   5.837   3.148
 7275WAT     H129820   2.314   5.767   3.170
 7275WAT     H229821   2.221   5.810   3.078
 7275WAT    EPW29822   2.266   5.822   3.141
 7276WAT      O29823   2.584   5.323   2.804
 7276WAT     H129824   2.665   5.295   2.790
 7276WAT     H229825   2.534   5.254   2.785
 7276WAT    EPW29826   2.589   5.309   2.799
 7277WAT      O29827   3.885   6.482   2.216
 7277WAT     H129828   3.955   6.436   2.192
 7277WAT     H229829   3.836   6.425   2.259
 7277WAT    EPW29830   3.888   6.467   2.219
 7278WAT      O29831   2.092   5.412   2.466
 7278WAT     H129832   2.124   5.372   2.537
 7278WAT     H229833   2.105   5.355   2.402
 7278WAT    EPW29834   2.099   5.398   2.467
 7279WAT      O29835   3.633   5.805   3.162
 7279WAT     H129836   3.635   5.725   3.196
 7279WAT     H229837   3.549   5.827   3.166
 7279WAT    EPW29838   3.621   5.796   3.167
 7280WAT      O29839   2.596   5.580   2.019
 7280WAT     H129840   2.564   5.538   2.088
 7280WAT     H229841   2.544   5.556   1.953
 7280WAT    EPW29842   2.584   5.571   2.019
 7281WAT      O29843   2.242   5.881   3.566
 7281WAT     H129844   2.204   5.835   3.503
 7281WAT     H229845   2.219   5.964   3.549
 7281WAT    EPW29846   2.233   5.887   3.554
 7282WAT      O29847   3.730   5.768   2.900
 7282WAT     H129848   3.702   5.792   2.979
 7282WAT     H229849   3.817   5.770   2.906
 7282WAT    EPW29850   3.738   5.772   2.912
 7283WAT      O29851   2.701   5.395   2.245
 7283WAT     H129852   2.722   5.471   2.282
 7283WAT     H229853   2.615   5.390   2.256
 7283WAT    EPW29854   2.691   5.406   2.252
 7284WAT      O29855   2.063   5.043   2.947
 7284WAT     H129856   2.045   5.073   2.867
 7284WAT     H229857   2.130   5.092   2.973
 7284WAT    EPW29858   2.070   5.054   2.939
 7285WAT      O29859   3.888   6.303   3.001
 7285WAT     H129860   3.895   6.325   2.917
 7285WAT     H229861   3.930   6.367   3.043
 7285WAT    EPW29862   3.895   6.316   2.995
 7286WAT      O29863   3.552   6.166   2.193
 7286WAT     H129864   3.590   6.088   2.189
 7286WAT     H229865   3.477   6.150   2.235
 7286WAT    EPW29866   3.546   6.152   2.199
 7287WAT      O29867   3.590   5.317   2.723
 7287WAT     H129868   3.529   5.273   2.767
 7287WAT     H229869   3.589   5.396   2.760
 7287WAT    EPW29870   3.581   5.322   2.735
 7288WAT      O29871   3.783   5.830   3.507
 7288WAT     H129872   3.846   5.782   3.470
 7288WAT     H229873   3.776   5.899   3.455
 7288WAT    EPW29874   3.791   5.833   3.494
 7289WAT      O29875   3.233   5.950   2.128
 7289WAT     H129876   3.307   5.905   2.121
 7289WAT     H229877   3.203   5.956   2.046
 7289WAT    EPW29878   3.239   5.944   2.115
 7290WAT      O29879   2.773   6.091   3.211
 7290WAT     H129880   2.764   6.133   3.287
 7290WAT     H229881   2.859   6.090   3.198
 7290WAT    EPW29882   2.784   6.097   3.220
 7291WAT      O29883   2.514   5.940   3.543
 7291WAT     H129884   2.433   5.908   3.551
 7291WAT     H229885   2.501   6.026   3.534
 7291WAT    EPW29886   2.500   5.948   3.543
 7292WAT      O29887   3.028   5.736   3.167
 7292WAT     H129888   3.071   5.736   3.243
 7292WAT     H229889   2.945   5.746   3.190
 7292WAT    EPW29890   3.022   5.737   3.181
 7293WAT      O29891   2.660   5.228   3.470
 7293WAT     H129892   2.679   5.159   3.519
 7293WAT     H229893   2.680   5.202   3.389
 7293WAT    EPW29894   2.666   5.214   3.465
 7294WAT      O29895   2.917   6.475   2.702
 7294WAT     H129896   2.919   6.560   2.719
 7294WAT     H229897   2.939   6.470   2.618
 7294WAT    EPW29898   2.920   6.487   2.692
 7295WAT      O29899   3.543   4.664   3.232
 7295WAT     H129900   3.547   4.673   3.318
 7295WAT     H229901   3.612   4.615   3.213
 7295WAT    EPW29902   3.554   4.658   3.242
 7296WAT      O29903   2.848   4.754   3.470
 7296WAT     H129904   2.912   4.750   3.411
 7296WAT     H229905   2.871   4.696   3.531
 7296WAT    EPW29906   2.861   4.745   3.470
 7297WAT      O29907   3.151   5.900   3.756
 7297WAT     H129908   3.228   5.906   3.715
 7297WAT     H229909   3.094   5.927   3.696
 7297WAT    EPW29910   3.154   5.905   3.741
 7298WAT      O29911   3.499   6.186   3.606
 7298WAT     H129912   3.535   6.205   3.683
 7298WAT     H229913   3.545   6.234   3.550
 7298WAT    EPW29914   3.511   6.196   3.609
 7299WAT      O29915   3.738   5.434   2.056
 7299WAT     H129916   3.792   5.497   2.030
 7299WAT     H229917   3.670   5.476   2.089
 7299WAT    EPW29918   3.736   5.449   2.057
 7300WAT      O29919   2.827   5.729   2.069
 7300WAT     H129920   2.759   5.684   2.039
 7300WAT     H229921   2.798   5.812   2.068
 7300WAT    EPW29922   2.813   5.735   2.064
 7301WAT      O29923   2.518   5.283   3.070
 7301WAT     H129924   2.542   5.306   2.990
 7301WAT     H229925   2.505   5.360   3.110
 7301WAT    EPW29926   2.520   5.298   3.064
 7302WAT      O29927   2.995   6.497   3.625
 7302WAT     H129928   3.017   6.485   3.542
 7302WAT     H229929   2.965   6.419   3.650
 7302WAT    EPW29930   2.994   6.484   3.617
 7303WAT      O29931   3.535   5.318   2.451
 7303WAT     H129932   3.551   5.320   2.537
 7303WAT     H229933   3.614   5.333   2.416
 7303WAT    EPW29934   3.549   5.320   2.459
 7304WAT      O29935   2.929   4.801   2.950
 7304WAT     H129936   2.850   4.779   2.981
 7304WAT     H229937   2.911   4.849   2.880
 7304WAT    EPW29938   2.915   4.805   2.944
 7305WAT      O29939   3.556   4.975   2.574
 7305WAT     H129940   3.528   4.912   2.628
 7305WAT     H229941   3.482   5.017   2.552
 7305WAT    EPW29942   3.541   4.972   2.579
 7306WAT      O29943   2.985   5.964   3.535
 7306WAT     H129944   2.909   5.963   3.577
 7306WAT     H229945   2.992   6.046   3.506
 7306WAT    EPW29946   2.975   5.976   3.537
 7307WAT      O29947   2.069   4.944   3.701
 7307WAT     H129948   2.051   5.015   3.653
 7307WAT     H229949   1.991   4.911   3.721
 7307WAT    EPW29950   2.055   4.950   3.697
 7308WAT      O29951   2.622   6.490   3.110
 7308WAT     H129952   2.602   6.498   3.194
 7308WAT     H229953   2.545   6.483   3.071
 7308WAT    EPW29954   2.608   6.490   3.117
 7309WAT      O29955   2.385   5.163   2.382
 7309WAT     H129956   2.397   5.122   2.305
 7309WAT     H229957   2.306   5.137   2.407
 7309WAT    EPW29958   2.375   5.153   2.374
 7310WAT      O29959   3.290   5.916   2.716
 7310WAT     H129960   3.276   5.925   2.802
 7310WAT     H229961   3.315   5.833   2.709
 7310WAT    EPW29962   3.291   5.905   2.728
 7311WAT      O29963   3.033   5.842   2.636
 7311WAT     H129964   2.997   5.834   2.715
 7311WAT     H229965   3.114   5.869   2.653
 7311WAT    EPW29966   3.040   5.845   2.650
 7312WAT      O29967   3.019   6.233   3.451
 7312WAT     H129968   3.081   6.236   3.513
 7312WAT     H229969   3.043   6.295   3.395
 7312WAT    EPW29970   3.032   6.243   3.452
 7313WAT      O29971   2.194   6.563   3.646
 7313WAT     H129972   2.141   6.495   3.636
 7313WAT     H229973   2.141   6.626   3.674
 7313WAT    EPW29974   2.178   6.563   3.649
 7314WAT      O29975   3.080   5.760   3.991
 7314WAT     H129976   3.107   5.787   3.913
 7314WAT     H229977   2.997   5.737   3.978
 7314WAT    EPW29978   3.072   5.760   3.978
 7315WAT      O29979   3.401   6.553   2.954
 7315WAT     H129980   3.348   6.619   2.975
 7315WAT     H229981   3.468   6.561   3.010
 7315WAT    EPW29982   3.403   6.564   2.965
 7316WAT      O29983   3.043   6.031   3.164
 7316WAT     H129984   3.041   5.947   3.188
 7316WAT     H229985   3.104   6.066   3.216
 7316WAT    EPW29986   3.051   6.024   3.175
 7317WAT      O29987   3.634   6.257   3.842
 7317WAT     H129988   3.713   6.220   3.841
 7317WAT     H229989   3.595   6.221   3.911
 7317WAT    EPW29990   3.640   6.246   3.852
 7318WAT      O29991   2.411   5.355   3.492
 7318WAT     H129992   2.420   5.416   3.430
 7318WAT     H229993   2.487   5.312   3.489
 7318WAT    EPW29994   2.424   5.358   3.483
 7319WAT      O29995   2.202   5.233   3.352
 7319WAT     H129996   2.217   5.236   3.266
 7319WAT     H229997   2.271   5.273   3.386
 7319WAT    EPW29998   2.214   5.240   3.344
 7320WAT      O29999   3.794   5.391   2.373
 7320WAT     H130000   3.771   5.475   2.378
 7320WAT     H230001   3.868   5.387   2.419
 7320WAT    EPW30002   3.801   5.403   2.380
 7321WAT      O30003   2.430   4.906   3.616
 7321WAT     H130004   2.381   4.835   3.627
 7321WAT     H230005   2.402   4.938   3.539
 7321WAT    EPW30006   2.418   4.901   3.606
 7322WAT      O30007   3.117   6.184   2.538
 7322WAT     H130008   3.101   6.265   2.508
 7322WAT     H230009   3.045   6.140   2.517
 7322WAT    EPW30010   3.104   6.190   2.530
 7323WAT      O30011   2.102   5.759   3.363
 7323WAT     H130012   2.147   5.783   3.293
 7323WAT     H230013   2.097   5.672   3.355
 7323WAT    EPW30014   2.108   5.750   3.352
 7324WAT      O30015   2.280   5.310   2.025
 7324WAT     H130016   2.210   5.306   2.077
 7324WAT     H230017   2.282   5.231   1.989
 7324WAT    EPW30018   2.270   5.298   2.027
 7325WAT      O30019   2.603   6.211   2.175
 7325WAT     H130020   2.639   6.207   2.255
 7325WAT     H230021   2.521   6.186   2.189
 7325WAT    EPW30022   2.596   6.207   2.189
 7326WAT      O30023   3.535   4.936   3.151
 7326WAT     H130024   3.545   4.853   3.175
 7326WAT     H230025   3.601   4.977   3.191
 7326WAT    EPW30026   3.546   4.930   3.160
 7327WAT      O30027   2.644   5.702   3.456
 7327WAT     H130028   2.603   5.772   3.488
 7327WAT     H230029   2.584   5.666   3.403
 7327WAT    EPW30030   2.629   5.707   3.453
 7328WAT      O30031   3.548   5.559   2.862
 7328WAT     H130032   3.608   5.623   2.863
 7328WAT     H230033   3.486   5.590   2.809
 7328WAT    EPW30034   3.548   5.573   2.854
 7329WAT      O30035   3.550   6.370   2.574
 7329WAT     H130036   3.530   6.294   2.612
 7329WAT     H230037   3.593   6.347   2.502
 7329WAT    EPW30038   3.554   6.355   2.569
 7330WAT      O30039   2.349   6.114   2.235
 7330WAT     H130040   2.343   6.098   2.321
 7330WAT     H230041   2.367   6.035   2.201
 7330WAT    EPW30042   2.351   6.100   2.243
 7331WAT      O30043   2.665   5.964   2.046
 7331WAT     H130044   2.590   5.926   2.067
 7331WAT     H230045   2.661   6.041   2.085
 7331WAT    EPW30046   2.653   5.969   2.055
 7332WAT      O30047   2.580   4.887   3.251
 7332WAT     H130048   2.500   4.918   3.267
 7332WAT     H230049   2.628   4.958   3.241
 7332WAT    EPW30050   2.575   4.902   3.252
 7333WAT      O30051   3.081   4.983   3.095
 7333WAT     H130052   3.028   4.927   3.055
 7333WAT     H230053   3.086   4.952   3.176
 7333WAT    EPW30054   3.074   4.970   3.101
 7334WAT      O30055   3.291   6.152   3.241
 7334WAT     H130056   3.316   6.219   3.292
 7334WAT     H230057   3.289   6.187   3.161
 7334WAT    EPW30058   3.294   6.167   3.237
 7335WAT      O30059   3.270   6.563   3.685
 7335WAT     H130060   3.197   6.524   3.659
 7335WAT     H230061   3.245   6.645   3.702
 7335WAT    EPW30062   3.256   6.569   3.684
 7336WAT      O30063   2.764   5.471   3.582
 7336WAT     H130064   2.733   5.404   3.536
 7336WAT     H230065   2.729   5.541   3.544
 7336WAT    EPW30066   2.754   5.471   3.570
 7337WAT      O30067   2.893   4.825   2.149
 7337WAT     H130068   2.901   4.833   2.062
 7337WAT     H230069   2.807   4.833   2.161
 7337WAT    EPW30070   2.881   4.828   2.138
 7338WAT      O30071   3.758   6.016   3.297
 7338WAT     H130072   3.728   5.953   3.245
 7338WAT     H230073   3.721   6.089   3.265
 7338WAT    EPW30074   3.748   6.018   3.285
 7339WAT      O30075   2.673   6.484   3.645
 7339WAT     H130076   2.643   6.500   3.725
 7339WAT     H230077   2.728   6.417   3.657
 7339WAT    EPW30078   2.677   6.476   3.659
 7340WAT      O30079   3.661   6.243   3.166
 7340WAT     H130080   3.725   6.265   3.112
 7340WAT     H230081   3.599   6.212   3.113
 7340WAT    EPW30082   3.661   6.242   3.151
 7341WAT      O30083   2.334   4.980   3.365
 7341WAT     H130084   2.273   4.920   3.352
 7341WAT     H230085   2.291   5.055   3.354
 7341WAT    EPW30086   2.319   4.982   3.362
 7342WAT      O30087   3.328   4.940   2.966
 7342WAT     H130088   3.389   4.937   3.028
 7342WAT     H230089   3.255   4.959   3.010
 7342WAT    EPW30090   3.326   4.942   2.982
 7343WAT      O30091   2.363   6.370   3.783
 7343WAT     H130092   2.432   6.407   3.821
 7343WAT     H230093   2.322   6.438   3.746
 7343WAT    EPW30094   2.367   6.385   3.783
 7344WAT      O30095   3.202   5.419   2.832
 7344WAT     H130096   3.256   5.351   2.843
 7344WAT     H230097   3.167   5.430   2.911
 7344WAT    EPW30098   3.205   5.410   2.845
 7345WAT      O30099   2.216   5.326   2.701
 7345WAT     H130100   2.179   5.351   2.776
 7345WAT     H230101   2.259   5.253   2.723
 7345WAT    EPW30102   2.217   5.319   2.716
 7346WAT      O30103   2.200   6.146   3.486
 7346WAT     H130104   2.150   6.206   3.525
 7346WAT     H230105   2.281   6.176   3.498
 7346WAT    EPW30106   2.205   6.159   3.494
 7347WAT      O30107   3.335   5.516   2.459
 7347WAT     H130108   3.403   5.464   2.443
 7347WAT     H230109   3.304   5.533   2.380
 7347WAT    EPW30110   3.341   5.511   2.445
 7348WAT      O30111   2.385   6.452   2.378
 7348WAT     H130112   2.353   6.452   2.296
 7348WAT     H230113   2.471   6.447   2.367
 7348WAT    EPW30114   2.393   6.451   2.364
 7349WAT      O30115   2.770   5.648   2.328
 7349WAT     H130116   2.793   5.680   2.251
 7349WAT     H230117   2.846   5.638   2.370
 7349WAT    EPW30118   2.785   5.652   2.323
 7350WAT      O30119   3.670   6.543   2.044
 7350WAT     H130120   3.741   6.532   2.093
 7350WAT     H230121   3.655   6.464   2.010
 7350WAT    EPW30122   3.678   6.530   2.046
 7351WAT      O30123   3.722   5.735   3.783
 7351WAT     H130124   3.712   5.649   3.787
 7351WAT     H230125   3.739   5.750   3.698
 7351WAT    EPW30126   3.723   5.725   3.771
 7352WAT      O30127   3.306   6.142   2.322
 7352WAT     H130128   3.260   6.133   2.395
 7352WAT     H230129   3.272   6.083   2.268
 7352WAT    EPW30130   3.294   6.132   2.325
 7353WAT      O30131   3.763   5.342   3.168
 7353WAT     H130132   3.680   5.352   3.146
 7353WAT     H230133   3.766   5.261   3.202
 7353WAT    EPW30134   3.752   5.331   3.170
 7354WAT      O30135   2.700   4.988   3.624
 7354WAT     H130136   2.749   4.927   3.584
 7354WAT     H230137   2.620   4.954   3.622
 7354WAT    EPW30138   2.695   4.974   3.618
 7355WAT      O30139   3.518   5.910   3.880
 7355WAT     H130140   3.583   5.852   3.873
 7355WAT     H230141   3.481   5.909   3.802
 7355WAT    EPW30142   3.522   5.901   3.868
 7356WAT      O30143   2.391   6.353   3.000
 7356WAT     H130144   2.364   6.285   2.953
 7356WAT     H230145   2.364   6.422   2.955
 7356WAT    EPW30146   2.383   6.353   2.987
 7357WAT      O30147   2.974   6.004   2.219
 7357WAT     H130148   3.051   5.971   2.196
 7357WAT     H230149   2.964   6.073   2.168
 7357WAT    EPW30150   2.984   6.009   2.208
 7358WAT      O30151   2.183   6.611   3.366
 7358WAT     H130152   2.186   6.589   3.450
 7358WAT     H230153   2.212   6.540   3.325
 7358WAT    EPW30154   2.187   6.597   3.372
 7359WAT      O30155   3.189   4.843   0.694
 7359WAT     H130156   3.212   4.872   0.615
 7359WAT     H230157   3.263   4.809   0.725
 7359WAT    EPW30158   3.204   4.843   0.687
 7360WAT      O30159   3.107   5.472   1.142
 7360WAT     H130160   3.071   5.547   1.169
 7360WAT     H230161   3.168   5.455   1.202
 7360WAT    EPW30162   3.111   5.481   1.155
 7361WAT      O30163   2.085   5.943   0.673
 7361WAT     H130164   2.077   5.945   0.760
 7361WAT     H230165   2.081   5.857   0.655
 7361WAT    EPW30166   2.083   5.930   0.683
 7362WAT      O30167   3.710   6.297   0.455
 7362WAT     H130168   3.774   6.241   0.472
 7362WAT     H230169   3.660   6.254   0.397
 7362WAT    EPW30170   3.712   6.282   0.449
 7363WAT      O30171   2.093   5.303   0.315
 7363WAT     H130172   2.037   5.360   0.280
 7363WAT     H230173   2.051   5.227   0.308
 7363WAT    EPW30174   2.078   5.300   0.309
 7364WAT      O30175   2.344   5.847   0.252
 7364WAT     H130176   2.329   5.808   0.175
 7364WAT     H230177   2.352   5.781   0.308
 7364WAT    EPW30178   2.343   5.832   0.249
 7365WAT      O30179   3.361   5.663   0.793
 7365WAT     H130180   3.375   5.647   0.708
 7365WAT     H230181   3.303   5.603   0.816
 7365WAT    EPW30182   3.354   5.652   0.784
 7366WAT      O30183   2.334   6.052   0.621
 7366WAT     H130184   2.387   6.018   0.681
 7366WAT     H230185   2.257   6.012   0.635
 7366WAT    EPW30186   2.330   6.041   0.632
 7367WAT      O30187   2.814   4.958   0.614
 7367WAT     H130188   2.812   5.039   0.583
 7367WAT     H230189   2.856   4.913   0.552
 7367WAT    EPW30190   2.820   4.963   0.600
 7368WAT      O30191   2.243   6.355   0.275
 7368WAT     H130192   2.269   6.363   0.192
 7368WAT     H230193   2.269   6.275   0.297
 7368WAT    EPW30194   2.250   6.345   0.266
 7369WAT      O30195   2.096   6.162   1.335
 7369WAT     H130196   2.130   6.139   1.412
 7369WAT     H230197   2.026   6.111   1.328
 7369WAT    EPW30198   2.091   6.151   1.346
 7370WAT      O30199   2.753   5.994   1.781
 7370WAT     H130200   2.732   5.978   1.864
 7370WAT     H230201   2.681   5.972   1.737
 7370WAT    EPW30202   2.739   5.988   1.786
 7371WAT      O30203   2.287   5.689   0.807
 7371WAT     H130204   2.238   5.687   0.735
 7371WAT     H230205   2.342   5.622   0.795
 7371WAT    EPW30206   2.288   5.679   0.794
 7372WAT      O30207   2.716   5.274   1.357
 7372WAT     H130208   2.784   5.276   1.303
 7372WAT     H230209   2.689   5.191   1.352
 7372WAT    EPW30210   2.722   5.262   1.348
 7373WAT      O30211   2.751   6.273   1.519
 7373WAT     H130212   2.764   6.335   1.459
 7373WAT     H230213   2.831   6.249   1.543
 7373WAT    EPW30214   2.765   6.278   1.514
 7374WAT      O30215   2.453   5.469   0.791
 7374WAT     H130216   2.521   5.417   0.812
 7374WAT     H230217   2.385   5.415   0.794
 7374WAT    EPW30218   2.453   5.453   0.795
 7375WAT      O30219   2.857   6.105   0.938
 7375WAT     H130220   2.879   6.024   0.960
 7375WAT     H230221   2.933   6.146   0.930
 7375WAT    EPW30222   2.871   6.099   0.940
 7376WAT      O30223   2.889   6.033   0.583
 7376WAT     H130224   2.928   5.973   0.633
 7376WAT     H230225   2.920   6.016   0.503
 7376WAT    EPW30226   2.899   6.021   0.578
 7377WAT      O30227   3.045   5.504   1.757
 7377WAT     H130228   2.959   5.501   1.743
 7377WAT     H230229   3.053   5.556   1.826
 7377WAT    EPW30230   3.034   5.511   1.765
 7378WAT      O30231   2.537   4.974   0.683
 7378WAT     H130232   2.495   5.018   0.621
 7378WAT     H230233   2.618   4.967   0.652
 7378WAT    EPW30234   2.543   4.980   0.669
 7379WAT      O30235   3.514   4.747   1.717
 7379WAT     H130236   3.512   4.818   1.666
 7379WAT     H230237   3.431   4.740   1.745
 7379WAT    EPW30238   3.501   4.757   1.714
 7380WAT      O30239   2.863   4.908   0.882
 7380WAT     H130240   2.873   4.991   0.907
 7380WAT     H230241   2.843   4.915   0.797
 7380WAT    EPW30242   2.861   4.922   0.873
 7381WAT      O30243   2.102   5.427   1.056
 7381WAT     H130244   2.100   5.514   1.064
 7381WAT     H230245   2.035   5.400   1.104
 7381WAT    EPW30246   2.092   5.436   1.064
 7382WAT      O30247   2.081   6.397   0.872
 7382WAT     H130248   2.019   6.445   0.833
 7382WAT     H230249   2.123   6.360   0.805
 7382WAT    EPW30250   2.078   6.398   0.856
 7383WAT      O30251   2.707   6.246   0.580
 7383WAT     H130252   2.660   6.230   0.652
 7383WAT     H230253   2.771   6.187   0.583
 7383WAT    EPW30254   2.709   6.235   0.591
 7384WAT      O30255   3.281   6.387   0.385
 7384WAT     H130256   3.342   6.446   0.371
 7384WAT     H230257   3.325   6.319   0.419
 7384WAT    EPW30258   3.296   6.386   0.388
 7385WAT      O30259   3.075   6.458   0.553
 7385WAT     H130260   3.107   6.529   0.592
 7385WAT     H230261   3.136   6.437   0.495
 7385WAT    EPW30262   3.089   6.466   0.550
 7386WAT      O30263   2.375   4.932   1.095
 7386WAT     H130264   2.336   4.863   1.058
 7386WAT     H230265   2.435   4.897   1.147
 7386WAT    EPW30266   2.378   4.917   1.097
 7387WAT      O30267   2.707   5.123   2.003
 7387WAT     H130268   2.712   5.087   1.924
 7387WAT     H230269   2.747   5.201   1.992
 7387WAT    EPW30270   2.714   5.129   1.990
 7388WAT      O30271   2.223   6.305   0.649
 7388WAT     H130272   2.272   6.233   0.656
 7388WAT     H230273   2.273   6.360   0.604
 7388WAT    EPW30274   2.238   6.302   0.643
 7389WAT      O30275   3.825   5.108   0.795
 7389WAT     H130276   3.777   5.181   0.804
 7389WAT     H230277   3.766   5.046   0.782
 7389WAT    EPW30278   3.810   5.110   0.795
 7390WAT      O30279   3.332   6.433   1.351
 7390WAT     H130280   3.401   6.486   1.343
 7390WAT     H230281   3.319   6.403   1.270
 7390WAT    EPW30282   3.340   6.436   1.338
 7391WAT      O30283   2.282   5.045   1.928
 7391WAT     H130284   2.202   5.017   1.908
 7391WAT     H230285   2.332   5.013   1.863
 7391WAT    EPW30286   2.278   5.036   1.916
 7392WAT      O30287   2.362   6.127   1.005
 7392WAT     H130288   2.416   6.109   0.939
 7392WAT     H230289   2.388   6.074   1.068
 7392WAT    EPW30290   2.374   6.116   1.004
 7393WAT      O30291   2.669   6.436   0.918
 7393WAT     H130292   2.747   6.452   0.882
 7393WAT     H230293   2.613   6.480   0.867
 7393WAT    EPW30294   2.672   6.445   0.905
 7394WAT      O30295   2.902   4.844   1.870
 7394WAT     H130296   2.915   4.770   1.826
 7394WAT     H230297   2.833   4.880   1.831
 7394WAT    EPW30298   2.894   4.839   1.858
 7395WAT      O30299   2.986   5.393   0.717
 7395WAT     H130300   3.017   5.349   0.648
 7395WAT     H230301   3.058   5.413   0.763
 7395WAT    EPW30302   3.001   5.389   0.714
 7396WAT      O30303   3.075   5.420   0.258
 7396WAT     H130304   3.107   5.495   0.290
 7396WAT     H230305   2.996   5.441   0.230
 7396WAT    EPW30306   3.068   5.434   0.259
 7397WAT      O30307   3.475   6.584   0.333
 7397WAT     H130308   3.519   6.544   0.269
 7397WAT     H230309   3.533   6.640   0.367
 7397WAT    EPW30310   3.490   6.586   0.328
 7398WAT      O30311   2.523   6.518   1.487
 7398WAT     H130312   2.559   6.499   1.564
 7398WAT     H230313   2.460   6.459   1.478
 7398WAT    EPW30314   2.519   6.507   1.497
 7399WAT      O30315   3.736   5.054   1.249
 7399WAT     H130316   3.793   5.043   1.184
 7399WAT     H230317   3.760   4.993   1.307
 7399WAT    EPW30318   3.748   5.043   1.248
 7400WAT      O30319   2.004   5.163   1.654
 7400WAT     H130320   2.000   5.236   1.703
 7400WAT     H230321   2.063   5.183   1.594
 7400WAT    EPW30322   2.012   5.177   1.653
 7401WAT      O30323   3.228   6.224   1.742
 7401WAT     H130324   3.221   6.244   1.827
 7401WAT     H230325   3.314   6.218   1.730
 7401WAT    EPW30326   3.239   6.226   1.753
 7402WAT      O30327   3.068   6.267   0.239
 7402WAT     H130328   3.008   6.329   0.246
 7402WAT     H230329   3.141   6.305   0.266
 7402WAT    EPW30330   3.070   6.282   0.244
 7403WAT      O30331   3.252   4.900   0.428
 7403WAT     H130332   3.317   4.856   0.390
 7403WAT     H230333   3.286   4.979   0.441
 7403WAT    EPW30334   3.267   4.905   0.424
 7404WAT      O30335   2.110   5.075   0.576
 7404WAT     H130336   2.086   4.993   0.556
 7404WAT     H230337   2.063   5.094   0.647
 7404WAT    EPW30338   2.099   5.066   0.583
 7405WAT      O30339   2.288   6.377   1.368
 7405WAT     H130340   2.227   6.316   1.360
 7405WAT     H230341   2.330   6.376   1.292
 7405WAT    EPW30342   2.285   6.368   1.356
 7406WAT      O30343   3.059   5.260   0.483
 7406WAT     H130344   2.983   5.220   0.469
 7406WAT     H230345   3.071   5.308   0.411
 7406WAT    EPW30346   3.050   5.261   0.470
 7407WAT      O30347   3.088   6.481   1.466
 7407WAT     H130348   3.165   6.471   1.425
 7407WAT     H230349   3.030   6.476   1.401
 7407WAT    EPW30350   3.091   6.479   1.450
 7408WAT      O30351   2.978   4.911   0.378
 7408WAT     H130352   2.959   4.988   0.342
 7408WAT     H230353   3.065   4.912   0.386
 7408WAT    EPW30354   2.988   4.923   0.374
 7409WAT      O30355   3.779   6.537   0.721
 7409WAT     H130356   3.738   6.613   0.736
 7409WAT     H230357   3.714   6.480   0.713
 7409WAT    EPW30358   3.763   6.540   0.722
 7410WAT      O30359   2.900   5.190   0.899
 7410WAT     H130360   2.920   5.257   0.846
 7410WAT     H230361   2.906   5.225   0.979
 7410WAT    EPW30362   2.904   5.205   0.903
 7411WAT      O30363   3.471   6.098   0.721
 7411WAT     H130364   3.538   6.046   0.742
 7411WAT     H230365   3.402   6.056   0.754
 7411WAT    EPW30366   3.471   6.084   0.729
 7412WAT      O30367   2.482   6.221   1.637
 7412WAT     H130368   2.560   6.253   1.612
 7412WAT     H230369   2.466   6.262   1.712
 7412WAT    EPW30370   2.491   6.232   1.644
 7413WAT      O30371   2.473   4.713   0.745
 7413WAT     H130372   2.492   4.796   0.728
 7413WAT     H230373   2.442   4.683   0.670
 7413WAT    EPW30374   2.471   4.721   0.732
 7414WAT      O30375   2.660   5.799   1.085
 7414WAT     H130376   2.682   5.782   1.167
 7414WAT     H230377   2.605   5.735   1.065
 7414WAT    EPW30378   2.655   5.787   1.094
 7415WAT      O30379   3.270   5.155   1.469
 7415WAT     H130380   3.259   5.206   1.539
 7415WAT     H230381   3.202   5.100   1.473
 7415WAT    EPW30382   3.259   5.154   1.480
 7416WAT      O30383   2.758   5.798   1.344
 7416WAT     H130384   2.738   5.883   1.353
 7416WAT     H230385   2.728   5.762   1.418
 7416WAT    EPW30386   2.751   5.805   1.357
 7417WAT      O30387   3.382   5.875   1.340
 7417WAT     H130388   3.307   5.847   1.375
 7417WAT     H230389   3.376   5.962   1.348
 7417WAT    EPW30390   3.370   5.884   1.347
 7418WAT      O30391   3.427   4.739   0.791
 7418WAT     H130392   3.432   4.720   0.876
 7418WAT     H230393   3.458   4.667   0.752
 7418WAT    EPW30394   3.432   4.725   0.798
 7419WAT      O30395   2.016   6.207   1.959
 7419WAT     H130396   2.076   6.252   2.003
 7419WAT     H230397   2.021   6.127   1.994
 7419WAT    EPW30398   2.026   6.202   1.971
 7420WAT      O30399   3.620   5.239   1.558
 7420WAT     H130400   3.700   5.215   1.579
 7420WAT     H230401   3.590   5.278   1.630
 7420WAT    EPW30402   3.627   5.241   1.572
 7421WAT      O30403   2.410   5.112   0.891
 7421WAT     H130404   2.442   5.061   0.828
 7421WAT     H230405   2.401   5.058   0.959
 7421WAT    EPW30406   2.413   5.097   0.892
 7422WAT      O30407   3.678   5.930   0.332
 7422WAT     H130408   3.673   5.880   0.403
 7422WAT     H230409   3.763   5.928   0.311
 7422WAT    EPW30410   3.690   5.922   0.339
 7423WAT      O30411   2.455   5.911   0.825
 7423WAT     H130412   2.528   5.888   0.782
 7423WAT     H230413   2.407   5.838   0.824
 7423WAT    EPW30414   2.458   5.897   0.818
 7424WAT      O30415   2.294   6.551   0.956
 7424WAT     H130416   2.220   6.511   0.931
 7424WAT     H230417   2.344   6.549   0.884
 7424WAT    EPW30418   2.290   6.545   0.941
 7425WAT      O30419   2.272   5.262   1.203
 7425WAT     H130420   2.354   5.286   1.187
 7425WAT     H230421   2.224   5.317   1.155
 7425WAT    EPW30422   2.277   5.274   1.194
 7426WAT      O30423   3.923   6.339   1.704
 7426WAT     H130424   3.846   6.345   1.664
 7426WAT     H230425   3.906   6.298   1.778
 7426WAT    EPW30426   3.909   6.334   1.709
 7427WAT      O30427   3.523   5.552   0.258
 7427WAT     H130428   3.452   5.558   0.208
 7427WAT     H230429   3.497   5.583   0.335
 7427WAT    EPW30430   3.509   5.558   0.262
 7428WAT      O30431   2.668   5.857   0.655
 7428WAT     H130432   2.723   5.917   0.623
 7428WAT     H230433   2.673   5.792   0.598
 7428WAT    EPW30434   2.677   5.856   0.642
 7429WAT      O30435   3.819   5.079   0.247
 7429WAT     H130436   3.845   4.998   0.225
 7429WAT     H230437   3.786   5.111   0.173
 7429WAT    EPW30438   3.818   5.072   0.233
 7430WAT      O30439   2.113   6.002   0.954
 7430WAT     H130440   2.059   6.061   0.986
 7430WAT     H230441   2.192   6.039   0.962
 7430WAT    EPW30442   2.117   6.016   0.960
 7431WAT      O30443   2.837   5.371   1.997
 7431WAT     H130444   2.789   5.399   2.064
 7431WAT     H230445   2.811   5.421   1.930
 7431WAT    EPW30446   2.826   5.383   1.997
 7432WAT      O30447   3.911   5.486   1.469
 7432WAT     H130448   3.950   5.411   1.447
 7432WAT     H230449   3.834   5.480   1.428
 7432WAT    EPW30450   3.905   5.474   1.460
 7433WAT      O30451   2.142   5.676   0.577
 7433WAT     H130452   2.118   5.593   0.581
 7433WAT     H230453   2.213   5.675   0.526
 7433WAT    EPW30454   2.149   5.664   0.570
 7434WAT      O30455   3.661   4.928   0.444
 7434WAT     H130456   3.737   4.890   0.463
 7434WAT     H230457   3.684   4.998   0.398
 7434WAT    EPW30458   3.675   4.932   0.440
 7435WAT      O30459   3.087   6.259   0.903
 7435WAT     H130460   3.043   6.332   0.887
 7435WAT     H230461   3.111   6.231   0.824
 7435WAT    EPW30462   3.084   6.266   0.889
 7436WAT      O30463   2.047   6.150   0.496
 7436WAT     H130464   2.100   6.207   0.536
 7436WAT     H230465   2.042   6.084   0.553
 7436WAT    EPW30466   2.054   6.149   0.511
 7437WAT      O30467   2.465   5.960   1.199
 7437WAT     H130468   2.517   6.001   1.255
 7437WAT     H230469   2.519   5.915   1.149
 7437WAT    EPW30470   2.480   5.959   1.200
 7438WAT      O30471   3.370   5.237   0.922
 7438WAT     H130472   3.397   5.239   1.005
 7438WAT     H230473   3.316   5.168   0.920
 7438WAT    EPW30474   3.366   5.227   0.934
 7439WAT      O30475   2.070   5.952   0.292
 7439WAT     H130476   2.152   5.922   0.287
 7439WAT     H230477   2.077   6.021   0.346
 7439WAT    EPW30478   2.083   5.958   0.300
 7440WAT      O30479   2.131   5.734   1.033
 7440WAT     H130480   2.184   5.710   0.967
 7440WAT     H230481   2.124   5.820   1.022
 7440WAT    EPW30482   2.138   5.743   1.021
 7441WAT      O30483   2.802   5.161   0.417
 7441WAT     H130484   2.749   5.097   0.391
 7441WAT     H230485   2.755   5.234   0.401
 7441WAT    EPW30486   2.787   5.163   0.411
 7442WAT      O30487   3.669   6.370   1.569
 7442WAT     H130488   3.623   6.440   1.591
 7442WAT     H230489   3.668   6.371   1.482
 7442WAT    EPW30490   3.662   6.380   1.560
 7443WAT      O30491   2.600   6.185   0.827
 7443WAT     H130492   2.613   6.265   0.861
 7443WAT     H230493   2.668   6.139   0.857
 7443WAT    EPW30494   2.612   6.190   0.836
 7444WAT      O30495   2.384   5.500   1.848
 7444WAT     H130496   2.346   5.438   1.896
 7444WAT     H230497   2.385   5.466   1.768
 7444WAT    EPW30498   2.379   5.486   1.843
 7445WAT      O30499   2.363   5.367   0.378
 7445WAT     H130500   2.372   5.303   0.437
 7445WAT     H230501   2.283   5.354   0.347
 7445WAT    EPW30502   2.353   5.355   0.382
 7446WAT      O30503   2.481   5.598   1.040
 7446WAT     H130504   2.472   5.568   0.958
 7446WAT     H230505   2.497   5.526   1.087
 7446WAT    EPW30506   2.482   5.583   1.035
 7447WAT      O30507   2.454   5.564   1.386
 7447WAT     H130508   2.480   5.513   1.319
 7447WAT     H230509   2.400   5.621   1.348
 7447WAT    EPW30510   2.450   5.565   1.370
 7448WAT      O30511   3.507   5.353   1.146
 7448WAT     H130512   3.448   5.380   1.204
 7448WAT     H230513   3.514   5.420   1.091
 7448WAT    EPW30514   3.499   5.367   1.147
 7449WAT      O30515   2.867   6.439   1.306
 7449WAT     H130516   2.840   6.378   1.250
 7449WAT     H230517   2.853   6.514   1.262
 7449WAT    EPW30518   2.861   6.441   1.291
 7450WAT      O30519   3.093   4.944   1.539
 7450WAT     H130520   3.105   4.860   1.517
 7450WAT     H230521   3.112   4.946   1.624
 7450WAT    EPW30522   3.098   4.932   1.548
 7451WAT      O30523   3.322   5.153   0.503
 7451WAT     H130524   3.380   5.216   0.518
 7451WAT     H230525   3.245   5.194   0.504
 7451WAT    EPW30526   3.320   5.168   0.505
 7452WAT      O30527   2.272   5.741   1.924
 7452WAT     H130528   2.265   5.790   1.852
 7452WAT     H230529   2.313   5.670   1.896
 7452WAT    EPW30530   2.277   5.738   1.909
 7453WAT      O30531   3.423   5.933   1.784
 7453WAT     H130532   3.454   6.011   1.763
 7453WAT     H230533   3.455   5.881   1.721
 7453WAT    EPW30534   3.432   5.937   1.771
 7454WAT      O30535   2.847   6.257   1.816
 7454WAT     H130536   2.876   6.250   1.898
 7454WAT     H230537   2.817   6.177   1.799
 7454WAT    EPW30538   2.847   6.244   1.826
 7455WAT      O30539   2.916   5.271   1.162
 7455WAT     H130540   2.979   5.331   1.164
 7455WAT     H230541   2.958   5.198   1.186
 7455WAT    EPW30542   2.932   5.269   1.166
 7456WAT      O30543   3.171   5.644   0.390
 7456WAT     H130544   3.189   5.727   0.367
 7456WAT     H230545   3.103   5.652   0.444
 7456WAT    EPW30546   3.164   5.658   0.394
 7457WAT      O30547   3.658   5.912   0.804
 7457WAT     H130548   3.684   5.858   0.867
 7457WAT     H230549   3.666   5.864   0.731
 7457WAT    EPW30550   3.663   5.897   0.803
 7458WAT      O30551   3.284   6.292   1.105
 7458WAT     H130552   3.220   6.277   1.049
 7458WAT     H230553   3.331   6.355   1.067
 7458WAT    EPW30554   3.282   6.299   1.091
 7459WAT      O30555   3.273   5.958   1.092
 7459WAT     H130556   3.200   5.992   1.124
 7459WAT     H230557   3.304   5.910   1.158
 7459WAT    EPW30558   3.267   5.956   1.107
 7460WAT      O30559   2.659   6.489   0.442
 7460WAT     H130560   2.670   6.420   0.495
 7460WAT     H230561   2.728   6.486   0.388
 7460WAT    EPW30562   2.671   6.478   0.442
 7461WAT      O30563   2.636   4.943   0.357
 7461WAT     H130564   2.628   4.860   0.384
 7461WAT     H230565   2.561   4.958   0.315
 7461WAT    EPW30566   2.624   4.933   0.355
 7462WAT      O30567   2.909   6.481   0.328
 7462WAT     H130568   2.949   6.468   0.404
 7462WAT     H230569   2.929   6.564   0.309
 7462WAT    EPW30570   2.918   6.492   0.336
 7463WAT      O30571   3.512   5.782   1.568
 7463WAT     H130572   3.478   5.818   1.497
 7463WAT     H230573   3.595   5.807   1.566
 7463WAT    EPW30574   3.519   5.791   1.557
 7464WAT      O30575   3.213   6.351   2.000
 7464WAT     H130576   3.238   6.373   2.081
 7464WAT     H230577   3.241   6.418   1.951
 7464WAT    EPW30578   3.221   6.364   2.004
 7465WAT      O30579   3.695   4.832   1.923
 7465WAT     H130580   3.638   4.813   1.860
 7465WAT     H230581   3.696   4.761   1.973
 7465WAT    EPW30582   3.687   4.819   1.921
 7466WAT      O30583   2.384   5.641   0.435
 7466WAT     H130584   2.377   5.556   0.420
 7466WAT     H230585   2.463   5.649   0.471
 7466WAT    EPW30586   2.395   5.630   0.438
 7467WAT      O30587   3.149   5.787   1.459
 7467WAT     H130588   3.100   5.825   1.520
 7467WAT     H230589   3.182   5.717   1.500
 7467WAT    EPW30590   3.146   5.782   1.474
 7468WAT      O30591   2.015   4.813   0.512
 7468WAT     H130592   2.019   4.755   0.447
 7468WAT     H230593   1.990   4.766   0.580
 7468WAT    EPW30594   2.012   4.798   0.512
 7469WAT      O30595   2.954   5.634   0.567
 7469WAT     H130596   2.971   5.697   0.624
 7469WAT     H230597   2.955   5.561   0.616
 7469WAT    EPW30598   2.957   5.632   0.582
 7470WAT      O30599   3.544   6.064   1.092
 7470WAT     H130600   3.577   6.045   1.014
 7470WAT     H230601   3.459   6.046   1.083
 7470WAT    EPW30602   3.536   6.059   1.079
 7471WAT      O30603   2.400   5.054   0.241
 7471WAT     H130604   2.339   5.024   0.187
 7471WAT     H230605   2.420   5.132   0.207
 7471WAT    EPW30606   2.394   5.061   0.228
 7472WAT      O30607   2.916   5.838   0.992
 7472WAT     H130608   2.833   5.819   1.009
 7472WAT     H230609   2.958   5.807   1.062
 7472WAT    EPW30610   2.910   5.830   1.005
 7473WAT      O30611   2.285   5.757   1.271
 7473WAT     H130612   2.337   5.825   1.253
 7473WAT     H230613   2.245   5.743   1.195
 7473WAT    EPW30614   2.287   5.765   1.257
 7474WAT      O30615   2.623   5.284   0.923
 7474WAT     H130616   2.700   5.245   0.908
 7474WAT     H230617   2.565   5.219   0.912
 7474WAT    EPW30618   2.626   5.268   0.919
 7475WAT      O30619   3.871   6.467   0.310
 7475WAT     H130620   3.947   6.426   0.299
 7475WAT     H230621   3.826   6.414   0.362
 7475WAT    EPW30622   3.875   6.453   0.316
 7476WAT      O30623   2.091   5.401   0.592
 7476WAT     H130624   2.126   5.364   0.662
 7476WAT     H230625   2.101   5.341   0.529
 7476WAT    EPW30626   2.097   5.387   0.593
 7477WAT      O30627   3.630   5.743   1.271
 7477WAT     H130628   3.631   5.671   1.320
 7477WAT     H230629   3.549   5.774   1.280
 7477WAT    EPW30630   3.619   5.737   1.279
 7478WAT      O30631   2.249   5.882   1.687
 7478WAT     H130632   2.210   5.832   1.627
 7478WAT     H230633   2.226   5.963   1.665
 7478WAT    EPW30634   2.240   5.887   1.675
 7479WAT      O30635   3.736   5.742   1.012
 7479WAT     H130636   3.708   5.747   1.095
 7479WAT     H230637   3.823   5.735   1.020
 7479WAT    EPW30638   3.745   5.741   1.025
 7480WAT      O30639   2.650   5.390   0.363
 7480WAT     H130640   2.665   5.470   0.395
 7480WAT     H230641   2.563   5.385   0.358
 7480WAT    EPW30642   2.640   5.401   0.367
 7481WAT      O30643   3.463   5.181   1.822
 7481WAT     H130644   3.402   5.167   1.882
 7481WAT     H230645   3.451   5.116   1.765
 7481WAT    EPW30646   3.452   5.170   1.822
 7482WAT      O30647   2.062   5.043   1.049
 7482WAT     H130648   2.045   5.069   0.967
 7482WAT     H230649   2.148   5.057   1.057
 7482WAT    EPW30650   2.072   5.049   1.038
 7483WAT      O30651   3.872   6.229   1.067
 7483WAT     H130652   3.908   6.286   1.012
 7483WAT     H230653   3.924   6.232   1.137
 7483WAT    EPW30654   3.885   6.238   1.069
 7484WAT      O30655   3.367   5.488   1.920
 7484WAT     H130656   3.406   5.496   1.997
 7484WAT     H230657   3.291   5.531   1.931
 7484WAT    EPW30658   3.361   5.496   1.933
 7485WAT      O30659   3.580   5.519   1.733
 7485WAT     H130660   3.607   5.599   1.755
 7485WAT     H230661   3.517   5.502   1.790
 7485WAT    EPW30662   3.575   5.528   1.745
 7486WAT      O30663   3.548   6.167   0.275
 7486WAT     H130664   3.589   6.091   0.280
 7486WAT     H230665   3.476   6.155   0.322
 7486WAT    EPW30666   3.544   6.154   0.283
 7487WAT      O30667   3.618   5.303   0.813
 7487WAT     H130668   3.547   5.263   0.846
 7487WAT     H230669   3.618   5.381   0.852
 7487WAT    EPW30670   3.608   5.308   0.823
 7488WAT      O30671   3.908   5.617   1.931
 7488WAT     H130672   3.915   5.558   1.867
 7488WAT     H230673   3.987   5.656   1.932
 7488WAT    EPW30674   3.921   5.614   1.922
 7489WAT      O30675   3.772   5.886   1.567
 7489WAT     H130676   3.843   5.842   1.540
 7489WAT     H230677   3.761   5.947   1.504
 7489WAT    EPW30678   3.781   5.889   1.553
 7490WAT      O30679   3.269   5.899   0.315
 7490WAT     H130680   3.299   5.959   0.371
 7490WAT     H230681   3.320   5.909   0.245
 7490WAT    EPW30682   3.281   5.909   0.313
 7491WAT      O30683   2.689   6.072   1.335
 7491WAT     H130684   2.698   6.125   1.403
 7491WAT     H230685   2.702   6.123   1.266
 7491WAT    EPW30686   2.692   6.087   1.335
 7492WAT      O30687   2.517   5.940   1.638
 7492WAT     H130688   2.436   5.913   1.657
 7492WAT     H230689   2.508   6.026   1.626
 7492WAT    EPW30690   2.504   5.949   1.639
 7493WAT      O30691   3.474   5.005   1.600
 7493WAT     H130692   3.530   5.068   1.577
 7493WAT     H230693   3.400   5.028   1.560
 7493WAT    EPW30694   3.471   5.018   1.591
 7494WAT      O30695   3.001   5.714   1.236
 7494WAT     H130696   3.054   5.739   1.300
 7494WAT     H230697   2.921   5.728   1.269
 7494WAT    EPW30698   2.997   5.720   1.250
 7495WAT      O30699   2.650   5.269   1.628
 7495WAT     H130700   2.666   5.189   1.657
 7495WAT     H230701   2.680   5.268   1.546
 7495WAT    EPW30702   2.657   5.257   1.620
 7496WAT      O30703   2.931   6.482   0.820
 7496WAT     H130704   2.944   6.565   0.844
 7496WAT     H230705   2.950   6.483   0.735
 7496WAT    EPW30706   2.936   6.494   0.811
 7497WAT      O30707   3.531   4.772   1.334
 7497WAT     H130708   3.499   4.852   1.319
 7497WAT     H230709   3.612   4.787   1.362
 7497WAT    EPW30710   3.538   4.786   1.336
 7498WAT      O30711   2.815   4.883   1.517
 7498WAT     H130712   2.897   4.911   1.510
 7498WAT     H230713   2.820   4.800   1.491
 7498WAT    EPW30714   2.828   4.875   1.512
 7499WAT      O30715   2.742   6.258   1.135
 7499WAT     H130716   2.696   6.315   1.087
 7499WAT     H230717   2.783   6.210   1.076
 7499WAT    EPW30718   2.742   6.260   1.119
 7500WAT      O30719   3.159   5.912   1.861
 7500WAT     H130720   3.239   5.922   1.830
 7500WAT     H230721   3.107   5.929   1.793
 7500WAT    EPW30722   3.163   5.916   1.847
 7501WAT      O30723   3.507   6.197   1.726
 7501WAT     H130724   3.542   6.224   1.801
 7501WAT     H230725   3.554   6.239   1.665
 7501WAT    EPW30726   3.519   6.207   1.728
 7502WAT      O30727   3.793   5.491   0.223
 7502WAT     H130728   3.823   5.557   0.174
 7502WAT     H230729   3.706   5.502   0.220
 7502WAT    EPW30730   3.785   5.503   0.215
 7503WAT      O30731   2.534   5.365   1.175
 7503WAT     H130732   2.567   5.335   1.100
 7503WAT     H230733   2.590   5.336   1.235
 7503WAT    EPW30734   2.547   5.356   1.173
 7504WAT      O30735   3.252   5.339   1.679
 7504WAT     H130736   3.180   5.379   1.707
 7504WAT     H230737   3.302   5.333   1.750
 7504WAT    EPW30738   3.249   5.344   1.694
 7505WAT      O30739   3.301   5.401   1.327
 7505WAT     H130740   3.310   5.459   1.391
 7505WAT     H230741   3.285   5.326   1.368
 7505WAT    EPW30742   3.300   5.399   1.342
 7506WAT      O30743   3.010   6.472   1.733
 7506WAT     H130744   3.028   6.464   1.648
 7506WAT     H230745   2.971   6.396   1.753
 7506WAT    EPW30746   3.007   6.460   1.724
 7507WAT      O30747   3.508   5.357   0.565
 7507WAT     H130748   3.534   5.334   0.645
 7507WAT     H230749   3.580   5.390   0.528
 7507WAT    EPW30750   3.522   5.359   0.571
 7508WAT      O30751   2.814   4.830   1.154
 7508WAT     H130752   2.728   4.820   1.170
 7508WAT     H230753   2.817   4.838   1.067
 7508WAT    EPW30754   2.802   4.830   1.143
 7509WAT      O30755   3.630   4.921   0.725
 7509WAT     H130756   3.556   4.880   0.748
 7509WAT     H230757   3.620   4.935   0.640
 7509WAT    EPW30758   3.618   4.917   0.716
 7510WAT      O30759   3.649   5.763   0.560
 7510WAT     H130760   3.698   5.692   0.548
 7510WAT     H230761   3.568   5.733   0.553
 7510WAT    EPW30762   3.644   5.748   0.557
 7511WAT      O30763   2.993   5.946   1.637
 7511WAT     H130764   2.916   5.948   1.679
 7511WAT     H230765   3.002   6.027   1.606
 7511WAT    EPW30766   2.983   5.958   1.639
 7512WAT      O30767   2.040   4.937   1.813
 7512WAT     H130768   2.035   5.009   1.763
 7512WAT     H230769   1.957   4.917   1.830
 7512WAT    EPW30770   2.027   4.945   1.808
 7513WAT      O30771   2.562   6.600   1.217
 7513WAT     H130772   2.555   6.586   1.303
 7513WAT     H230773   2.533   6.526   1.181
 7513WAT    EPW30774   2.557   6.587   1.224
 7514WAT      O30775   2.375   5.123   0.513
 7514WAT     H130776   2.377   5.090   0.432
 7514WAT     H230777   2.293   5.108   0.539
 7514WAT    EPW30778   2.363   5.116   0.505
 7515WAT      O30779   3.274   5.925   0.818
 7515WAT     H130780   3.268   5.938   0.904
 7515WAT     H230781   3.309   5.845   0.812
 7515WAT    EPW30782   3.278   5.915   0.830
 7516WAT      O30783   3.021   5.845   0.736
 7516WAT     H130784   2.982   5.836   0.814
 7516WAT     H230785   3.101   5.873   0.756
 7516WAT    EPW30786   3.027   5.848   0.750
 7517WAT      O30787   3.032   6.211   1.548
 7517WAT     H130788   3.092   6.213   1.612
 7517WAT     H230789   3.054   6.280   1.498
 7517WAT    EPW30790   3.044   6.222   1.550
 7518WAT      O30791   3.850   5.427   1.732
 7518WAT     H130792   3.766   5.449   1.738
 7518WAT     H230793   3.871   5.451   1.651
 7518WAT    EPW30794   3.841   5.434   1.721
 7519WAT      O30795   3.312   5.577   1.543
 7519WAT     H130796   3.299   5.514   1.601
 7519WAT     H230797   3.383   5.618   1.573
 7519WAT    EPW30798   3.321   5.574   1.556
 7520WAT      O30799   2.195   6.559   1.745
 7520WAT     H130800   2.141   6.492   1.732
 7520WAT     H230801   2.142   6.622   1.774
 7520WAT    EPW30802   2.179   6.559   1.747
 7521WAT      O30803   3.086   5.670   1.978
 7521WAT     H130804   3.112   5.745   1.942
 7521WAT     H230805   3.004   5.687   2.003
 7521WAT    EPW30806   3.077   5.684   1.977
 7522WAT      O30807   3.434   6.517   1.043
 7522WAT     H130808   3.401   6.583   1.090
 7522WAT     H230809   3.503   6.491   1.089
 7522WAT    EPW30810   3.439   6.523   1.057
 7523WAT      O30811   3.060   6.058   1.247
 7523WAT     H130812   2.992   6.030   1.292
 7523WAT     H230813   3.114   6.090   1.308
 7523WAT    EPW30814   3.058   6.059   1.262
 7524WAT      O30815   3.634   6.284   1.957
 7524WAT     H130816   3.717   6.258   1.959
 7524WAT     H230817   3.599   6.245   2.027
 7524WAT    EPW30818   3.641   6.274   1.968
 7525WAT      O30819   2.397   5.384   1.592
 7525WAT     H130820   2.413   5.444   1.531
 7525WAT     H230821   2.474   5.344   1.602
 7525WAT    EPW30822   2.411   5.387   1.584
 7526WAT      O30823   2.201   5.233   1.465
 7526WAT     H130824   2.220   5.239   1.380
 7526WAT     H230825   2.265   5.279   1.504
 7526WAT    EPW30826   2.213   5.241   1.458
 7527WAT      O30827   3.737   5.501   0.498
 7527WAT     H130828   3.761   5.502   0.414
 7527WAT     H230829   3.805   5.464   0.538
 7527WAT    EPW30830   3.751   5.496   0.491
 7528WAT      O30831   2.429   4.920   1.728
 7528WAT     H130832   2.401   4.838   1.729
 7528WAT     H230833   2.408   4.948   1.648
 7528WAT    EPW30834   2.422   4.912   1.716
 7529WAT      O30835   3.115   6.193   0.629
 7529WAT     H130836   3.094   6.275   0.607
 7529WAT     H230837   3.042   6.148   0.614
 7529WAT    EPW30838   3.101   6.198   0.624
 7530WAT      O30839   3.626   5.510   1.442
 7530WAT     H130840   3.617   5.423   1.442
 7530WAT     H230841   3.604   5.533   1.523
 7530WAT    EPW30842   3.621   5.501   1.454
 7531WAT      O30843   2.118   5.736   1.491
 7531WAT     H130844   2.165   5.751   1.419
 7531WAT     H230845   2.097   5.652   1.485
 7531WAT    EPW30846   2.121   5.726   1.479
 7532WAT      O30847   3.152   4.950   1.814
 7532WAT     H130848   3.179   5.011   1.870
 7532WAT     H230849   3.072   4.931   1.841
 7532WAT    EPW30850   3.144   4.956   1.826
 7533WAT      O30851   3.169   5.043   0.894
 7533WAT     H130852   3.089   5.078   0.892
 7533WAT     H230853   3.168   4.987   0.828
 7533WAT    EPW30854   3.157   5.040   0.884
 7534WAT      O30855   2.634   6.129   0.334
 7534WAT     H130856   2.658   6.169   0.407
 7534WAT     H230857   2.547   6.135   0.335
 7534WAT    EPW30858   2.624   6.136   0.345
 7535WAT      O30859   3.451   5.034   1.260
 7535WAT     H130860   3.533   5.059   1.247
 7535WAT     H230861   3.420   5.091   1.319
 7535WAT    EPW30862   3.458   5.046   1.267
 7536WAT      O30863   2.632   5.688   1.567
 7536WAT     H130864   2.594   5.762   1.592
 7536WAT     H230865   2.574   5.651   1.515
 7536WAT    EPW30866   2.618   5.694   1.563
 7537WAT      O30867   3.559   5.542   0.946
 7537WAT     H130868   3.619   5.603   0.964
 7537WAT     H230869   3.499   5.586   0.900
 7537WAT    EPW30870   3.559   5.557   0.942
 7538WAT      O30871   3.558   6.363   0.673
 7538WAT     H130872   3.531   6.286   0.702
 7538WAT     H230873   3.601   6.343   0.600
 7538WAT    EPW30874   3.560   6.349   0.666
 7539WAT      O30875   2.357   6.111   0.351
 7539WAT     H130876   2.353   6.094   0.436
 7539WAT     H230877   2.354   6.033   0.313
 7539WAT    EPW30878   2.356   6.097   0.358
 7540WAT      O30879   2.638   5.854   0.279
 7540WAT     H130880   2.553   5.856   0.259
 7540WAT     H230881   2.658   5.938   0.292
 7540WAT    EPW30882   2.628   5.866   0.278
 7541WAT      O30883   2.615   5.024   1.371
 7541WAT     H130884   2.535   5.003   1.398
 7541WAT     H230885   2.666   4.966   1.412
 7541WAT    EPW30886   2.611   5.012   1.381
 7542WAT      O30887   3.783   4.862   1.453
 7542WAT     H130888   3.791   4.919   1.518
 7542WAT     H230889   3.863   4.828   1.446
 7542WAT    EPW30890   3.796   4.865   1.461
 7543WAT      O30891   3.013   5.018   1.216
 7543WAT     H130892   2.948   4.961   1.206
 7543WAT     H230893   3.084   4.972   1.197
 7543WAT    EPW30894   3.014   5.003   1.212
 7544WAT      O30895   3.320   6.146   1.345
 7544WAT     H130896   3.339   6.218   1.390
 7544WAT     H230897   3.314   6.175   1.263
 7544WAT    EPW30898   3.322   6.161   1.339
 7545WAT      O30899   3.275   6.544   1.805
 7545WAT     H130900   3.204   6.506   1.771
 7545WAT     H230901   3.251   6.627   1.817
 7545WAT    EPW30902   3.261   6.551   1.801
 7546WAT      O30903   2.765   5.497   1.742
 7546WAT     H130904   2.729   5.425   1.707
 7546WAT     H230905   2.728   5.562   1.698
 7546WAT    EPW30906   2.754   5.496   1.731
 7547WAT      O30907   3.738   6.004   1.307
 7547WAT     H130908   3.722   5.919   1.295
 7547WAT     H230909   3.685   6.044   1.250
 7547WAT    EPW30910   3.728   5.998   1.297
 7548WAT      O30911   2.671   6.473   1.733
 7548WAT     H130912   2.651   6.482   1.817
 7548WAT     H230913   2.725   6.404   1.731
 7548WAT    EPW30914   2.676   6.464   1.745
 7549WAT      O30915   3.622   6.327   1.162
 7549WAT     H130916   3.703   6.312   1.132
 7549WAT     H230917   3.580   6.253   1.143
 7549WAT    EPW30918   3.628   6.314   1.154
 7550WAT      O30919   2.353   4.992   1.474
 7550WAT     H130920   2.302   4.925   1.451
 7550WAT     H230921   2.302   5.062   1.463
 7550WAT    EPW30922   2.338   4.992   1.469
 7551WAT      O30923   3.250   4.900   1.120
 7551WAT     H130924   3.310   4.951   1.158
 7551WAT     H230925   3.228   4.943   1.048
 7551WAT    EPW30926   3.255   4.914   1.115
 7552WAT      O30927   2.366   6.363   1.870
 7552WAT     H130928   2.436   6.398   1.908
 7552WAT     H230929   2.325   6.432   1.835
 7552WAT    EPW30930   2.370   6.379   1.871
 7553WAT      O30931   3.202   5.453   0.879
 7553WAT     H130932   3.257   5.386   0.888
 7553WAT     H230933   3.171   5.465   0.959
 7553WAT    EPW30934   3.206   5.445   0.892
 7554WAT      O30935   2.225   5.316   0.823
 7554WAT     H130936   2.182   5.341   0.895
 7554WAT     H230937   2.267   5.243   0.848
 7554WAT    EPW30938   2.225   5.309   0.838
 7555WAT      O30939   2.210   6.142   1.590
 7555WAT     H130940   2.160   6.204   1.626
 7555WAT     H230941   2.290   6.177   1.592
 7555WAT    EPW30942   2.214   6.156   1.595
 7556WAT      O30943   3.411   5.612   0.523
 7556WAT     H130944   3.427   5.527   0.535
 7556WAT     H230945   3.332   5.612   0.485
 7556WAT    EPW30946   3.402   5.600   0.519
 7557WAT      O30947   2.385   6.469   0.490
 7557WAT     H130948   2.340   6.448   0.418
 7557WAT     H230949   2.467   6.474   0.462
 7557WAT    EPW30950   2.390   6.467   0.475
 7558WAT      O30951   2.692   5.653   0.462
 7558WAT     H130952   2.691   5.712   0.398
 7558WAT     H230953   2.776   5.648   0.485
 7558WAT    EPW30954   2.704   5.661   0.456
 7559WAT      O30955   3.628   6.431   0.158
 7559WAT     H130956   3.709   6.442   0.190
 7559WAT     H230957   3.610   6.348   0.175
 7559WAT    EPW30958   3.637   6.420   0.165
 7560WAT      O30959   3.699   5.758   1.815
 7560WAT     H130960   3.768   5.728   1.859
 7560WAT     H230961   3.735   5.811   1.755
 7560WAT    EPW30962   3.715   5.761   1.812
 7561WAT      O30963   3.342   6.121   0.476
 7561WAT     H130964   3.395   6.109   0.544
 7561WAT     H230965   3.264   6.135   0.514
 7561WAT    EPW30966   3.338   6.121   0.492
 7562WAT      O30967   3.721   5.198   1.912
 7562WAT     H130968   3.730   5.276   1.949
 7562WAT     H230969   3.638   5.198   1.885
 7562WAT    EPW30970   3.710   5.210   1.914
 7563WAT      O30971   3.776   5.334   1.225
 7563WAT     H130972   3.693   5.347   1.201
 7563WAT     H230973   3.779   5.247   1.238
 7563WAT    EPW30974   3.764   5.323   1.223
 7564WAT      O30975   2.696   5.000   1.739
 7564WAT     H130976   2.731   4.966   1.667
 7564WAT     H230977   2.615   4.969   1.739
 7564WAT    EPW30978   2.690   4.991   1.728
 7565WAT      O30979   3.469   5.826   2.043
 7565WAT     H130980   3.545   5.858   2.071
 7565WAT     H230981   3.468   5.847   1.958
 7565WAT    EPW30982   3.480   5.834   2.034
 7566WAT      O30983   2.417   6.373   1.124
 7566WAT     H130984   2.406   6.295   1.086
 7566WAT     H230985   2.375   6.428   1.070
 7566WAT    EPW30986   2.409   6.369   1.110
 7567WAT      O30987   3.014   6.013   0.340
 7567WAT     H130988   3.089   5.973   0.320
 7567WAT     H230989   3.020   6.090   0.301
 7567WAT    EPW30990   3.026   6.018   0.331
 7568WAT      O30991   2.179   6.614   1.467
 7568WAT     H130992   2.188   6.595   1.551
 7568WAT     H230993   2.210   6.544   1.426
 7568WAT    EPW30994   2.184   6.601   1.473
 7569WAT      O30995   3.150   2.978   6.389
 7569WAT     H130996   3.149   3.027   6.317
 7569WAT     H230997   3.235   2.966   6.404
 7569WAT    EPW30998   3.162   2.983   6.381
 7570WAT      O30999   3.110   3.621   6.836
 7570WAT     H131000   3.078   3.700   6.858
 7570WAT     H231001   3.166   3.603   6.901
 7570WAT    EPW31002   3.114   3.630   6.849
 7571WAT      O31003   2.083   4.094   6.359
 7571WAT     H131004   2.049   4.097   6.439
 7571WAT     H231005   2.076   4.010   6.337
 7571WAT    EPW31006   2.077   4.082   6.368
 7572WAT      O31007   3.754   4.467   6.124
 7572WAT     H131008   3.820   4.415   6.145
 7572WAT     H231009   3.712   4.424   6.061
 7572WAT    EPW31010   3.757   4.453   6.118
 7573WAT      O31011   2.067   3.432   6.002
 7573WAT     H131012   2.002   3.481   5.971
 7573WAT     H231013   2.035   3.351   5.998
 7573WAT    EPW31014   2.053   3.427   5.997
 7574WAT      O31015   2.339   4.035   5.944
 7574WAT     H131016   2.320   3.995   5.868
 7574WAT     H231017   2.349   3.969   6.000
 7574WAT    EPW31018   2.338   4.019   5.941
 7575WAT      O31019   3.349   3.803   6.482
 7575WAT     H131020   3.359   3.789   6.396
 7575WAT     H231021   3.297   3.738   6.507
 7575WAT    EPW31022   3.343   3.792   6.473
 7576WAT      O31023   2.328   4.216   6.323
 7576WAT     H131024   2.385   4.179   6.377
 7576WAT     H231025   2.254   4.172   6.338
 7576WAT    EPW31026   2.326   4.204   6.333
 7577WAT      O31027   2.801   3.091   6.258
 7577WAT     H131028   2.796   3.160   6.204
 7577WAT     H231029   2.878   3.055   6.239
 7577WAT    EPW31030   2.811   3.096   6.247
 7578WAT      O31031   2.216   4.496   5.922
 7578WAT     H131032   2.260   4.504   5.847
 7578WAT     H231033   2.254   4.428   5.961
 7578WAT    EPW31034   2.228   4.487   5.916
 7579WAT      O31035   2.124   4.309   7.040
 7579WAT     H131036   2.150   4.288   7.120
 7579WAT     H231037   2.054   4.259   7.026
 7579WAT    EPW31038   2.118   4.299   7.050
 7580WAT      O31039   2.777   4.148   7.475
 7580WAT     H131040   2.781   4.111   7.553
 7580WAT     H231041   2.700   4.122   7.444
 7580WAT    EPW31042   2.766   4.139   7.482
 7581WAT      O31043   2.289   3.847   6.491
 7581WAT     H131044   2.236   3.844   6.422
 7581WAT     H231045   2.341   3.778   6.481
 7581WAT    EPW31046   2.289   3.837   6.480
 7582WAT      O31047   2.712   3.422   7.042
 7582WAT     H131048   2.781   3.428   6.989
 7582WAT     H231049   2.687   3.339   7.034
 7582WAT    EPW31050   2.718   3.411   7.033
 7583WAT      O31051   2.714   4.397   7.226
 7583WAT     H131052   2.695   4.470   7.182
 7583WAT     H231053   2.800   4.390   7.219
 7583WAT    EPW31054   2.724   4.406   7.218
 7584WAT      O31055   2.452   3.624   6.477
 7584WAT     H131056   2.519   3.572   6.497
 7584WAT     H231057   2.383   3.570   6.478
 7584WAT    EPW31058   2.452   3.608   6.480
 7585WAT      O31059   2.821   4.264   6.660
 7585WAT     H131060   2.851   4.183   6.671
 7585WAT     H231061   2.893   4.310   6.644
 7585WAT    EPW31062   2.836   4.259   6.659
 7586WAT      O31063   2.895   4.165   6.264
 7586WAT     H131064   2.934   4.108   6.319
 7586WAT     H231065   2.929   4.145   6.187
 7586WAT    EPW31066   2.906   4.153   6.261
 7587WAT      O31067   3.077   3.637   7.447
 7587WAT     H131068   2.994   3.641   7.421
 7587WAT     H231069   3.081   3.696   7.511
 7587WAT    EPW31070   3.065   3.646   7.452
 7588WAT      O31071   2.527   3.142   6.350
 7588WAT     H131072   2.491   3.199   6.294
 7588WAT     H231073   2.609   3.133   6.319
 7588WAT    EPW31074   2.534   3.149   6.337
 7589WAT      O31075   3.528   2.898   7.339
 7589WAT     H131076   3.510   2.967   7.288
 7589WAT     H231077   3.451   2.879   7.376
 7589WAT    EPW31078   3.514   2.906   7.337
 7590WAT      O31079   2.843   3.062   6.534
 7590WAT     H131080   2.852   3.145   6.558
 7590WAT     H231081   2.818   3.067   6.450
 7590WAT    EPW31082   2.841   3.075   6.525
 7591WAT      O31083   3.260   3.285   5.834
 7591WAT     H131084   3.211   3.353   5.860
 7591WAT     H231085   3.284   3.248   5.909
 7591WAT    EPW31086   3.256   3.290   5.849
 7592WAT      O31087   2.099   3.585   6.737
 7592WAT     H131088   2.099   3.672   6.748
 7592WAT     H231089   2.032   3.559   6.787
 7592WAT    EPW31090   2.089   3.594   6.746
 7593WAT      O31091   2.090   4.553   6.579
 7593WAT     H131092   2.025   4.601   6.546
 7593WAT     H231093   2.127   4.518   6.508
 7593WAT    EPW31094   2.086   4.555   6.564
 7594WAT      O31095   2.716   4.380   6.290
 7594WAT     H131096   2.670   4.368   6.363
 7594WAT     H231097   2.778   4.319   6.294
 7594WAT    EPW31098   2.718   4.369   6.301
 7595WAT      O31099   3.320   4.598   6.068
 7595WAT     H131100   3.392   4.645   6.050
 7595WAT     H231101   3.348   4.516   6.068
 7595WAT    EPW31102   3.335   4.593   6.065
 7596WAT      O31103   3.098   4.598   6.236
 7596WAT     H131104   3.107   4.673   6.278
 7596WAT     H231105   3.175   4.589   6.195
 7596WAT    EPW31106   3.111   4.608   6.236
 7597WAT      O31107   2.400   3.084   6.776
 7597WAT     H131108   2.354   3.017   6.745
 7597WAT     H231109   2.462   3.046   6.825
 7597WAT    EPW31110   2.403   3.068   6.779
 7598WAT      O31111   2.213   4.467   6.341
 7598WAT     H131112   2.263   4.396   6.353
 7598WAT     H231113   2.262   4.518   6.290
 7598WAT    EPW31114   2.228   4.464   6.336
 7599WAT      O31115   3.818   3.281   6.453
 7599WAT     H131116   3.770   3.351   6.473
 7599WAT     H231117   3.759   3.217   6.445
 7599WAT    EPW31118   3.802   3.282   6.455
 7600WAT      O31119   3.330   4.522   7.031
 7600WAT     H131120   3.404   4.560   7.007
 7600WAT     H231121   3.292   4.500   6.956
 7600WAT    EPW31122   3.335   4.524   7.017
 7601WAT      O31123   2.267   3.280   7.554
 7601WAT     H131124   2.199   3.227   7.550
 7601WAT     H231125   2.331   3.235   7.515
 7601WAT    EPW31126   2.267   3.266   7.548
 7602WAT      O31127   2.353   4.268   6.688
 7602WAT     H131128   2.411   4.260   6.624
 7602WAT     H231129   2.382   4.211   6.748
 7602WAT    EPW31130   2.366   4.258   6.688
 7603WAT      O31131   2.643   4.612   6.588
 7603WAT     H131132   2.724   4.624   6.556
 7603WAT     H231133   2.592   4.655   6.532
 7603WAT    EPW31134   2.648   4.620   6.575
 7604WAT      O31135   2.930   3.054   7.550
 7604WAT     H131136   2.942   2.975   7.516
 7604WAT     H231137   2.861   3.085   7.508
 7604WAT    EPW31138   2.922   3.047   7.539
 7605WAT      O31139   2.999   3.518   6.421
 7605WAT     H131140   3.026   3.476   6.349
 7605WAT     H231141   3.073   3.533   6.465
 7605WAT    EPW31142   3.014   3.514   6.417
 7606WAT      O31143   3.092   3.507   5.929
 7606WAT     H131144   3.114   3.588   5.953
 7606WAT     H231145   3.015   3.518   5.889
 7606WAT    EPW31146   3.084   3.521   5.927
 7607WAT      O31147   3.537   4.787   6.046
 7607WAT     H131148   3.599   4.808   5.989
 7607WAT     H231149   3.581   4.773   6.120
 7607WAT    EPW31150   3.552   4.788   6.049
 7608WAT      O31151   2.567   4.627   7.143
 7608WAT     H131152   2.578   4.647   7.227
 7608WAT     H231153   2.486   4.595   7.140
 7608WAT    EPW31154   2.556   4.625   7.155
 7609WAT      O31155   3.739   3.196   6.900
 7609WAT     H131156   3.800   3.188   6.838
 7609WAT     H231157   3.765   3.142   6.963
 7609WAT    EPW31158   3.752   3.187   6.900
 7610WAT      O31159   1.987   3.269   7.279
 7610WAT     H131160   1.983   3.331   7.340
 7610WAT     H231161   2.053   3.295   7.227
 7610WAT    EPW31162   1.996   3.282   7.280
 7611WAT      O31163   3.183   4.348   7.404
 7611WAT     H131164   3.170   4.286   7.465
 7611WAT     H231165   3.270   4.354   7.399
 7611WAT    EPW31166   3.194   4.339   7.412
 7612WAT      O31167   3.016   4.365   5.888
 7612WAT     H131168   3.001   4.293   5.935
 7612WAT     H231169   3.070   4.338   5.825
 7612WAT    EPW31170   3.022   4.350   5.885
 7613WAT      O31171   3.323   3.124   6.058
 7613WAT     H131172   3.378   3.057   6.070
 7613WAT     H231173   3.336   3.173   6.129
 7613WAT    EPW31174   3.333   3.121   6.070
 7614WAT      O31175   2.132   3.230   6.270
 7614WAT     H131176   2.109   3.147   6.256
 7614WAT     H231177   2.084   3.254   6.339
 7614WAT    EPW31178   2.122   3.221   6.278
 7615WAT      O31179   2.307   4.531   7.046
 7615WAT     H131180   2.252   4.463   7.047
 7615WAT     H231181   2.348   4.523   6.969
 7615WAT    EPW31182   2.305   4.520   7.035
 7616WAT      O31183   3.068   3.389   6.181
 7616WAT     H131184   2.999   3.338   6.162
 7616WAT     H231185   3.082   3.432   6.106
 7616WAT    EPW31186   3.060   3.388   6.167
 7617WAT      O31187   3.108   4.647   7.155
 7617WAT     H131188   3.175   4.601   7.123
 7617WAT     H231189   3.044   4.632   7.098
 7617WAT    EPW31190   3.109   4.638   7.142
 7618WAT      O31191   3.064   3.058   6.130
 7618WAT     H131192   3.012   3.047   6.060
 7618WAT     H231193   3.140   3.083   6.095
 7618WAT    EPW31194   3.067   3.060   6.114
 7619WAT      O31195   3.756   4.716   6.424
 7619WAT     H131196   3.709   4.789   6.422
 7619WAT     H231197   3.701   4.654   6.397
 7619WAT    EPW31198   3.741   4.717   6.420
 7620WAT      O31199   2.888   3.330   6.593
 7620WAT     H131200   2.915   3.395   6.541
 7620WAT     H231201   2.897   3.364   6.673
 7620WAT    EPW31202   2.893   3.345   6.597
 7621WAT      O31203   3.447   4.274   6.350
 7621WAT     H131204   3.521   4.232   6.371
 7621WAT     H231205   3.385   4.228   6.390
 7621WAT    EPW31206   3.449   4.261   6.359
 7622WAT      O31207   2.468   4.343   7.347
 7622WAT     H131208   2.544   4.366   7.311
 7622WAT     H231209   2.456   4.401   7.410
 7622WAT    EPW31210   2.477   4.355   7.351
 7623WAT      O31211   2.458   2.881   6.417
 7623WAT     H131212   2.477   2.964   6.399
 7623WAT     H231213   2.428   2.850   6.342
 7623WAT    EPW31214   2.456   2.889   6.403
 7624WAT      O31215   2.661   3.940   6.770
 7624WAT     H131216   2.687   3.926   6.852
 7624WAT     H231217   2.606   3.874   6.754
 7624WAT    EPW31218   2.657   3.928   6.779
 7625WAT      O31219   3.224   3.296   7.156
 7625WAT     H131220   3.214   3.328   7.237
 7625WAT     H231221   3.159   3.239   7.149
 7625WAT    EPW31222   3.213   3.292   7.167
 7626WAT      O31223   2.771   3.951   7.023
 7626WAT     H131224   2.751   4.035   7.031
 7626WAT     H231225   2.739   3.915   7.096
 7626WAT    EPW31226   2.763   3.958   7.035
 7627WAT      O31227   3.434   3.984   7.076
 7627WAT     H131228   3.351   3.961   7.088
 7627WAT     H231229   3.430   4.071   7.068
 7627WAT    EPW31230   3.422   3.993   7.077
 7628WAT      O31231   3.414   2.914   6.459
 7628WAT     H131232   3.421   2.901   6.545
 7628WAT     H231233   3.447   2.841   6.425
 7628WAT    EPW31234   3.420   2.901   6.467
 7629WAT      O31235   3.610   3.354   7.237
 7629WAT     H131236   3.693   3.331   7.247
 7629WAT     H231237   3.582   3.366   7.319
 7629WAT    EPW31238   3.618   3.352   7.251
 7630WAT      O31239   2.404   3.267   6.571
 7630WAT     H131240   2.434   3.218   6.506
 7630WAT     H231241   2.399   3.212   6.639
 7630WAT    EPW31242   2.407   3.252   6.572
 7631WAT      O31243   3.677   4.061   6.007
 7631WAT     H131244   3.664   4.022   6.083
 7631WAT     H231245   3.757   4.034   5.983
 7631WAT    EPW31246   3.687   4.052   6.014
 7632WAT      O31247   2.472   4.059   6.497
 7632WAT     H131248   2.533   4.033   6.440
 7632WAT     H231249   2.418   3.991   6.502
 7632WAT    EPW31250   2.473   4.045   6.489
 7633WAT      O31251   2.316   4.697   6.651
 7633WAT     H131252   2.238   4.662   6.632
 7633WAT     H231253   2.352   4.709   6.572
 7633WAT    EPW31254   2.310   4.693   6.636
 7634WAT      O31255   2.260   3.395   6.859
 7634WAT     H131256   2.344   3.419   6.855
 7634WAT     H231257   2.218   3.464   6.824
 7634WAT    EPW31258   2.266   3.409   6.853
 7635WAT      O31259   3.945   4.470   7.414
 7635WAT     H131260   3.869   4.469   7.371
 7635WAT     H231261   3.924   4.437   7.492
 7635WAT    EPW31262   3.930   4.465   7.419
 7636WAT      O31263   3.525   3.677   5.953
 7636WAT     H131264   3.473   3.686   5.884
 7636WAT     H231265   3.485   3.723   6.015
 7636WAT    EPW31266   3.511   3.685   5.952
 7637WAT      O31267   2.646   4.009   6.282
 7637WAT     H131268   2.712   4.065   6.279
 7637WAT     H231269   2.679   3.937   6.245
 7637WAT    EPW31270   2.660   4.006   6.276
 7638WAT      O31271   3.704   3.221   5.821
 7638WAT     H131272   3.725   3.149   5.777
 7638WAT     H231273   3.656   3.267   5.763
 7638WAT    EPW31274   3.700   3.217   5.806
 7639WAT      O31275   2.098   4.155   6.653
 7639WAT     H131276   2.047   4.215   6.691
 7639WAT     H231277   2.178   4.190   6.656
 7639WAT    EPW31278   2.102   4.169   6.659
 7640WAT      O31279   3.938   3.610   7.177
 7640WAT     H131280   3.965   3.533   7.148
 7640WAT     H231281   3.852   3.610   7.160
 7640WAT    EPW31282   3.929   3.599   7.170
 7641WAT      O31283   2.133   3.830   6.265
 7641WAT     H131284   2.115   3.745   6.264
 7641WAT     H231285   2.205   3.836   6.215
 7641WAT    EPW31286   2.141   3.818   6.258
 7642WAT      O31287   3.705   3.141   6.108
 7642WAT     H131288   3.751   3.067   6.101
 7642WAT     H231289   3.689   3.163   6.025
 7642WAT    EPW31290   3.710   3.134   6.094
 7643WAT      O31291   3.032   4.432   6.612
 7643WAT     H131292   2.991   4.505   6.587
 7643WAT     H231293   3.062   4.398   6.538
 7643WAT    EPW31294   3.030   4.438   6.598
 7644WAT      O31295   2.043   4.307   6.190
 7644WAT     H131296   2.096   4.363   6.231
 7644WAT     H231297   2.038   4.239   6.245
 7644WAT    EPW31298   2.050   4.305   6.204
 7645WAT      O31299   2.461   4.099   6.877
 7645WAT     H131300   2.513   4.139   6.936
 7645WAT     H231301   2.518   4.053   6.829
 7645WAT    EPW31302   2.477   4.098   6.879
 7646WAT      O31303   3.380   3.351   6.597
 7646WAT     H131304   3.408   3.317   6.672
 7646WAT     H231305   3.318   3.296   6.571
 7646WAT    EPW31306   3.375   3.338   6.604
 7647WAT      O31307   2.066   4.146   5.958
 7647WAT     H131308   2.143   4.105   5.957
 7647WAT     H231309   2.072   4.198   6.028
 7647WAT    EPW31310   2.078   4.148   5.968
 7648WAT      O31311   2.131   3.885   6.718
 7648WAT     H131312   2.186   3.866   6.653
 7648WAT     H231313   2.119   3.971   6.710
 7648WAT    EPW31314   2.137   3.895   6.707
 7649WAT      O31315   2.818   3.294   6.078
 7649WAT     H131316   2.801   3.280   5.993
 7649WAT     H231317   2.778   3.370   6.094
 7649WAT    EPW31318   2.810   3.303   6.068
 7650WAT      O31319   3.694   4.470   7.288
 7650WAT     H131320   3.652   4.545   7.302
 7650WAT     H231321   3.695   4.462   7.201
 7650WAT    EPW31322   3.688   4.480   7.277
 7651WAT      O31323   2.587   4.348   6.531
 7651WAT     H131324   2.598   4.431   6.557
 7651WAT     H231325   2.652   4.306   6.571
 7651WAT    EPW31326   2.598   4.354   6.541
 7652WAT      O31327   2.228   3.553   7.484
 7652WAT     H131328   2.246   3.476   7.521
 7652WAT     H231329   2.274   3.552   7.410
 7652WAT    EPW31330   2.237   3.541   7.479
 7653WAT      O31331   2.412   3.565   6.052
 7653WAT     H131332   2.394   3.500   6.108
 7653WAT     H231333   2.372   3.540   5.979
 7653WAT    EPW31334   2.404   3.552   6.050
 7654WAT      O31335   2.476   3.742   6.730
 7654WAT     H131336   2.469   3.714   6.648
 7654WAT     H231337   2.490   3.669   6.776
 7654WAT    EPW31338   2.477   3.727   6.725
 7655WAT      O31339   2.458   3.715   7.072
 7655WAT     H131340   2.483   3.663   7.007
 7655WAT     H231341   2.401   3.770   7.035
 7655WAT    EPW31342   2.453   3.715   7.057
 7656WAT      O31343   3.512   3.529   6.874
 7656WAT     H131344   3.446   3.552   6.926
 7656WAT     H231345   3.512   3.589   6.811
 7656WAT    EPW31346   3.503   3.541   6.873
 7657WAT      O31347   2.888   4.628   6.979
 7657WAT     H131348   2.841   4.560   6.951
 7657WAT     H231349   2.886   4.684   6.912
 7657WAT    EPW31350   2.881   4.627   6.965
 7658WAT      O31351   3.069   3.066   7.234
 7658WAT     H131352   3.094   2.985   7.214
 7658WAT     H231353   3.103   3.079   7.314
 7658WAT    EPW31354   3.078   3.056   7.243
 7659WAT      O31355   3.311   3.287   6.276
 7659WAT     H131356   3.366   3.355   6.273
 7659WAT     H231357   3.234   3.322   6.252
 7659WAT    EPW31358   3.308   3.302   6.272
 7660WAT      O31359   2.146   3.814   7.574
 7660WAT     H131360   2.193   3.872   7.528
 7660WAT     H231361   2.179   3.737   7.550
 7660WAT    EPW31362   2.158   3.812   7.564
 7661WAT      O31363   3.427   4.097   7.498
 7661WAT     H131364   3.450   4.179   7.481
 7661WAT     H231365   3.468   4.051   7.436
 7661WAT    EPW31366   3.437   4.102   7.486
 7662WAT      O31367   2.829   4.449   7.509
 7662WAT     H131368   2.838   4.433   7.594
 7662WAT     H231369   2.812   4.370   7.475
 7662WAT    EPW31370   2.828   4.435   7.516
 7663WAT      O31371   2.917   3.421   6.852
 7663WAT     H131372   2.979   3.483   6.854
 7663WAT     H231373   2.957   3.351   6.883
 7663WAT    EPW31374   2.932   3.420   6.857
 7664WAT      O31375   3.155   3.754   6.055
 7664WAT     H131376   3.131   3.825   6.010
 7664WAT     H231377   3.101   3.754   6.123
 7664WAT    EPW31378   3.144   3.765   6.059
 7665WAT      O31379   3.676   4.131   6.416
 7665WAT     H131380   3.676   4.103   6.499
 7665WAT     H231381   3.665   4.058   6.370
 7665WAT    EPW31382   3.674   4.116   6.421
 7666WAT      O31383   3.252   4.458   6.775
 7666WAT     H131384   3.176   4.454   6.733
 7666WAT     H231385   3.295   4.522   6.735
 7666WAT    EPW31386   3.247   4.467   6.763
 7667WAT      O31387   3.301   4.184   6.736
 7667WAT     H131388   3.283   4.269   6.745
 7667WAT     H231389   3.388   4.181   6.742
 7667WAT    EPW31390   3.311   4.196   6.738
 7668WAT      O31391   2.642   4.590   6.109
 7668WAT     H131392   2.674   4.555   6.183
 7668WAT     H231393   2.642   4.523   6.053
 7668WAT    EPW31394   2.647   4.575   6.112
 7669WAT      O31395   2.613   2.953   5.960
 7669WAT     H131396   2.607   2.926   6.042
 7669WAT     H231397   2.564   3.025   5.958
 7669WAT    EPW31398   2.605   2.960   5.972
 7670WAT      O31399   3.560   3.939   7.317
 7670WAT     H131400   3.523   3.950   7.238
 7670WAT     H231401   3.643   3.962   7.303
 7670WAT    EPW31402   3.567   3.944   7.303
 7671WAT      O31403   3.730   2.919   7.533
 7671WAT     H131404   3.670   2.914   7.470
 7671WAT     H231405   3.683   2.931   7.606
 7671WAT    EPW31406   3.715   2.920   7.535
 7672WAT      O31407   2.380   3.835   6.133
 7672WAT     H131408   2.392   3.751   6.114
 7672WAT     H231409   2.450   3.856   6.181
 7672WAT    EPW31410   2.392   3.826   6.138
 7673WAT      O31411   3.173   3.919   7.143
 7673WAT     H131412   3.118   3.962   7.195
 7673WAT     H231413   3.196   3.850   7.191
 7673WAT    EPW31414   3.168   3.915   7.158
 7674WAT      O31415   2.030   2.967   6.232
 7674WAT     H131416   2.033   2.910   6.165
 7674WAT     H231417   2.000   2.920   6.298
 7674WAT    EPW31418   2.026   2.952   6.232
 7675WAT      O31419   2.993   3.758   6.279
 7675WAT     H131420   3.006   3.825   6.334
 7675WAT     H231421   2.987   3.689   6.331
 7675WAT    EPW31422   2.994   3.758   6.295
 7676WAT      O31423   2.476   3.197   5.940
 7676WAT     H131424   2.419   3.196   5.874
 7676WAT     H231425   2.545   3.239   5.906
 7676WAT    EPW31426   2.478   3.203   5.925
 7677WAT      O31427   2.915   4.000   6.683
 7677WAT     H131428   2.834   3.973   6.699
 7677WAT     H231429   2.961   3.966   6.749
 7677WAT    EPW31430   2.910   3.991   6.695
 7678WAT      O31431   2.576   4.616   5.771
 7678WAT     H131432   2.643   4.561   5.770
 7678WAT     H231433   2.605   4.681   5.822
 7678WAT    EPW31434   2.590   4.618   5.779
 7679WAT      O31435   2.283   3.901   6.957
 7679WAT     H131436   2.335   3.968   6.939
 7679WAT     H231437   2.240   3.888   6.882
 7679WAT    EPW31438   2.284   3.909   6.943
 7680WAT      O31439   2.618   3.436   6.611
 7680WAT     H131440   2.694   3.396   6.600
 7680WAT     H231441   2.559   3.372   6.597
 7680WAT    EPW31442   2.620   3.420   6.608
 7681WAT      O31443   3.953   4.645   6.038
 7681WAT     H131444   4.004   4.599   5.985
 7681WAT     H231445   3.885   4.592   6.053
 7681WAT    EPW31446   3.950   4.631   6.032
 7682WAT      O31447   2.095   3.553   6.264
 7682WAT     H131448   2.130   3.516   6.335
 7682WAT     H231449   2.106   3.492   6.202
 7682WAT    EPW31450   2.102   3.538   6.266
 7683WAT      O31451   3.680   3.868   6.998
 7683WAT     H131452   3.679   3.790   7.037
 7683WAT     H231453   3.598   3.897   7.007
 7683WAT    EPW31454   3.668   3.860   7.005
 7684WAT      O31455   2.602   3.704   5.864
 7684WAT     H131456   2.549   3.669   5.924
 7684WAT     H231457   2.555   3.699   5.791
 7684WAT    EPW31458   2.587   3.698   5.862
 7685WAT      O31459   2.253   4.007   7.396
 7685WAT     H131460   2.221   3.962   7.329
 7685WAT     H231461   2.225   4.089   7.381
 7685WAT    EPW31462   2.244   4.013   7.384
 7686WAT      O31463   3.713   3.923   6.657
 7686WAT     H131464   3.691   3.980   6.719
 7686WAT     H231465   3.797   3.907   6.673
 7686WAT    EPW31466   3.722   3.929   6.669
 7687WAT      O31467   2.683   3.527   6.121
 7687WAT     H131468   2.706   3.610   6.135
 7687WAT     H231469   2.597   3.531   6.107
 7687WAT    EPW31470   2.674   3.539   6.121
 7688WAT      O31471   3.485   3.299   7.504
 7688WAT     H131472   3.449   3.313   7.582
 7688WAT     H231473   3.447   3.226   7.476
 7688WAT    EPW31474   3.474   3.290   7.511
 7689WAT      O31475   2.074   3.198   6.735
 7689WAT     H131476   2.055   3.230   6.656
 7689WAT     H231477   2.146   3.243   6.758
 7689WAT    EPW31478   2.082   3.209   6.727
 7690WAT      O31479   3.866   4.567   6.897
 7690WAT     H131480   3.892   4.572   6.814
 7690WAT     H231481   3.906   4.496   6.928
 7690WAT    EPW31482   3.876   4.558   6.890
 7691WAT      O31483   3.379   3.691   7.630
 7691WAT     H131484   3.432   3.754   7.660
 7691WAT     H231485   3.300   3.727   7.636
 7691WAT    EPW31486   3.375   3.706   7.636
 7692WAT      O31487   3.536   3.677   7.403
 7692WAT     H131488   3.551   3.762   7.393
 7692WAT     H231489   3.497   3.672   7.481
 7692WAT    EPW31490   3.533   3.689   7.413
 7693WAT      O31491   3.607   4.326   5.938
 7693WAT     H131492   3.636   4.244   5.947
 7693WAT     H231493   3.532   4.326   5.983
 7693WAT    EPW31494   3.600   4.314   5.946
 7694WAT      O31495   3.611   3.473   6.496
 7694WAT     H131496   3.544   3.425   6.527
 7694WAT     H231497   3.608   3.545   6.544
 7694WAT    EPW31498   3.601   3.476   6.508
 7695WAT      O31499   3.824   4.023   7.288
 7695WAT     H131500   3.886   3.968   7.262
 7695WAT     H231501   3.816   4.078   7.221
 7695WAT    EPW31502   3.832   4.023   7.274
 7696WAT      O31503   3.278   4.114   5.921
 7696WAT     H131504   3.353   4.072   5.905
 7696WAT     H231505   3.267   4.164   5.850
 7696WAT    EPW31506   3.288   4.115   5.908
 7697WAT      O31507   2.669   4.212   7.026
 7697WAT     H131508   2.676   4.255   7.102
 7697WAT     H231509   2.690   4.272   6.967
 7697WAT    EPW31510   2.673   4.227   7.029
 7698WAT      O31511   2.524   4.071   7.372
 7698WAT     H131512   2.445   4.037   7.390
 7698WAT     H231513   2.507   4.155   7.358
 7698WAT    EPW31514   2.510   4.078   7.373
 7699WAT      O31515   3.452   3.132   7.190
 7699WAT     H131516   3.508   3.199   7.194
 7699WAT     H231517   3.375   3.171   7.173
 7699WAT    EPW31518   3.449   3.148   7.188
 7700WAT      O31519   3.017   3.876   6.917
 7700WAT     H131520   3.074   3.894   6.980
 7700WAT     H231521   2.940   3.892   6.954
 7700WAT    EPW31522   3.014   3.881   6.932
 7701WAT      O31523   2.654   3.421   7.314
 7701WAT     H131524   2.676   3.342   7.344
 7701WAT     H231525   2.681   3.419   7.231
 7701WAT    EPW31526   2.661   3.409   7.306
 7702WAT      O31527   2.903   4.644   6.485
 7702WAT     H131528   2.912   4.730   6.494
 7702WAT     H231529   2.934   4.629   6.405
 7702WAT    EPW31530   2.909   4.654   6.474
 7703WAT      O31531   3.542   2.935   7.009
 7703WAT     H131532   3.508   3.003   7.050
 7703WAT     H231533   3.627   2.940   7.029
 7703WAT    EPW31534   3.550   2.946   7.018
 7704WAT      O31535   2.801   3.003   7.165
 7704WAT     H131536   2.882   3.033   7.175
 7704WAT     H231537   2.812   2.929   7.120
 7704WAT    EPW31538   2.815   2.996   7.160
 7705WAT      O31539   2.722   4.428   6.861
 7705WAT     H131540   2.645   4.455   6.830
 7705WAT     H231541   2.756   4.382   6.795
 7705WAT    EPW31542   2.716   4.425   6.847
 7706WAT      O31543   3.154   4.088   7.538
 7706WAT     H131544   3.240   4.086   7.520
 7706WAT     H231545   3.117   4.080   7.460
 7706WAT    EPW31546   3.161   4.086   7.524
 7707WAT      O31547   3.467   4.368   7.431
 7707WAT     H131548   3.460   4.440   7.481
 7707WAT     H231549   3.536   4.385   7.380
 7707WAT    EPW31550   3.477   4.381   7.431
 7708WAT      O31551   3.796   3.640   5.926
 7708WAT     H131552   3.828   3.695   5.866
 7708WAT     H231553   3.710   3.653   5.922
 7708WAT    EPW31554   3.788   3.650   5.917
 7709WAT      O31555   2.841   3.907   5.913
 7709WAT     H131556   2.827   3.844   5.854
 7709WAT     H231557   2.771   3.959   5.904
 7709WAT    EPW31558   2.829   3.906   5.903
 7710WAT      O31559   2.523   3.506   6.863
 7710WAT     H131560   2.558   3.479   6.788
 7710WAT     H231561   2.580   3.478   6.924
 7710WAT    EPW31562   2.536   3.498   6.861
 7711WAT      O31563   3.217   3.397   7.418
 7711WAT     H131564   3.166   3.466   7.435
 7711WAT     H231565   3.297   3.425   7.439
 7711WAT    EPW31566   3.221   3.412   7.424
 7712WAT      O31567   3.285   3.545   7.037
 7712WAT     H131568   3.286   3.594   7.109
 7712WAT     H231569   3.267   3.465   7.067
 7712WAT    EPW31570   3.282   3.540   7.052
 7713WAT      O31571   3.016   4.647   7.419
 7713WAT     H131572   3.037   4.635   7.335
 7713WAT     H231573   2.974   4.573   7.440
 7713WAT    EPW31574   3.013   4.634   7.410
 7714WAT      O31575   3.489   3.506   6.250
 7714WAT     H131576   3.533   3.501   6.324
 7714WAT     H231577   3.550   3.499   6.188
 7714WAT    EPW31578   3.504   3.504   6.252
 7715WAT      O31579   2.823   2.998   6.809
 7715WAT     H131580   2.741   2.981   6.830
 7715WAT     H231581   2.821   3.007   6.722
 7715WAT    EPW31582   2.811   2.997   6.799
 7716WAT      O31583   3.627   3.090   6.383
 7716WAT     H131584   3.548   3.060   6.402
 7716WAT     H231585   3.623   3.108   6.297
 7716WAT    EPW31586   3.615   3.088   6.373
 7717WAT      O31587   3.629   3.914   6.244
 7717WAT     H131588   3.682   3.844   6.242
 7717WAT     H231589   3.549   3.879   6.238
 7717WAT    EPW31590   3.625   3.898   6.243
 7718WAT      O31591   2.999   4.077   7.308
 7718WAT     H131592   2.925   4.080   7.354
 7718WAT     H231593   3.000   4.153   7.265
 7718WAT    EPW31594   2.988   4.089   7.309
 7719WAT      O31595   2.071   3.087   7.475
 7719WAT     H131596   2.043   3.141   7.413
 7719WAT     H231597   1.998   3.049   7.504
 7719WAT    EPW31598   2.056   3.089   7.470
 7720WAT      O31599   2.592   4.743   6.886
 7720WAT     H131600   2.587   4.708   6.966
 7720WAT     H231601   2.568   4.678   6.834
 7720WAT    EPW31602   2.588   4.728   6.890
 7721WAT      O31603   2.385   3.315   6.181
 7721WAT     H131604   2.400   3.272   6.106
 7721WAT     H231605   2.305   3.287   6.204
 7721WAT    EPW31606   2.375   3.304   6.173
 7722WAT      O31607   3.282   4.077   6.482
 7722WAT     H131608   3.283   4.108   6.563
 7722WAT     H231609   3.314   3.996   6.491
 7722WAT    EPW31610   3.287   4.070   6.495
 7723WAT      O31611   3.025   3.989   6.430
 7723WAT     H131612   2.990   3.988   6.510
 7723WAT     H231613   3.106   4.020   6.443
 7723WAT    EPW31614   3.032   3.993   6.444
 7724WAT      O31615   2.988   4.338   7.205
 7724WAT     H131616   3.052   4.355   7.261
 7724WAT     H231617   3.031   4.313   7.133
 7724WAT    EPW31618   3.004   4.337   7.202
 7725WAT      O31619   3.821   3.505   7.460
 7725WAT     H131620   3.768   3.573   7.447
 7725WAT     H231621   3.901   3.541   7.458
 7725WAT    EPW31622   3.825   3.521   7.458
 7726WAT      O31623   3.283   3.697   7.271
 7726WAT     H131624   3.222   3.676   7.330
 7726WAT     H231625   3.358   3.693   7.316
 7726WAT    EPW31626   3.285   3.693   7.286
 7727WAT      O31627   2.215   4.707   7.404
 7727WAT     H131628   2.155   4.643   7.399
 7727WAT     H231629   2.169   4.775   7.434
 7727WAT    EPW31630   2.199   4.708   7.408
 7728WAT      O31631   3.130   3.830   7.643
 7728WAT     H131632   3.138   3.912   7.613
 7728WAT     H231633   3.089   3.840   7.719
 7728WAT    EPW31634   3.125   3.844   7.650
 7729WAT      O31635   3.394   4.684   6.697
 7729WAT     H131636   3.352   4.748   6.740
 7729WAT     H231637   3.465   4.671   6.747
 7729WAT    EPW31638   3.398   4.692   6.711
 7730WAT      O31639   3.137   4.222   7.000
 7730WAT     H131640   3.129   4.180   6.924
 7730WAT     H231641   3.223   4.224   7.013
 7730WAT    EPW31642   3.148   4.216   6.990
 7731WAT      O31643   2.390   3.515   7.256
 7731WAT     H131644   2.409   3.583   7.205
 7731WAT     H231645   2.468   3.485   7.281
 7731WAT    EPW31646   2.404   3.520   7.252
 7732WAT      O31647   2.201   3.355   7.124
 7732WAT     H131648   2.217   3.368   7.039
 7732WAT     H231649   2.258   3.409   7.163
 7732WAT    EPW31650   2.212   3.365   7.117
 7733WAT      O31651   3.799   3.696   6.198
 7733WAT     H131652   3.799   3.681   6.112
 7733WAT     H231653   3.854   3.636   6.229
 7733WAT    EPW31654   3.807   3.685   6.190
 7734WAT      O31655   2.427   3.089   7.407
 7734WAT     H131656   2.381   3.017   7.426
 7734WAT     H231657   2.406   3.106   7.324
 7734WAT    EPW31658   2.417   3.081   7.398
 7735WAT      O31659   3.094   4.346   6.360
 7735WAT     H131660   3.094   4.419   6.312
 7735WAT     H231661   3.035   4.295   6.320
 7735WAT    EPW31662   3.085   4.349   6.347
 7736WAT      O31663   3.658   3.628   7.155
 7736WAT     H131664   3.639   3.544   7.141
 7736WAT     H231665   3.620   3.645   7.232
 7736WAT    EPW31666   3.649   3.619   7.164
 7737WAT      O31667   2.133   3.872   7.188
 7737WAT     H131668   2.175   3.886   7.113
 7737WAT     H231669   2.110   3.788   7.184
 7737WAT    EPW31670   2.136   3.861   7.177
 7738WAT      O31671   2.275   3.473   5.825
 7738WAT     H131672   2.205   3.464   5.875
 7738WAT     H231673   2.290   3.393   5.794
 7738WAT    EPW31674   2.267   3.460   5.828
 7739WAT      O31675   3.187   3.130   7.486
 7739WAT     H131676   3.188   3.216   7.472
 7739WAT     H231677   3.109   3.116   7.524
 7739WAT    EPW31678   3.175   3.141   7.490
 7740WAT      O31679   3.146   3.186   6.581
 7740WAT     H131680   3.069   3.225   6.585
 7740WAT     H231681   3.135   3.122   6.523
 7740WAT    EPW31682   3.133   3.182   6.573
 7741WAT      O31683   2.618   4.319   6.036
 7741WAT     H131684   2.646   4.324   6.119
 7741WAT     H231685   2.531   4.316   6.044
 7741WAT    EPW31686   2.609   4.319   6.049
 7742WAT      O31687   3.470   3.255   6.844
 7742WAT     H131688   3.549   3.222   6.857
 7742WAT     H231689   3.478   3.339   6.866
 7742WAT    EPW31690   3.483   3.262   6.849
 7743WAT      O31691   2.642   3.844   7.243
 7743WAT     H131692   2.602   3.911   7.281
 7743WAT     H231693   2.579   3.806   7.196
 7743WAT    EPW31694   2.627   3.849   7.242
 7744WAT      O31695   3.548   3.700   6.650
 7744WAT     H131696   3.605   3.766   6.660
 7744WAT     H231697   3.485   3.735   6.601
 7744WAT    EPW31698   3.547   3.715   6.645
 7745WAT      O31699   3.566   4.533   6.320
 7745WAT     H131700   3.528   4.457   6.342
 7745WAT     H231701   3.621   4.510   6.256
 7745WAT    EPW31702   3.569   4.518   6.314
 7746WAT      O31703   2.346   4.288   6.055
 7746WAT     H131704   2.340   4.268   6.139
 7746WAT     H231705   2.345   4.210   6.015
 7746WAT    EPW31706   2.345   4.274   6.061
 7747WAT      O31707   2.624   4.079   5.899
 7747WAT     H131708   2.540   4.056   5.908
 7747WAT     H231709   2.630   4.154   5.943
 7747WAT    EPW31710   2.612   4.087   5.907
 7748WAT      O31711   2.617   3.170   7.034
 7748WAT     H131712   2.537   3.148   7.062
 7748WAT     H231713   2.668   3.108   7.068
 7748WAT    EPW31714   2.612   3.157   7.043
 7749WAT      O31715   3.805   3.030   7.116
 7749WAT     H131716   3.816   3.088   7.180
 7749WAT     H231717   3.882   2.989   7.111
 7749WAT    EPW31718   3.818   3.033   7.124
 7750WAT      O31719   3.011   3.174   6.928
 7750WAT     H131720   2.950   3.119   6.896
 7750WAT     H231721   3.086   3.137   6.904
 7750WAT    EPW31722   3.013   3.160   6.919
 7751WAT      O31723   3.416   4.259   7.043
 7751WAT     H131724   3.392   4.342   7.055
 7751WAT     H231725   3.466   4.262   6.972
 7751WAT    EPW31726   3.420   4.271   7.035
 7752WAT      O31727   3.295   4.692   7.480
 7752WAT     H131728   3.215   4.657   7.470
 7752WAT     H231729   3.278   4.775   7.501
 7752WAT    EPW31730   3.281   4.699   7.482
 7753WAT      O31731   2.809   3.652   7.372
 7753WAT     H131732   2.760   3.581   7.364
 7753WAT     H231733   2.761   3.715   7.335
 7753WAT    EPW31734   2.795   3.651   7.366
 7754WAT      O31735   2.888   2.989   5.924
 7754WAT     H131736   2.905   3.004   5.840
 7754WAT     H231737   2.801   2.995   5.928
 7754WAT    EPW31738   2.878   2.992   5.912
 7755WAT      O31739   3.814   4.112   7.019
 7755WAT     H131740   3.787   4.030   7.013
 7755WAT     H231741   3.763   4.155   6.963
 7755WAT    EPW31742   3.803   4.106   7.010
 7756WAT      O31743   2.654   4.660   7.414
 7756WAT     H131744   2.697   4.734   7.432
 7756WAT     H231745   2.711   4.597   7.436
 7756WAT    EPW31746   2.669   4.662   7.420
 7757WAT      O31747   3.589   4.577   6.887
 7757WAT     H131748   3.675   4.586   6.890
 7757WAT     H231749   3.578   4.498   6.852
 7757WAT    EPW31750   3.600   4.567   6.882
 7758WAT      O31751   2.361   3.127   7.143
 7758WAT     H131752   2.307   3.062   7.121
 7758WAT     H231753   2.312   3.198   7.132
 7758WAT    EPW31754   2.346   3.128   7.138
 7759WAT      O31755   3.251   3.081   6.817
 7759WAT     H131756   3.315   3.136   6.837
 7759WAT     H231757   3.219   3.113   6.742
 7759WAT    EPW31758   3.256   3.094   6.809
 7760WAT      O31759   2.420   4.552   7.521
 7760WAT     H131760   2.492   4.596   7.500
 7760WAT     H231761   2.356   4.603   7.491
 7760WAT    EPW31762   2.421   4.566   7.513
 7761WAT      O31763   3.216   3.579   6.580
 7761WAT     H131764   3.271   3.512   6.592
 7761WAT     H231765   3.185   3.594   6.660
 7761WAT    EPW31766   3.220   3.571   6.594
 7762WAT      O31767   2.222   3.474   6.503
 7762WAT     H131768   2.178   3.499   6.575
 7762WAT     H231769   2.261   3.400   6.529
 7762WAT    EPW31770   2.221   3.467   6.518
 7763WAT      O31771   2.199   4.275   7.305
 7763WAT     H131772   2.150   4.341   7.334
 7763WAT     H231773   2.280   4.304   7.314
 7763WAT    EPW31774   2.203   4.289   7.311
 7764WAT      O31775   3.393   3.760   6.203
 7764WAT     H131776   3.414   3.676   6.216
 7764WAT     H231777   3.317   3.756   6.161
 7764WAT    EPW31778   3.385   3.747   6.199
 7765WAT      O31779   2.370   4.616   6.163
 7765WAT     H131780   2.329   4.609   6.087
 7765WAT     H231781   2.454   4.605   6.142
 7765WAT    EPW31782   2.376   4.613   6.149
 7766WAT      O31783   2.752   3.792   6.152
 7766WAT     H131784   2.775   3.823   6.074
 7766WAT     H231785   2.828   3.781   6.193
 7766WAT    EPW31786   2.767   3.795   6.146
 7767WAT      O31787   3.792   3.907   7.550
 7767WAT     H131788   3.871   3.877   7.570
 7767WAT     H231789   3.806   3.954   7.478
 7767WAT    EPW31790   3.805   3.910   7.542
 7768WAT      O31791   3.372   4.326   6.085
 7768WAT     H131792   3.390   4.302   6.167
 7768WAT     H231793   3.334   4.256   6.051
 7768WAT    EPW31794   3.369   4.312   6.092
 7769WAT      O31795   3.734   3.307   7.643
 7769WAT     H131796   3.774   3.375   7.605
 7769WAT     H231797   3.662   3.296   7.595
 7769WAT    EPW31798   3.730   3.316   7.630
 7770WAT      O31799   3.784   3.473   6.915
 7770WAT     H131800   3.701   3.500   6.907
 7770WAT     H231801   3.778   3.386   6.913
 7770WAT    EPW31802   3.771   3.464   6.914
 7771WAT      O31803   2.704   3.130   7.395
 7771WAT     H131804   2.722   3.095   7.317
 7771WAT     H231805   2.618   3.118   7.403
 7771WAT    EPW31806   2.694   3.123   7.385
 7772WAT      O31807   3.542   3.909   7.677
 7772WAT     H131808   3.624   3.907   7.647
 7772WAT     H231809   3.507   3.977   7.636
 7772WAT    EPW31810   3.549   3.919   7.667
 7773WAT      O31811   2.440   4.503   6.802
 7773WAT     H131812   2.413   4.427   6.768
 7773WAT     H231813   2.403   4.563   6.752
 7773WAT    EPW31814   2.431   4.501   6.790
 7774WAT      O31815   3.010   4.111   6.015
 7774WAT     H131816   3.092   4.100   5.989
 7774WAT     H231817   2.966   4.050   5.971
 7774WAT    EPW31818   3.015   4.101   6.004
 7775WAT      O31819   2.172   4.760   7.134
 7775WAT     H131820   2.186   4.742   7.219
 7775WAT     H231821   2.207   4.692   7.093
 7775WAT    EPW31822   2.179   4.748   7.141
 7776WAT      O31823   2.088   4.087   4.455
 7776WAT     H131824   2.008   4.092   4.489
 7776WAT     H231825   2.085   4.016   4.405
 7776WAT    EPW31826   2.076   4.077   4.452
 7777WAT      O31827   2.099   3.463   4.134
 7777WAT     H131828   2.164   3.455   4.076
 7777WAT     H231829   2.100   3.388   4.177
 7777WAT    EPW31830   2.109   3.451   4.132
 7778WAT      O31831   2.291   3.947   4.091
 7778WAT     H131832   2.293   3.924   4.007
 7778WAT     H231833   2.357   3.904   4.126
 7778WAT    EPW31834   2.301   3.938   4.084
 7779WAT      O31835   2.360   4.194   4.440
 7779WAT     H131836   2.421   4.168   4.496
 7779WAT     H231837   2.290   4.147   4.463
 7779WAT    EPW31838   2.359   4.183   4.451
 7780WAT      O31839   2.864   3.307   4.447
 7780WAT     H131840   2.866   3.393   4.434
 7780WAT     H231841   2.942   3.280   4.420
 7780WAT    EPW31842   2.876   3.316   4.441
 7781WAT      O31843   2.687   4.203   5.656
 7781WAT     H131844   2.666   4.156   5.727
 7781WAT     H231845   2.642   4.164   5.592
 7781WAT    EPW31846   2.677   4.190   5.657
 7782WAT      O31847   2.485   3.839   4.495
 7782WAT     H131848   2.462   3.840   4.411
 7782WAT     H231849   2.552   3.783   4.497
 7782WAT    EPW31850   2.492   3.831   4.483
 7783WAT      O31851   2.708   3.368   5.143
 7783WAT     H131852   2.795   3.372   5.133
 7783WAT     H231853   2.692   3.283   5.148
 7783WAT    EPW31854   2.718   3.356   5.142
 7784WAT      O31855   2.816   4.593   5.422
 7784WAT     H131856   2.866   4.618   5.355
 7784WAT     H231857   2.841   4.510   5.437
 7784WAT    EPW31858   2.827   4.584   5.414
 7785WAT      O31859   2.598   3.195   4.462
 7785WAT     H131860   2.548   3.221   4.396
 7785WAT     H231861   2.675   3.233   4.446
 7785WAT    EPW31862   2.602   3.204   4.450
 7786WAT      O31863   2.784   3.179   4.721
 7786WAT     H131864   2.734   3.248   4.737
 7786WAT     H231865   2.827   3.201   4.648
 7786WAT    EPW31866   2.783   3.193   4.713
 7787WAT      O31867   2.130   3.605   4.821
 7787WAT     H131868   2.148   3.691   4.818
 7787WAT     H231869   2.043   3.602   4.825
 7787WAT    EPW31870   2.120   3.617   4.821
 7788WAT      O31871   2.105   4.542   4.659
 7788WAT     H131872   2.042   4.591   4.624
 7788WAT     H231873   2.148   4.510   4.590
 7788WAT    EPW31874   2.102   4.545   4.644
 7789WAT      O31875   2.774   4.178   4.442
 7789WAT     H131876   2.789   4.160   4.526
 7789WAT     H231877   2.789   4.101   4.403
 7789WAT    EPW31878   2.779   4.164   4.449
 7790WAT      O31879   2.365   3.088   4.801
 7790WAT     H131880   2.285   3.113   4.825
 7790WAT     H231881   2.399   3.055   4.875
 7790WAT    EPW31882   2.358   3.086   4.816
 7791WAT      O31883   2.708   3.298   5.813
 7791WAT     H131884   2.707   3.266   5.732
 7791WAT     H231885   2.744   3.377   5.803
 7791WAT    EPW31886   2.713   3.305   5.799
 7792WAT      O31887   2.257   4.452   4.433
 7792WAT     H131888   2.298   4.377   4.449
 7792WAT     H231889   2.319   4.501   4.394
 7792WAT    EPW31890   2.272   4.448   4.429
 7793WAT      O31891   2.299   3.215   5.721
 7793WAT     H131892   2.221   3.176   5.717
 7793WAT     H231893   2.344   3.178   5.656
 7793WAT    EPW31894   2.294   3.204   5.711
 7794WAT      O31895   2.388   4.261   4.794
 7794WAT     H131896   2.444   4.206   4.756
 7794WAT     H231897   2.439   4.324   4.824
 7794WAT    EPW31898   2.404   4.262   4.793
 7795WAT      O31899   2.763   4.488   4.822
 7795WAT     H131900   2.814   4.534   4.875
 7795WAT     H231901   2.804   4.411   4.816
 7795WAT    EPW31902   2.777   4.483   4.829
 7796WAT      O31903   2.957   3.013   5.657
 7796WAT     H131904   2.969   2.936   5.619
 7796WAT     H231905   2.916   3.060   5.596
 7796WAT    EPW31906   2.952   3.009   5.643
 7797WAT      O31907   2.481   4.595   5.275
 7797WAT     H131908   2.503   4.638   5.347
 7797WAT     H231909   2.541   4.618   5.217
 7797WAT    EPW31910   2.493   4.605   5.277
 7798WAT      O31911   2.100   3.359   5.499
 7798WAT     H131912   2.063   3.434   5.526
 7798WAT     H231913   2.178   3.360   5.538
 7798WAT    EPW31914   2.106   3.371   5.509
 7799WAT      O31915   3.217   4.288   5.707
 7799WAT     H131916   3.243   4.371   5.701
 7799WAT     H231917   3.216   4.260   5.625
 7799WAT    EPW31918   3.220   4.296   5.694
 7800WAT      O31919   2.999   4.409   4.048
 7800WAT     H131920   3.044   4.479   4.073
 7800WAT     H231921   3.045   4.343   4.082
 7800WAT    EPW31922   3.013   4.410   4.057
 7801WAT      O31923   2.119   3.250   4.330
 7801WAT     H131924   2.089   3.169   4.329
 7801WAT     H231925   2.098   3.279   4.410
 7801WAT    EPW31926   2.111   3.243   4.342
 7802WAT      O31927   2.290   4.515   5.090
 7802WAT     H131928   2.345   4.528   5.157
 7802WAT     H231929   2.343   4.508   5.021
 7802WAT    EPW31930   2.306   4.516   5.090
 7803WAT      O31931   2.422   4.372   5.436
 7803WAT     H131932   2.455   4.435   5.386
 7803WAT     H231933   2.408   4.410   5.513
 7803WAT    EPW31934   2.425   4.387   5.440
 7804WAT      O31935   2.015   4.357   5.773
 7804WAT     H131936   2.075   4.405   5.813
 7804WAT     H231937   2.023   4.278   5.811
 7804WAT    EPW31938   2.025   4.352   5.784
 7805WAT      O31939   2.443   3.322   4.657
 7805WAT     H131940   2.491   3.285   4.594
 7805WAT     H231941   2.420   3.254   4.707
 7805WAT    EPW31942   2.447   3.307   4.655
 7806WAT      O31943   2.535   4.080   4.633
 7806WAT     H131944   2.619   4.087   4.657
 7806WAT     H231945   2.533   4.005   4.588
 7806WAT    EPW31946   2.547   4.070   4.630
 7807WAT      O31947   2.322   4.685   4.759
 7807WAT     H131948   2.250   4.642   4.735
 7807WAT     H231949   2.354   4.716   4.684
 7807WAT    EPW31950   2.316   4.683   4.744
 7808WAT      O31951   2.258   3.416   4.972
 7808WAT     H131952   2.343   3.437   4.971
 7808WAT     H231953   2.221   3.480   4.926
 7808WAT    EPW31954   2.265   3.429   4.965
 7809WAT      O31955   2.143   4.164   4.855
 7809WAT     H131956   2.093   4.185   4.786
 7809WAT     H231957   2.222   4.192   4.832
 7809WAT    EPW31958   2.147   4.171   4.841
 7810WAT      O31959   2.830   3.553   5.804
 7810WAT     H131960   2.764   3.593   5.844
 7810WAT     H231961   2.819   3.574   5.720
 7810WAT    EPW31962   2.819   3.562   5.797
 7811WAT      O31963   2.079   3.880   4.267
 7811WAT     H131964   2.098   3.804   4.306
 7811WAT     H231965   2.146   3.894   4.214
 7811WAT    EPW31966   2.091   3.871   4.265
 7812WAT      O31967   2.075   4.303   4.285
 7812WAT     H131968   2.135   4.356   4.321
 7812WAT     H231969   2.075   4.234   4.338
 7812WAT    EPW31970   2.084   4.301   4.298
 7813WAT      O31971   2.077   4.146   4.051
 7813WAT     H131972   2.146   4.094   4.058
 7813WAT     H231973   2.087   4.203   4.116
 7813WAT    EPW31974   2.089   4.147   4.061
 7814WAT      O31975   2.162   3.885   4.821
 7814WAT     H131976   2.245   3.869   4.801
 7814WAT     H231977   2.162   3.970   4.842
 7814WAT    EPW31978   2.174   3.896   4.821
 7815WAT      O31979   2.397   3.671   5.666
 7815WAT     H131980   2.353   3.605   5.704
 7815WAT     H231981   2.403   3.646   5.583
 7815WAT    EPW31982   2.391   3.658   5.659
 7816WAT      O31983   2.544   3.539   4.072
 7816WAT     H131984   2.602   3.538   4.138
 7816WAT     H231985   2.589   3.572   4.005
 7816WAT    EPW31986   2.559   3.544   4.072
 7817WAT      O31987   2.418   3.794   4.765
 7817WAT     H131988   2.431   3.822   4.683
 7817WAT     H231989   2.465   3.720   4.768
 7817WAT    EPW31990   2.427   3.787   4.753
 7818WAT      O31991   2.458   3.721   5.170
 7818WAT     H131992   2.481   3.656   5.116
 7818WAT     H231993   2.471   3.793   5.123
 7818WAT    EPW31994   2.463   3.722   5.155
 7819WAT      O31995   2.267   3.909   5.711
 7819WAT     H131996   2.260   3.953   5.636
 7819WAT     H231997   2.316   3.840   5.690
 7819WAT    EPW31998   2.273   3.906   5.697
 7820WAT      O31999   2.787   4.443   5.748
 7820WAT     H132000   2.856   4.416   5.794
 7820WAT     H232001   2.755   4.370   5.713
 7820WAT    EPW32002   2.792   4.428   5.750
 7821WAT      O32003   2.714   4.444   4.383
 7821WAT     H132004   2.724   4.360   4.404
 7821WAT     H232005   2.780   4.484   4.424
 7821WAT    EPW32006   2.725   4.438   4.392
 7822WAT      O32007   2.679   2.971   4.039
 7822WAT     H132008   2.758   3.005   4.024
 7822WAT     H232009   2.625   3.040   4.035
 7822WAT    EPW32010   2.683   2.986   4.036
 7823WAT      O32011   3.257   4.566   5.717
 7823WAT     H132012   3.343   4.572   5.729
 7823WAT     H232013   3.243   4.613   5.645
 7823WAT    EPW32014   3.268   4.574   5.708
 7824WAT      O32015   3.732   2.995   5.660
 7824WAT     H132016   3.800   3.023   5.613
 7824WAT     H232017   3.664   3.005   5.606
 7824WAT    EPW32018   3.732   3.001   5.645
 7825WAT      O32019   2.498   3.804   4.203
 7825WAT     H132020   2.502   3.727   4.161
 7825WAT     H232021   2.581   3.818   4.227
 7825WAT    EPW32022   2.511   3.794   4.200
 7826WAT      O32023   2.022   2.980   4.328
 7826WAT     H132024   2.022   2.924   4.262
 7826WAT     H232025   1.995   2.932   4.396
 7826WAT    EPW32026   2.018   2.965   4.328
 7827WAT      O32027   2.504   3.198   4.016
 7827WAT     H132028   2.452   3.193   3.946
 7827WAT     H232029   2.541   3.276   4.008
 7827WAT    EPW32030   2.502   3.208   4.004
 7828WAT      O32031   2.604   4.620   3.937
 7828WAT     H132032   2.650   4.562   3.983
 7828WAT     H232033   2.592   4.686   3.993
 7828WAT    EPW32034   2.609   4.621   3.952
 7829WAT      O32035   2.491   3.942   5.005
 7829WAT     H132036   2.568   3.981   4.997
 7829WAT     H232037   2.476   3.910   4.925
 7829WAT    EPW32038   2.500   3.943   4.992
 7830WAT      O32039   2.581   3.561   4.716
 7830WAT     H132040   2.620   3.592   4.644
 7830WAT     H232041   2.536   3.492   4.687
 7830WAT    EPW32042   2.580   3.556   4.701
 7831WAT      O32043   2.115   3.621   4.366
 7831WAT     H132044   2.149   3.580   4.435
 7831WAT     H232045   2.131   3.567   4.300
 7831WAT    EPW32046   2.123   3.607   4.366
 7832WAT      O32047   2.241   4.043   5.467
 7832WAT     H132048   2.236   4.000   5.392
 7832WAT     H232049   2.209   4.122   5.448
 7832WAT    EPW32050   2.235   4.049   5.453
 7833WAT      O32051   2.113   3.198   4.847
 7833WAT     H132052   2.071   3.222   4.775
 7833WAT     H232053   2.146   3.274   4.877
 7833WAT    EPW32054   2.111   3.213   4.841
 7834WAT      O32055   2.516   4.102   5.457
 7834WAT     H132056   2.433   4.076   5.469
 7834WAT     H232057   2.507   4.185   5.432
 7834WAT    EPW32058   2.502   4.111   5.455
 7835WAT      O32059   2.610   3.418   5.403
 7835WAT     H132060   2.633   3.346   5.446
 7835WAT     H232061   2.647   3.407   5.324
 7835WAT    EPW32062   2.619   3.406   5.398
 7836WAT      O32063   2.836   3.024   5.392
 7836WAT     H132064   2.909   2.996   5.353
 7836WAT     H232065   2.799   2.950   5.420
 7836WAT    EPW32066   2.841   3.009   5.390
 7837WAT      O32067   2.522   3.511   4.991
 7837WAT     H132068   2.556   3.531   4.913
 7837WAT     H232069   2.587   3.469   5.031
 7837WAT    EPW32070   2.536   3.508   4.985
 7838WAT      O32071   2.769   2.938   4.871
 7838WAT     H132072   2.690   2.944   4.908
 7838WAT     H232073   2.781   3.016   4.835
 7838WAT    EPW32074   2.759   2.950   4.871
 7839WAT      O32075   2.053   3.110   5.635
 7839WAT     H132076   2.046   3.185   5.592
 7839WAT     H232077   1.972   3.078   5.634
 7839WAT    EPW32078   2.040   3.116   5.628
 7840WAT      O32079   2.636   4.693   5.061
 7840WAT     H132080   2.722   4.680   5.052
 7840WAT     H232081   2.601   4.636   5.005
 7840WAT    EPW32082   2.644   4.683   5.052
 7841WAT      O32083   2.397   3.225   4.280
 7841WAT     H132084   2.407   3.217   4.194
 7841WAT     H232085   2.311   3.238   4.289
 7841WAT    EPW32086   2.386   3.226   4.269
 7842WAT      O32087   2.181   4.698   5.517
 7842WAT     H132088   2.122   4.634   5.519
 7842WAT     H232089   2.139   4.767   5.550
 7842WAT    EPW32090   2.166   4.699   5.522
 7843WAT      O32091   3.529   4.558   5.778
 7843WAT     H132092   3.593   4.597   5.733
 7843WAT     H232093   3.567   4.487   5.810
 7843WAT    EPW32094   3.544   4.553   5.776
 7844WAT      O32095   2.369   3.553   5.392
 7844WAT     H132096   2.390   3.620   5.340
 7844WAT     H232097   2.443   3.508   5.398
 7844WAT    EPW32098   2.383   3.556   5.385
 7845WAT      O32099   2.415   3.085   5.509
 7845WAT     H132100   2.374   3.008   5.509
 7845WAT     H232101   2.392   3.121   5.432
 7845WAT    EPW32102   2.406   3.079   5.497
 7846WAT      O32103   2.190   3.931   5.221
 7846WAT     H132104   2.257   3.932   5.166
 7846WAT     H232105   2.156   3.851   5.210
 7846WAT    EPW32106   2.195   3.919   5.211
 7847WAT      O32107   2.306   3.465   3.937
 7847WAT     H132108   2.379   3.479   3.983
 7847WAT     H232109   2.322   3.391   3.894
 7847WAT    EPW32110   2.319   3.456   3.938
 7848WAT      O32111   3.229   3.054   5.685
 7848WAT     H132112   3.246   3.127   5.728
 7848WAT     H232113   3.143   3.057   5.673
 7848WAT    EPW32114   3.219   3.065   5.690
 7849WAT      O32115   2.724   4.429   4.104
 7849WAT     H132116   2.716   4.430   4.191
 7849WAT     H232117   2.810   4.421   4.091
 7849WAT    EPW32118   2.735   4.428   4.115
 7850WAT      O32119   2.568   3.818   5.420
 7850WAT     H132120   2.574   3.905   5.422
 7850WAT     H232121   2.554   3.800   5.336
 7850WAT    EPW32122   2.567   3.829   5.408
 7851WAT      O32123   2.412   4.192   4.156
 7851WAT     H132124   2.408   4.199   4.243
 7851WAT     H232125   2.377   4.114   4.140
 7851WAT    EPW32126   2.406   4.182   4.166
 7852WAT      O32127   2.769   4.047   3.933
 7852WAT     H132128   2.785   4.012   4.012
 7852WAT     H232129   2.785   3.981   3.879
 7852WAT    EPW32130   2.774   4.032   3.937
 7853WAT      O32131   2.629   3.110   5.223
 7853WAT     H132132   2.587   3.033   5.227
 7853WAT     H232133   2.702   3.095   5.267
 7853WAT    EPW32134   2.633   3.096   5.230
 7854WAT      O32135   3.167   4.733   5.505
 7854WAT     H132136   3.152   4.710   5.422
 7854WAT     H232137   3.206   4.810   5.498
 7854WAT    EPW32138   3.171   4.741   5.492
 7855WAT      O32139   2.727   3.624   5.554
 7855WAT     H132140   2.699   3.559   5.503
 7855WAT     H232141   2.691   3.695   5.519
 7855WAT    EPW32142   2.717   3.625   5.541
 7856WAT      O32143   2.582   4.699   5.510
 7856WAT     H132144   2.582   4.673   5.593
 7856WAT     H232145   2.656   4.668   5.478
 7856WAT    EPW32146   2.593   4.691   5.518
 7857WAT      O32147   2.341   3.190   5.259
 7857WAT     H132148   2.302   3.116   5.233
 7857WAT     H232149   2.422   3.181   5.229
 7857WAT    EPW32150   2.347   3.177   5.251
 7858WAT      O32151   2.339   4.518   5.671
 7858WAT     H132152   2.414   4.552   5.701
 7858WAT     H232153   2.303   4.584   5.626
 7858WAT    EPW32154   2.345   4.533   5.669
 7859WAT      O32155   2.209   3.472   4.582
 7859WAT     H132156   2.188   3.514   4.656
 7859WAT     H232157   2.282   3.429   4.602
 7859WAT    EPW32158   2.216   3.472   4.596
 7860WAT      O32159   2.169   4.296   5.359
 7860WAT     H132160   2.119   4.349   5.406
 7860WAT     H232161   2.250   4.322   5.378
 7860WAT    EPW32162   2.174   4.308   5.369
 7861WAT      O32163   2.478   4.594   4.327
 7861WAT     H132164   2.507   4.645   4.262
 7861WAT     H232165   2.548   4.546   4.348
 7861WAT    EPW32166   2.493   4.594   4.320
 7862WAT      O32167   2.672   3.188   5.551
 7862WAT     H132168   2.725   3.141   5.500
 7862WAT     H232169   2.596   3.147   5.545
 7862WAT    EPW32170   2.669   3.175   5.542
 7863WAT      O32171   2.497   4.510   4.891
 7863WAT     H132172   2.577   4.498   4.858
 7863WAT     H232173   2.459   4.563   4.833
 7863WAT    EPW32174   2.504   4.516   4.877
 7864WAT      O32175   2.175   4.750   5.241
 7864WAT     H132176   2.186   4.725   5.324
 7864WAT     H232177   2.213   4.686   5.195
 7864WAT    EPW32178   2.182   4.737   5.247
 7865WAT      O32179   2.140   4.090   2.577
 7865WAT     H132180   2.122   4.113   2.659
 7865WAT     H232181   2.109   4.009   2.571
 7865WAT    EPW32182   2.133   4.081   2.588
 7866WAT      O32183   2.068   3.433   2.218
 7866WAT     H132184   2.005   3.482   2.183
 7866WAT     H232185   2.035   3.352   2.217
 7866WAT    EPW32186   2.054   3.428   2.213
 7867WAT      O32187   2.358   4.029   2.130
 7867WAT     H132188   2.336   3.986   2.058
 7867WAT     H232189   2.360   3.968   2.192
 7867WAT    EPW32190   2.355   4.014   2.129
 7868WAT      O32191   2.393   4.188   2.509
 7868WAT     H132192   2.459   4.133   2.524
 7868WAT     H232193   2.323   4.142   2.533
 7868WAT    EPW32194   2.393   4.173   2.515
 7869WAT      O32195   2.759   3.114   2.431
 7869WAT     H132196   2.753   3.189   2.388
 7869WAT     H232197   2.842   3.091   2.420
 7869WAT    EPW32198   2.770   3.122   2.423
 7870WAT      O32199   2.228   4.488   2.116
 7870WAT     H132200   2.274   4.493   2.042
 7870WAT     H232201   2.262   4.418   2.155
 7870WAT    EPW32202   2.240   4.478   2.111
 7871WAT      O32203   2.160   4.363   3.244
 7871WAT     H132204   2.181   4.331   3.322
 7871WAT     H232205   2.104   4.303   3.212
 7871WAT    EPW32206   2.155   4.349   3.251
 7872WAT      O32207   2.380   3.851   2.608
 7872WAT     H132208   2.293   3.850   2.601
 7872WAT     H232209   2.402   3.767   2.607
 7872WAT    EPW32210   2.370   3.839   2.607
 7873WAT      O32211   2.734   3.385   3.148
 7873WAT     H132212   2.810   3.366   3.110
 7873WAT     H232213   2.714   3.313   3.192
 7873WAT    EPW32214   2.742   3.372   3.149
 7874WAT      O32215   2.739   4.270   3.370
 7874WAT     H132216   2.784   4.333   3.330
 7874WAT     H232217   2.795   4.203   3.374
 7874WAT    EPW32218   2.754   4.269   3.365
 7875WAT      O32219   2.436   3.587   2.601
 7875WAT     H132220   2.502   3.547   2.641
 7875WAT     H232221   2.365   3.548   2.634
 7875WAT    EPW32222   2.435   3.575   2.612
 7876WAT      O32223   2.887   4.164   2.471
 7876WAT     H132224   2.964   4.184   2.507
 7876WAT     H232225   2.908   4.149   2.387
 7876WAT    EPW32226   2.902   4.164   2.464
 7877WAT      O32227   2.508   3.150   2.567
 7877WAT     H132228   2.462   3.201   2.513
 7877WAT     H232229   2.588   3.150   2.533
 7877WAT    EPW32230   2.513   3.157   2.554
 7878WAT      O32231   2.822   3.082   2.710
 7878WAT     H132232   2.850   3.163   2.725
 7878WAT     H232233   2.793   3.084   2.628
 7878WAT    EPW32234   2.822   3.094   2.700
 7879WAT      O32235   3.354   3.321   2.140
 7879WAT     H132236   3.426   3.325   2.092
 7879WAT     H232237   3.354   3.240   2.172
 7879WAT    EPW32238   3.364   3.310   2.138
 7880WAT      O32239   2.068   3.564   2.951
 7880WAT     H132240   2.051   3.649   2.963
 7880WAT     H232241   2.007   3.524   3.000
 7880WAT    EPW32242   2.057   3.571   2.960
 7881WAT      O32243   2.086   4.531   2.767
 7881WAT     H132244   2.022   4.574   2.728
 7881WAT     H232245   2.130   4.494   2.701
 7881WAT    EPW32246   2.083   4.531   2.752
 7882WAT      O32247   2.678   4.344   2.485
 7882WAT     H132248   2.644   4.322   2.562
 7882WAT     H232249   2.749   4.294   2.479
 7882WAT    EPW32250   2.684   4.333   2.495
 7883WAT      O32251   3.275   4.537   2.257
 7883WAT     H132252   3.343   4.590   2.268
 7883WAT     H232253   3.305   4.459   2.279
 7883WAT    EPW32254   3.289   4.533   2.262
 7884WAT      O32255   3.107   4.539   2.479
 7884WAT     H132256   3.131   4.612   2.519
 7884WAT     H232257   3.158   4.536   2.409
 7884WAT    EPW32258   3.118   4.549   2.475
 7885WAT      O32259   2.403   3.077   3.026
 7885WAT     H132260   2.346   3.027   2.983
 7885WAT     H232261   2.471   3.025   3.039
 7885WAT    EPW32262   2.404   3.062   3.022
 7886WAT      O32263   2.242   4.434   2.540
 7886WAT     H132264   2.300   4.370   2.550
 7886WAT     H232265   2.283   4.492   2.490
 7886WAT    EPW32266   2.256   4.433   2.534
 7887WAT      O32267   3.290   4.568   3.112
 7887WAT     H132268   3.368   4.584   3.147
 7887WAT     H232269   3.296   4.486   3.085
 7887WAT    EPW32270   3.302   4.559   3.113
 7888WAT      O32271   2.329   3.206   3.794
 7888WAT     H132272   2.248   3.175   3.782
 7888WAT     H232273   2.371   3.183   3.722
 7888WAT    EPW32274   2.323   3.198   3.782
 7889WAT      O32275   2.399   4.290   2.923
 7889WAT     H132276   2.465   4.294   2.866
 7889WAT     H232277   2.433   4.249   2.992
 7889WAT    EPW32278   2.414   4.284   2.925
 7890WAT      O32279   2.748   4.550   2.802
 7890WAT     H132280   2.831   4.560   2.778
 7890WAT     H232281   2.723   4.631   2.824
 7890WAT    EPW32282   2.756   4.563   2.802
 7891WAT      O32283   3.084   3.463   2.548
 7891WAT     H132284   3.068   3.429   2.469
 7891WAT     H232285   3.168   3.444   2.562
 7891WAT    EPW32286   3.094   3.455   2.538
 7892WAT      O32287   3.485   4.731   2.251
 7892WAT     H132288   3.539   4.689   2.197
 7892WAT     H232289   3.540   4.779   2.300
 7892WAT    EPW32290   3.501   4.732   2.250
 7893WAT      O32291   2.018   3.311   3.519
 7893WAT     H132292   2.013   3.388   3.559
 7893WAT     H232293   2.081   3.322   3.460
 7893WAT    EPW32294   2.026   3.324   3.516
 7894WAT      O32295   3.305   4.409   3.643
 7894WAT     H132296   3.309   4.351   3.708
 7894WAT     H232297   3.384   4.445   3.641
 7894WAT    EPW32298   3.317   4.406   3.652
 7895WAT      O32299   2.959   4.390   2.072
 7895WAT     H132300   2.936   4.446   2.135
 7895WAT     H232301   3.038   4.418   2.048
 7895WAT    EPW32302   2.967   4.402   2.078
 7896WAT      O32303   3.415   3.071   2.256
 7896WAT     H132304   3.500   3.088   2.247
 7896WAT     H232305   3.402   3.079   2.341
 7896WAT    EPW32306   3.426   3.075   2.267
 7897WAT      O32307   2.117   3.218   2.479
 7897WAT     H132308   2.094   3.135   2.464
 7897WAT     H232309   2.070   3.240   2.548
 7897WAT    EPW32310   2.107   3.209   2.487
 7898WAT      O32311   2.352   4.572   3.259
 7898WAT     H132312   2.297   4.504   3.262
 7898WAT     H232313   2.375   4.576   3.175
 7898WAT    EPW32314   2.347   4.563   3.247
 7899WAT      O32315   3.033   3.356   2.292
 7899WAT     H132316   3.053   3.273   2.311
 7899WAT     H232317   2.946   3.355   2.284
 7899WAT    EPW32318   3.023   3.344   2.294
 7900WAT      O32319   3.065   4.627   3.284
 7900WAT     H132320   3.132   4.618   3.228
 7900WAT     H232321   3.081   4.566   3.344
 7900WAT    EPW32322   3.077   4.617   3.284
 7901WAT      O32323   3.028   3.078   2.354
 7901WAT     H132324   3.001   3.048   2.277
 7901WAT     H232325   3.085   3.018   2.380
 7901WAT    EPW32326   3.033   3.065   2.346
 7902WAT      O32327   2.885   3.351   2.743
 7902WAT     H132328   2.948   3.389   2.696
 7902WAT     H232329   2.918   3.347   2.823
 7902WAT    EPW32330   2.899   3.356   2.748
 7903WAT      O32331   2.520   4.372   3.519
 7903WAT     H132332   2.591   4.339   3.480
 7903WAT     H232333   2.553   4.429   3.575
 7903WAT    EPW32334   2.535   4.375   3.521
 7904WAT      O32335   2.482   2.888   2.655
 7904WAT     H132336   2.489   2.972   2.631
 7904WAT     H232337   2.464   2.847   2.581
 7904WAT    EPW32338   2.480   2.895   2.641
 7905WAT      O32339   2.695   3.924   3.042
 7905WAT     H132340   2.752   3.917   3.108
 7905WAT     H232341   2.647   3.851   3.050
 7905WAT    EPW32342   2.696   3.912   3.053
 7906WAT      O32343   2.017   4.245   3.792
 7906WAT     H132344   2.047   4.183   3.738
 7906WAT     H232345   2.044   4.218   3.871
 7906WAT    EPW32346   2.025   4.232   3.796
 7907WAT      O32347   2.399   3.261   2.803
 7907WAT     H132348   2.420   3.207   2.737
 7907WAT     H232349   2.402   3.209   2.873
 7907WAT    EPW32350   2.402   3.245   2.803
 7908WAT      O32351   3.716   4.065   2.292
 7908WAT     H132352   3.741   4.058   2.375
 7908WAT     H232353   3.791   4.068   2.248
 7908WAT    EPW32354   3.731   4.064   2.298
 7909WAT      O32355   2.283   4.713   2.840
 7909WAT     H132356   2.211   4.667   2.823
 7909WAT     H232357   2.319   4.723   2.761
 7909WAT    EPW32358   2.278   4.708   2.826
 7910WAT      O32359   2.254   3.396   3.073
 7910WAT     H132360   2.335   3.418   3.050
 7910WAT     H232361   2.205   3.461   3.040
 7910WAT    EPW32362   2.258   3.409   3.064
 7911WAT      O32363   4.014   4.609   3.404
 7911WAT     H132364   3.936   4.607   3.365
 7911WAT     H232365   4.053   4.536   3.378
 7911WAT    EPW32366   4.008   4.598   3.394
 7912WAT      O32367   3.436   3.779   2.131
 7912WAT     H132368   3.495   3.770   2.195
 7912WAT     H232369   3.360   3.766   2.171
 7912WAT    EPW32370   3.434   3.776   2.146
 7913WAT      O32371   2.657   4.011   2.575
 7913WAT     H132372   2.725   4.065   2.560
 7913WAT     H232373   2.674   3.943   2.524
 7913WAT    EPW32374   2.670   4.009   2.565
 7914WAT      O32375   2.130   4.183   2.843
 7914WAT     H132376   2.069   4.192   2.905
 7914WAT     H232377   2.191   4.241   2.865
 7914WAT    EPW32378   2.130   4.193   2.855
 7915WAT      O32379   2.119   3.820   2.500
 7915WAT     H132380   2.102   3.735   2.504
 7915WAT     H232381   2.169   3.828   2.429
 7915WAT    EPW32382   2.124   3.808   2.490
 7916WAT      O32383   2.061   4.284   2.392
 7916WAT     H132384   2.117   4.340   2.428
 7916WAT     H232385   2.059   4.217   2.449
 7916WAT    EPW32386   2.069   4.282   2.406
 7917WAT      O32387   2.549   4.147   3.123
 7917WAT     H132388   2.595   4.193   3.181
 7917WAT     H232389   2.602   4.080   3.104
 7917WAT    EPW32390   2.564   4.144   3.129
 7918WAT      O32391   2.077   4.142   2.148
 7918WAT     H132392   2.153   4.099   2.144
 7918WAT     H232393   2.084   4.189   2.221
 7918WAT    EPW32394   2.089   4.143   2.158
 7919WAT      O32395   2.258   3.956   2.929
 7919WAT     H132396   2.195   3.896   2.933
 7919WAT     H232397   2.216   4.029   2.906
 7919WAT    EPW32398   2.243   3.958   2.926
 7920WAT      O32399   2.757   3.335   2.266
 7920WAT     H132400   2.741   3.318   2.182
 7920WAT     H232401   2.726   3.416   2.276
 7920WAT    EPW32402   2.750   3.345   2.255
 7921WAT      O32403   3.818   4.505   3.221
 7921WAT     H132404   3.801   4.498   3.136
 7921WAT     H232405   3.888   4.453   3.232
 7921WAT    EPW32406   3.826   4.496   3.210
 7922WAT      O32407   2.633   4.298   2.772
 7922WAT     H132408   2.653   4.383   2.772
 7922WAT     H232409   2.692   4.263   2.826
 7922WAT    EPW32410   2.644   4.306   2.780
 7923WAT      O32411   2.427   3.644   3.740
 7923WAT     H132412   2.386   3.591   3.796
 7923WAT     H232413   2.509   3.644   3.768
 7923WAT    EPW32414   2.433   3.636   3.753
 7924WAT      O32415   2.379   3.564   2.275
 7924WAT     H132416   2.370   3.497   2.330
 7924WAT     H232417   2.352   3.531   2.199
 7924WAT    EPW32418   2.373   3.549   2.272
 7925WAT      O32419   2.483   3.747   3.025
 7925WAT     H132420   2.478   3.757   3.111
 7925WAT     H232421   2.493   3.660   3.015
 7925WAT    EPW32422   2.484   3.735   3.036
 7926WAT      O32423   2.532   3.769   3.303
 7926WAT     H132424   2.614   3.797   3.311
 7926WAT     H232425   2.485   3.842   3.308
 7926WAT    EPW32426   2.537   3.784   3.305
 7927WAT      O32427   2.814   4.508   3.229
 7927WAT     H132428   2.820   4.462   3.155
 7927WAT     H232429   2.893   4.543   3.238
 7927WAT    EPW32430   2.827   4.506   3.219
 7928WAT      O32431   3.422   3.340   2.421
 7928WAT     H132432   3.506   3.316   2.430
 7928WAT     H232433   3.413   3.347   2.334
 7928WAT    EPW32434   3.433   3.337   2.409
 7929WAT      O32435   2.283   3.875   3.823
 7929WAT     H132436   2.273   3.934   3.760
 7929WAT     H232437   2.339   3.818   3.788
 7929WAT    EPW32438   2.290   3.875   3.808
 7930WAT      O32439   2.834   4.324   3.828
 7930WAT     H132440   2.892   4.349   3.889
 7930WAT     H232441   2.844   4.237   3.825
 7930WAT    EPW32442   2.844   4.315   3.837
 7931WAT      O32443   3.179   3.717   2.223
 7931WAT     H132444   3.132   3.760   2.163
 7931WAT     H232445   3.133   3.728   2.296
 7931WAT    EPW32446   3.165   3.725   2.225
 7932WAT      O32447   2.651   4.603   2.383
 7932WAT     H132448   2.653   4.536   2.440
 7932WAT     H232449   2.730   4.599   2.345
 7932WAT    EPW32450   2.663   4.592   2.386
 7933WAT      O32451   2.610   2.979   2.222
 7933WAT     H132452   2.646   3.008   2.296
 7933WAT     H232453   2.560   3.045   2.195
 7933WAT    EPW32454   2.608   2.993   2.229
 7934WAT      O32455   2.905   4.575   2.273
 7934WAT     H132456   2.962   4.575   2.339
 7934WAT     H232457   2.917   4.653   2.235
 7934WAT    EPW32458   2.915   4.587   2.277
 7935WAT      O32459   2.344   3.836   2.328
 7935WAT     H132460   2.353   3.751   2.311
 7935WAT     H232461   2.380   3.845   2.407
 7935WAT    EPW32462   2.350   3.825   2.337
 7936WAT      O32463   2.033   2.951   2.429
 7936WAT     H132464   2.034   2.896   2.361
 7936WAT     H232465   2.002   2.902   2.495
 7936WAT    EPW32466   2.028   2.936   2.429
 7937WAT      O32467   3.035   3.731   2.469
 7937WAT     H132468   3.075   3.783   2.526
 7937WAT     H232469   3.048   3.651   2.501
 7937WAT    EPW32470   3.043   3.727   2.482
 7938WAT      O32471   2.457   3.195   2.137
 7938WAT     H132472   2.394   3.188   2.078
 7938WAT     H232473   2.517   3.243   2.097
 7938WAT    EPW32474   2.457   3.201   2.123
 7939WAT      O32475   2.584   4.596   2.022
 7939WAT     H132476   2.607   4.528   2.071
 7939WAT     H232477   2.596   4.664   2.075
 7939WAT    EPW32478   2.589   4.596   2.037
 7940WAT      O32479   2.340   3.968   3.204
 7940WAT     H132480   2.395   4.035   3.196
 7940WAT     H232481   2.309   3.957   3.124
 7940WAT    EPW32482   2.344   3.976   3.191
 7941WAT      O32483   2.615   3.440   2.754
 7941WAT     H132484   2.698   3.413   2.750
 7941WAT     H232485   2.570   3.366   2.758
 7941WAT    EPW32486   2.621   3.425   2.754
 7942WAT      O32487   3.911   4.555   2.261
 7942WAT     H132488   3.978   4.522   2.216
 7942WAT     H232489   3.908   4.505   2.333
 7942WAT    EPW32490   3.920   4.542   2.265
 7943WAT      O32491   2.081   3.543   2.486
 7943WAT     H132492   2.117   3.503   2.555
 7943WAT     H232493   2.099   3.490   2.419
 7943WAT    EPW32494   2.089   3.530   2.486
 7944WAT      O32495   2.622   3.738   2.032
 7944WAT     H132496   2.608   3.692   2.105
 7944WAT     H232497   2.559   3.710   1.978
 7944WAT    EPW32498   2.611   3.727   2.034
 7945WAT      O32499   2.176   4.055   3.628
 7945WAT     H132500   2.169   4.000   3.561
 7945WAT     H232501   2.210   4.127   3.593
 7945WAT    EPW32502   2.180   4.057   3.613
 7946WAT      O32503   2.652   3.591   2.270
 7946WAT     H132504   2.682   3.655   2.322
 7946WAT     H232505   2.568   3.585   2.291
 7946WAT    EPW32506   2.644   3.600   2.281
 7947WAT      O32507   2.085   3.193   2.945
 7947WAT     H132508   2.057   3.222   2.868
 7947WAT     H232509   2.145   3.252   2.969
 7947WAT    EPW32510   2.090   3.206   2.937
 7948WAT      O32511   3.554   4.266   2.190
 7948WAT     H132512   3.603   4.201   2.221
 7948WAT     H232513   3.486   4.268   2.245
 7948WAT    EPW32514   3.551   4.257   2.203
 7949WAT      O32515   3.247   4.100   2.114
 7949WAT     H132516   3.332   4.079   2.107
 7949WAT     H232517   3.216   4.084   2.034
 7949WAT    EPW32518   3.255   4.095   2.101
 7950WAT      O32519   2.513   4.156   3.704
 7950WAT     H132520   2.558   4.092   3.666
 7950WAT     H232521   2.507   4.217   3.641
 7950WAT    EPW32522   2.519   4.156   3.689
 7951WAT      O32523   3.021   4.508   2.755
 7951WAT     H132524   3.035   4.428   2.786
 7951WAT     H232525   3.030   4.499   2.669
 7951WAT    EPW32526   3.024   4.495   2.747
 7952WAT      O32527   2.990   3.027   3.442
 7952WAT     H132528   3.068   3.058   3.467
 7952WAT     H232529   3.009   2.956   3.396
 7952WAT    EPW32530   3.004   3.021   3.439
 7953WAT      O32531   2.836   4.357   2.992
 7953WAT     H132532   2.820   4.420   2.934
 7953WAT     H232533   2.910   4.322   2.964
 7953WAT    EPW32534   2.844   4.361   2.979
 7954WAT      O32535   3.575   4.487   3.680
 7954WAT     H132536   3.576   4.458   3.762
 7954WAT     H232537   3.638   4.441   3.641
 7954WAT    EPW32538   3.584   4.476   3.686
 7955WAT      O32539   2.839   3.891   2.137
 7955WAT     H132540   2.764   3.877   2.094
 7955WAT     H232541   2.844   3.978   2.141
 7955WAT    EPW32542   2.828   3.901   2.131
 7956WAT      O32543   2.514   3.476   3.011
 7956WAT     H132544   2.545   3.467   2.930
 7956WAT     H232545   2.582   3.456   3.062
 7956WAT    EPW32546   2.528   3.472   3.007
 7957WAT      O32547   2.894   4.514   3.627
 7957WAT     H132548   2.956   4.481   3.576
 7957WAT     H232549   2.883   4.453   3.688
 7957WAT    EPW32550   2.901   4.500   3.629
 7958WAT      O32551   2.802   3.027   2.998
 7958WAT     H132552   2.743   2.967   3.022
 7958WAT     H232553   2.797   3.028   2.911
 7958WAT    EPW32554   2.793   3.018   2.989
 7959WAT      O32555   2.066   3.095   3.692
 7959WAT     H132556   2.055   3.161   3.636
 7959WAT     H232557   1.985   3.079   3.720
 7959WAT    EPW32558   2.052   3.103   3.688
 7960WAT      O32559   2.642   4.758   3.008
 7960WAT     H132560   2.622   4.800   3.082
 7960WAT     H232561   2.587   4.690   3.007
 7960WAT    EPW32562   2.631   4.754   3.019
 7961WAT      O32563   2.366   3.303   2.387
 7961WAT     H132564   2.379   3.267   2.308
 7961WAT     H232565   2.285   3.278   2.407
 7961WAT    EPW32566   2.356   3.294   2.378
 7962WAT      O32567   3.093   4.415   3.461
 7962WAT     H132568   3.164   4.416   3.513
 7962WAT     H232569   3.095   4.336   3.424
 7962WAT    EPW32570   3.104   4.404   3.464
 7963WAT      O32571   2.216   4.709   3.640
 7963WAT     H132572   2.163   4.640   3.643
 7963WAT     H232573   2.166   4.775   3.665
 7963WAT    EPW32574   2.201   4.708   3.644
 7964WAT      O32575   3.576   4.348   3.926
 7964WAT     H132576   3.625   4.279   3.946
 7964WAT     H232577   3.564   4.387   4.004
 7964WAT    EPW32578   3.581   4.343   3.941
 7965WAT      O32579   2.401   3.565   3.460
 7965WAT     H132580   2.449   3.620   3.414
 7965WAT     H232581   2.414   3.590   3.543
 7965WAT    EPW32582   2.410   3.576   3.465
 7966WAT      O32583   2.237   3.366   3.349
 7966WAT     H132584   2.235   3.387   3.264
 7966WAT     H232585   2.286   3.429   3.385
 7966WAT    EPW32586   2.244   3.378   3.342
 7967WAT      O32587   2.470   3.099   3.561
 7967WAT     H132588   2.468   3.015   3.538
 7967WAT     H232589   2.555   3.118   3.563
 7967WAT    EPW32590   2.482   3.089   3.558
 7968WAT      O32591   3.144   4.254   2.547
 7968WAT     H132592   3.140   4.341   2.551
 7968WAT     H232593   3.177   4.231   2.624
 7968WAT    EPW32594   3.148   4.263   2.559
 7969WAT      O32595   2.153   3.881   3.404
 7969WAT     H132596   2.206   3.908   3.340
 7969WAT     H232597   2.130   3.801   3.379
 7969WAT    EPW32598   2.158   3.873   3.391
 7970WAT      O32599   2.273   3.457   2.032
 7970WAT     H132600   2.202   3.453   2.083
 7970WAT     H232601   2.274   3.380   1.992
 7970WAT    EPW32602   2.263   3.445   2.034
 7971WAT      O32603   2.615   4.363   2.188
 7971WAT     H132604   2.651   4.371   2.267
 7971WAT     H232605   2.532   4.342   2.206
 7971WAT    EPW32606   2.608   4.361   2.202
 7972WAT      O32607   2.360   4.279   2.246
 7972WAT     H132608   2.368   4.258   2.330
 7972WAT     H232609   2.359   4.202   2.205
 7972WAT    EPW32610   2.361   4.265   2.252
 7973WAT      O32611   2.639   4.110   2.063
 7973WAT     H132612   2.560   4.079   2.081
 7973WAT     H232613   2.641   4.188   2.102
 7973WAT    EPW32614   2.628   4.117   2.071
 7974WAT      O32615   2.661   3.147   3.275
 7974WAT     H132616   2.699   3.149   3.353
 7974WAT     H232617   2.714   3.097   3.227
 7974WAT    EPW32618   2.674   3.140   3.279
 7975WAT      O32619   2.953   3.266   3.005
 7975WAT     H132620   2.918   3.186   3.010
 7975WAT     H232621   3.037   3.253   3.028
 7975WAT    EPW32622   2.960   3.252   3.009
 7976WAT      O32623   2.883   2.974   2.140
 7976WAT     H132624   2.896   2.991   2.055
 7976WAT     H232625   2.796   2.984   2.149
 7976WAT    EPW32626   2.872   2.978   2.129
 7977WAT      O32627   2.633   4.595   3.647
 7977WAT     H132628   2.618   4.615   3.731
 7977WAT     H232629   2.717   4.573   3.646
 7977WAT    EPW32630   2.643   4.595   3.659
 7978WAT      O32631   2.388   4.484   3.829
 7978WAT     H132632   2.446   4.536   3.867
 7978WAT     H232633   2.341   4.538   3.779
 7978WAT    EPW32634   2.390   4.499   3.827
 7979WAT      O32635   2.215   3.465   2.723
 7979WAT     H132636   2.169   3.493   2.791
 7979WAT     H232637   2.260   3.397   2.755
 7979WAT    EPW32638   2.215   3.459   2.738
 7980WAT      O32639   2.244   4.301   3.503
 7980WAT     H132640   2.196   4.361   3.543
 7980WAT     H232641   2.325   4.331   3.511
 7980WAT    EPW32642   2.249   4.314   3.510
 7981WAT      O32643   2.372   4.603   2.355
 7981WAT     H132644   2.344   4.588   2.273
 7981WAT     H232645   2.458   4.597   2.348
 7981WAT    EPW32646   2.380   4.600   2.342
 7982WAT      O32647   2.770   3.811   2.397
 7982WAT     H132648   2.790   3.843   2.318
 7982WAT     H232649   2.847   3.785   2.429
 7982WAT    EPW32650   2.784   3.812   2.390
 7983WAT      O32651   3.691   4.619   2.098
 7983WAT     H132652   3.756   4.597   2.151
 7983WAT     H232653   3.671   4.544   2.058
 7983WAT    EPW32654   3.697   4.605   2.100
 7984WAT      O32655   3.311   4.272   2.326
 7984WAT     H132656   3.265   4.252   2.397
 7984WAT     H232657   3.279   4.219   2.265
 7984WAT    EPW32658   3.299   4.261   2.328
 7985WAT      O32659   2.755   3.151   3.539
 7985WAT     H132660   2.830   3.110   3.521
 7985WAT     H232661   2.782   3.226   3.576
 7985WAT    EPW32662   2.770   3.156   3.542
 7986WAT      O32663   2.442   4.560   2.999
 7986WAT     H132664   2.427   4.477   2.977
 7986WAT     H232665   2.388   4.606   2.947
 7986WAT    EPW32666   2.432   4.555   2.988
 7987WAT      O32667   2.968   4.141   2.200
 7987WAT     H132668   3.052   4.120   2.186
 7987WAT     H232669   2.960   4.217   2.158
 7987WAT    EPW32670   2.979   4.149   2.192
 7988WAT      O32671   2.166   4.760   3.365
 7988WAT     H132672   2.181   4.736   3.447
 7988WAT     H232673   2.212   4.702   3.318
 7988WAT    EPW32674   2.175   4.748   3.370
 7989WAT      O32675   3.183   2.992   0.686
 7989WAT     H132676   3.202   3.026   0.608
 7989WAT     H232677   3.258   2.955   0.711
 7989WAT    EPW32678   3.197   2.991   0.678
 7990WAT      O32679   3.109   3.650   1.157
 7990WAT     H132680   3.075   3.727   1.182
 7990WAT     H232681   3.165   3.631   1.221
 7990WAT    EPW32682   3.112   3.659   1.170
 7991WAT      O32683   2.084   4.097   0.672
 7991WAT     H132684   2.074   4.099   0.758
 7991WAT     H232685   2.079   4.012   0.653
 7991WAT    EPW32686   2.082   4.085   0.682
 7992WAT      O32687   3.709   4.459   0.456
 7992WAT     H132688   3.772   4.401   0.474
 7992WAT     H232689   3.659   4.417   0.397
 7992WAT    EPW32690   3.711   4.444   0.450
 7993WAT      O32691   2.092   3.455   0.317
 7993WAT     H132692   2.037   3.512   0.281
 7993WAT     H232693   2.051   3.379   0.310
 7993WAT    EPW32694   2.078   3.452   0.310
 7994WAT      O32695   2.344   3.999   0.251
 7994WAT     H132696   2.328   3.960   0.175
 7994WAT     H232697   2.352   3.933   0.307
 7994WAT    EPW32698   2.343   3.984   0.248
 7995WAT      O32699   3.360   3.816   0.796
 7995WAT     H132700   3.373   3.799   0.711
 7995WAT     H232701   3.301   3.757   0.820
 7995WAT    EPW32702   3.353   3.804   0.787
 7996WAT      O32703   2.333   4.206   0.622
 7996WAT     H132704   2.387   4.172   0.682
 7996WAT     H232705   2.257   4.166   0.637
 7996WAT    EPW32706   2.330   4.195   0.633
 7997WAT      O32707   2.818   3.109   0.617
 7997WAT     H132708   2.816   3.192   0.588
 7997WAT     H232709   2.859   3.066   0.553
 7997WAT    EPW32710   2.824   3.115   0.603
 7998WAT      O32711   2.245   4.507   0.271
 7998WAT     H132712   2.274   4.513   0.189
 7998WAT     H232713   2.270   4.427   0.296
 7998WAT    EPW32714   2.253   4.496   0.263
 7999WAT      O32715   2.095   4.316   1.335
 7999WAT     H132716   2.129   4.293   1.413
 7999WAT     H232717   2.024   4.265   1.329
 7999WAT    EPW32718   2.089   4.305   1.346
 8000WAT      O32719   2.742   4.136   1.804
 8000WAT     H132720   2.715   4.123   1.886
 8000WAT     H232721   2.671   4.117   1.756
 8000WAT    EPW32722   2.727   4.131   1.809
 8001WAT      O32723   2.285   3.849   0.808
 8001WAT     H132724   2.236   3.847   0.735
 8001WAT     H232725   2.339   3.782   0.798
 8001WAT    EPW32726   2.286   3.839   0.796
 8002WAT      O32727   2.723   3.419   1.347
 8002WAT     H132728   2.794   3.422   1.296
 8002WAT     H232729   2.700   3.335   1.346
 8002WAT    EPW32730   2.730   3.407   1.339
 8003WAT      O32731   2.731   4.432   1.525
 8003WAT     H132732   2.743   4.499   1.470
 8003WAT     H232733   2.812   4.403   1.539
 8003WAT    EPW32734   2.745   4.438   1.519
 8004WAT      O32735   2.445   3.628   0.790
 8004WAT     H132736   2.510   3.575   0.814
 8004WAT     H232737   2.375   3.575   0.792
 8004WAT    EPW32738   2.444   3.612   0.794
 8005WAT      O32739   2.856   4.266   0.949
 8005WAT     H132740   2.878   4.184   0.968
 8005WAT     H232741   2.932   4.307   0.939
 8005WAT    EPW32742   2.870   4.260   0.950
 8006WAT      O32743   2.892   4.191   0.587
 8006WAT     H132744   2.929   4.130   0.637
 8006WAT     H232745   2.929   4.179   0.508
 8006WAT    EPW32746   2.903   4.180   0.582
 8007WAT      O32747   3.043   3.610   1.777
 8007WAT     H132748   2.970   3.627   1.733
 8007WAT     H232749   3.048   3.675   1.835
 8007WAT    EPW32750   3.033   3.622   1.779
 8008WAT      O32751   2.539   3.126   0.686
 8008WAT     H132752   2.499   3.171   0.622
 8008WAT     H232753   2.621   3.120   0.657
 8008WAT    EPW32754   2.546   3.132   0.672
 8009WAT      O32755   2.884   3.080   0.884
 8009WAT     H132756   2.880   3.164   0.907
 8009WAT     H232757   2.863   3.081   0.799
 8009WAT    EPW32758   2.880   3.093   0.875
 8010WAT      O32759   2.101   3.579   1.056
 8010WAT     H132760   2.096   3.666   1.064
 8010WAT     H232761   2.033   3.551   1.104
 8010WAT    EPW32762   2.090   3.588   1.064
 8011WAT      O32763   2.083   4.548   0.874
 8011WAT     H132764   2.020   4.595   0.836
 8011WAT     H232765   2.125   4.512   0.806
 8011WAT    EPW32766   2.080   4.550   0.858
 8012WAT      O32767   2.705   4.400   0.584
 8012WAT     H132768   2.659   4.384   0.656
 8012WAT     H232769   2.770   4.342   0.587
 8012WAT    EPW32770   2.708   4.389   0.595
 8013WAT      O32771   3.280   4.548   0.399
 8013WAT     H132772   3.344   4.605   0.383
 8013WAT     H232773   3.322   4.477   0.426
 8013WAT    EPW32774   3.295   4.546   0.401
 8014WAT      O32775   3.078   4.621   0.572
 8014WAT     H132776   3.108   4.692   0.613
 8014WAT     H232777   3.141   4.604   0.514
 8014WAT    EPW32778   3.092   4.629   0.570
 8015WAT      O32779   2.369   3.081   1.095
 8015WAT     H132780   2.333   3.012   1.057
 8015WAT     H232781   2.431   3.047   1.145
 8015WAT    EPW32782   2.373   3.066   1.097
 8016WAT      O32783   2.680   3.307   1.997
 8016WAT     H132784   2.689   3.267   1.920
 8016WAT     H232785   2.721   3.384   1.985
 8016WAT    EPW32786   2.688   3.313   1.984
 8017WAT      O32787   2.223   4.459   0.649
 8017WAT     H132788   2.272   4.387   0.656
 8017WAT     H232789   2.274   4.514   0.603
 8017WAT    EPW32790   2.238   4.457   0.643
 8018WAT      O32791   3.812   3.251   0.828
 8018WAT     H132792   3.765   3.325   0.829
 8018WAT     H232793   3.755   3.190   0.803
 8018WAT    EPW32794   3.797   3.253   0.824
 8019WAT      O32795   3.332   4.571   1.386
 8019WAT     H132796   3.396   4.629   1.376
 8019WAT     H232797   3.313   4.547   1.304
 8019WAT    EPW32798   3.339   4.576   1.373
 8020WAT      O32799   2.270   3.193   1.927
 8020WAT     H132800   2.191   3.166   1.904
 8020WAT     H232801   2.321   3.164   1.862
 8020WAT    EPW32802   2.266   3.185   1.914
 8021WAT      O32803   2.358   4.280   1.002
 8021WAT     H132804   2.414   4.265   0.937
 8021WAT     H232805   2.384   4.225   1.065
 8021WAT    EPW32806   2.370   4.270   1.002
 8022WAT      O32807   2.665   4.596   0.922
 8022WAT     H132808   2.744   4.610   0.888
 8022WAT     H232809   2.611   4.640   0.870
 8022WAT    EPW32810   2.669   4.604   0.909
 8023WAT      O32811   2.909   3.026   1.870
 8023WAT     H132812   2.924   2.954   1.824
 8023WAT     H232813   2.840   3.062   1.830
 8023WAT    EPW32814   2.901   3.020   1.858
 8024WAT      O32815   2.979   3.552   0.717
 8024WAT     H132816   3.013   3.506   0.652
 8024WAT     H232817   3.048   3.572   0.766
 8024WAT    EPW32818   2.994   3.548   0.714
 8025WAT      O32819   3.089   3.564   0.259
 8025WAT     H132820   3.115   3.641   0.289
 8025WAT     H232821   3.015   3.581   0.216
 8025WAT    EPW32822   3.082   3.578   0.257
 8026WAT      O32823   3.473   4.745   0.341
 8026WAT     H132824   3.517   4.704   0.277
 8026WAT     H232825   3.533   4.798   0.375
 8026WAT    EPW32826   3.489   4.747   0.336
 8027WAT      O32827   2.522   4.674   1.495
 8027WAT     H132828   2.557   4.657   1.573
 8027WAT     H232829   2.459   4.615   1.487
 8027WAT    EPW32830   2.518   4.663   1.505
 8028WAT      O32831   3.748   3.186   1.282
 8028WAT     H132832   3.809   3.171   1.221
 8028WAT     H232833   3.785   3.159   1.356
 8028WAT    EPW32834   3.762   3.180   1.284
 8029WAT      O32835   2.000   3.315   1.652
 8029WAT     H132836   1.995   3.388   1.701
 8029WAT     H232837   2.061   3.334   1.593
 8029WAT    EPW32838   2.008   3.329   1.651
 8030WAT      O32839   3.216   4.360   1.723
 8030WAT     H132840   3.190   4.384   1.802
 8030WAT     H232841   3.260   4.286   1.737
 8030WAT    EPW32842   3.219   4.353   1.737
 8031WAT      O32843   3.072   4.436   0.240
 8031WAT     H132844   3.010   4.497   0.250
 8031WAT     H232845   3.144   4.475   0.271
 8031WAT    EPW32846   3.074   4.451   0.246
 8032WAT      O32847   3.252   3.055   0.422
 8032WAT     H132848   3.319   3.011   0.389
 8032WAT     H232849   3.285   3.134   0.437
 8032WAT    EPW32850   3.267   3.060   0.419
 8033WAT      O32851   2.111   3.226   0.574
 8033WAT     H132852   2.086   3.145   0.555
 8033WAT     H232853   2.063   3.246   0.645
 8033WAT    EPW32854   2.100   3.217   0.582
 8034WAT      O32855   2.287   4.532   1.369
 8034WAT     H132856   2.226   4.470   1.362
 8034WAT     H232857   2.329   4.529   1.293
 8034WAT    EPW32858   2.284   4.522   1.357
 8035WAT      O32859   3.060   3.413   0.488
 8035WAT     H132860   2.983   3.374   0.472
 8035WAT     H232861   3.074   3.459   0.415
 8035WAT    EPW32862   3.051   3.414   0.475
 8036WAT      O32863   3.087   4.669   1.476
 8036WAT     H132864   3.162   4.637   1.446
 8036WAT     H232865   3.028   4.642   1.417
 8036WAT    EPW32866   3.089   4.660   1.463
 8037WAT      O32867   2.977   3.062   0.378
 8037WAT     H132868   2.955   3.140   0.344
 8037WAT     H232869   3.064   3.065   0.383
 8037WAT    EPW32870   2.986   3.074   0.374
 8038WAT      O32871   3.777   4.685   0.728
 8038WAT     H132872   3.735   4.760   0.743
 8038WAT     H232873   3.712   4.627   0.718
 8038WAT    EPW32874   3.761   4.687   0.729
 8039WAT      O32875   2.865   3.364   0.901
 8039WAT     H132876   2.898   3.423   0.846
 8039WAT     H232877   2.889   3.393   0.979
 8039WAT    EPW32878   2.873   3.377   0.904
 8040WAT      O32879   3.464   4.251   0.713
 8040WAT     H132880   3.532   4.201   0.736
 8040WAT     H232881   3.395   4.210   0.745
 8040WAT    EPW32882   3.464   4.238   0.721
 8041WAT      O32883   2.474   4.371   1.643
 8041WAT     H132884   2.550   4.404   1.616
 8041WAT     H232885   2.458   4.413   1.717
 8041WAT    EPW32886   2.483   4.382   1.650
 8042WAT      O32887   2.470   2.866   0.744
 8042WAT     H132888   2.490   2.949   0.727
 8042WAT     H232889   2.439   2.837   0.668
 8042WAT    EPW32890   2.468   2.874   0.730
 8043WAT      O32891   2.668   3.959   1.088
 8043WAT     H132892   2.689   3.943   1.171
 8043WAT     H232893   2.615   3.893   1.068
 8043WAT    EPW32894   2.664   3.947   1.097
 8044WAT      O32895   3.342   3.243   1.498
 8044WAT     H132896   3.332   3.328   1.482
 8044WAT     H232897   3.261   3.211   1.494
 8044WAT    EPW32898   3.328   3.251   1.495
 8045WAT      O32899   2.770   3.971   1.347
 8045WAT     H132900   2.744   4.054   1.354
 8045WAT     H232901   2.734   3.932   1.416
 8045WAT    EPW32902   2.761   3.978   1.358
 8046WAT      O32903   3.376   4.008   1.327
 8046WAT     H132904   3.313   3.979   1.380
 8046WAT     H232905   3.378   4.094   1.342
 8046WAT    EPW32906   3.367   4.016   1.337
 8047WAT      O32907   3.423   2.882   0.761
 8047WAT     H132908   3.425   2.858   0.845
 8047WAT     H232909   3.454   2.813   0.719
 8047WAT    EPW32910   3.428   2.868   0.767
 8048WAT      O32911   2.025   4.358   1.962
 8048WAT     H132912   2.083   4.405   2.007
 8048WAT     H232913   2.031   4.279   1.998
 8048WAT    EPW32914   2.034   4.353   1.974
 8049WAT      O32915   3.796   3.221   1.808
 8049WAT     H132916   3.875   3.241   1.839
 8049WAT     H232917   3.741   3.258   1.866
 8049WAT    EPW32918   3.799   3.230   1.822
 8050WAT      O32919   2.401   3.261   0.890
 8050WAT     H132920   2.439   3.212   0.828
 8050WAT     H232921   2.395   3.206   0.958
 8050WAT    EPW32922   2.406   3.245   0.891
 8051WAT      O32923   3.676   4.091   0.332
 8051WAT     H132924   3.670   4.041   0.403
 8051WAT     H232925   3.760   4.087   0.311
 8051WAT    EPW32926   3.687   4.083   0.339
 8052WAT      O32927   2.459   4.066   0.824
 8052WAT     H132928   2.531   4.043   0.780
 8052WAT     H232929   2.410   3.994   0.824
 8052WAT    EPW32930   2.463   4.052   0.817
 8053WAT      O32931   2.294   4.705   0.957
 8053WAT     H132932   2.221   4.664   0.932
 8053WAT     H232933   2.343   4.706   0.885
 8053WAT    EPW32934   2.290   4.699   0.943
 8054WAT      O32935   2.271   3.422   1.212
 8054WAT     H132936   2.353   3.448   1.196
 8054WAT     H232937   2.223   3.473   1.160
 8054WAT    EPW32938   2.276   3.434   1.202
 8055WAT      O32939   3.905   4.477   1.712
 8055WAT     H132940   3.832   4.471   1.664
 8055WAT     H232941   3.890   4.421   1.778
 8055WAT    EPW32942   3.892   4.468   1.715
 8056WAT      O32943   3.520   3.686   0.260
 8056WAT     H132944   3.446   3.664   0.219
 8056WAT     H232945   3.493   3.726   0.332
 8056WAT    EPW32946   3.505   3.688   0.264
 8057WAT      O32947   2.670   4.011   0.651
 8057WAT     H132948   2.725   4.071   0.619
 8057WAT     H232949   2.674   3.946   0.594
 8057WAT    EPW32950   2.678   4.010   0.638
 8058WAT      O32951   3.814   3.237   0.239
 8058WAT     H132952   3.838   3.165   0.197
 8058WAT     H232953   3.768   3.281   0.178
 8058WAT    EPW32954   3.811   3.233   0.224
 8059WAT      O32955   2.109   4.156   0.953
 8059WAT     H132956   2.054   4.216   0.987
 8059WAT     H232957   2.187   4.193   0.961
 8059WAT    EPW32958   2.112   4.171   0.960
 8060WAT      O32959   2.827   3.543   1.981
 8060WAT     H132960   2.774   3.606   2.012
 8060WAT     H232961   2.842   3.568   1.899
 8060WAT    EPW32962   2.821   3.556   1.974
 8061WAT      O32963   3.936   3.646   1.406
 8061WAT     H132964   3.976   3.578   1.444
 8061WAT     H232965   3.851   3.627   1.416
 8061WAT    EPW32966   3.929   3.633   1.413
 8062WAT      O32967   2.142   3.830   0.577
 8062WAT     H132968   2.118   3.747   0.581
 8062WAT     H232969   2.214   3.828   0.527
 8062WAT    EPW32970   2.149   3.818   0.570
 8063WAT      O32971   3.678   3.081   0.445
 8063WAT     H132972   3.754   3.045   0.469
 8063WAT     H232973   3.702   3.145   0.392
 8063WAT    EPW32974   3.693   3.085   0.441
 8064WAT      O32975   3.090   4.417   0.919
 8064WAT     H132976   3.045   4.490   0.903
 8064WAT     H232977   3.115   4.390   0.840
 8064WAT    EPW32978   3.087   4.423   0.905
 8065WAT      O32979   2.048   4.305   0.496
 8065WAT     H132980   2.101   4.361   0.537
 8065WAT     H232981   2.041   4.238   0.552
 8065WAT    EPW32982   2.055   4.303   0.510
 8066WAT      O32983   2.460   4.110   1.194
 8066WAT     H132984   2.510   4.154   1.251
 8066WAT     H232985   2.518   4.068   1.144
 8066WAT    EPW32986   2.476   4.110   1.195
 8067WAT      O32987   3.351   3.390   0.906
 8067WAT     H132988   3.382   3.401   0.987
 8067WAT     H232989   3.308   3.314   0.911
 8067WAT    EPW32990   3.349   3.381   0.919
 8068WAT      O32991   2.070   4.107   0.292
 8068WAT     H132992   2.151   4.075   0.287
 8068WAT     H232993   2.078   4.175   0.346
 8068WAT    EPW32994   2.083   4.112   0.299
 8069WAT      O32995   2.126   3.888   1.031
 8069WAT     H132996   2.179   3.866   0.966
 8069WAT     H232997   2.118   3.975   1.022
 8069WAT    EPW32998   2.133   3.898   1.020
 8070WAT      O32999   2.803   3.313   0.419
 8070WAT     H133000   2.750   3.248   0.394
 8070WAT     H233001   2.757   3.385   0.402
 8070WAT    EPW33002   2.788   3.314   0.413
 8071WAT      O33003   3.668   4.505   1.545
 8071WAT     H133004   3.669   4.591   1.535
 8071WAT     H233005   3.667   4.474   1.464
 8071WAT    EPW33006   3.668   4.513   1.532
 8072WAT      O33007   2.599   4.344   0.833
 8072WAT     H133008   2.611   4.424   0.866
 8072WAT     H233009   2.667   4.298   0.864
 8072WAT    EPW33010   2.611   4.349   0.842
 8073WAT      O33011   2.402   3.647   1.868
 8073WAT     H133012   2.358   3.587   1.914
 8073WAT     H233013   2.399   3.617   1.786
 8073WAT    EPW33014   2.395   3.634   1.863
 8074WAT      O33015   2.363   3.518   0.379
 8074WAT     H133016   2.372   3.454   0.439
 8074WAT     H233017   2.282   3.505   0.348
 8074WAT    EPW33018   2.352   3.506   0.383
 8075WAT      O33019   2.490   3.757   1.039
 8075WAT     H133020   2.477   3.725   0.959
 8075WAT     H233021   2.503   3.687   1.088
 8075WAT    EPW33022   2.490   3.742   1.034
 8076WAT      O33023   2.449   3.719   1.389
 8076WAT     H133024   2.474   3.666   1.324
 8076WAT     H233025   2.395   3.775   1.349
 8076WAT    EPW33026   2.445   3.720   1.373
 8077WAT      O33027   3.484   3.494   1.125
 8077WAT     H133028   3.444   3.519   1.199
 8077WAT     H233029   3.500   3.569   1.084
 8077WAT    EPW33030   3.480   3.509   1.130
 8078WAT      O33031   2.859   4.613   1.322
 8078WAT     H133032   2.836   4.546   1.271
 8078WAT     H233033   2.849   4.682   1.270
 8078WAT    EPW33034   2.854   4.613   1.307
 8079WAT      O33035   3.099   3.069   1.518
 8079WAT     H133036   3.116   2.985   1.502
 8079WAT     H233037   3.120   3.078   1.602
 8079WAT    EPW33038   3.104   3.058   1.528
 8080WAT      O33039   3.324   3.307   0.498
 8080WAT     H133040   3.381   3.370   0.515
 8080WAT     H233041   3.247   3.347   0.504
 8080WAT    EPW33042   3.321   3.322   0.502
 8081WAT      O33043   2.269   3.886   1.914
 8081WAT     H133044   2.264   3.931   1.840
 8081WAT     H233045   2.317   3.816   1.893
 8081WAT    EPW33046   2.275   3.882   1.900
 8082WAT      O33047   3.426   4.183   1.763
 8082WAT     H133048   3.441   4.137   1.836
 8082WAT     H233049   3.453   4.129   1.700
 8082WAT    EPW33050   3.432   4.168   1.765
 8083WAT      O33051   2.835   4.404   1.822
 8083WAT     H133052   2.863   4.401   1.905
 8083WAT     H233053   2.805   4.324   1.808
 8083WAT    EPW33054   2.835   4.392   1.832
 8084WAT      O33055   2.935   3.426   1.162
 8084WAT     H133056   2.993   3.491   1.169
 8084WAT     H233057   2.982   3.354   1.175
 8084WAT    EPW33058   2.950   3.425   1.165
 8085WAT      O33059   3.171   3.796   0.385
 8085WAT     H133060   3.190   3.878   0.360
 8085WAT     H233061   3.102   3.807   0.438
 8085WAT    EPW33062   3.163   3.810   0.389
 8086WAT      O33063   3.653   4.069   0.802
 8086WAT     H133064   3.683   4.016   0.865
 8086WAT     H233065   3.661   4.021   0.729
 8086WAT    EPW33066   3.658   4.054   0.800
 8087WAT      O33067   3.284   4.456   1.128
 8087WAT     H133068   3.222   4.441   1.069
 8087WAT     H233069   3.332   4.519   1.092
 8087WAT    EPW33070   3.282   4.463   1.114
 8088WAT      O33071   3.268   4.122   1.087
 8088WAT     H133072   3.195   4.156   1.120
 8088WAT     H233073   3.291   4.063   1.148
 8088WAT    EPW33074   3.261   4.118   1.101
 8089WAT      O33075   2.657   4.643   0.446
 8089WAT     H133076   2.669   4.574   0.498
 8089WAT     H233077   2.729   4.645   0.397
 8089WAT    EPW33078   2.669   4.633   0.446
 8090WAT      O33079   2.637   3.094   0.360
 8090WAT     H133080   2.629   3.011   0.386
 8090WAT     H233081   2.563   3.109   0.317
 8090WAT    EPW33082   2.625   3.084   0.358
 8091WAT      O33083   2.913   4.645   0.343
 8091WAT     H133084   2.952   4.629   0.420
 8091WAT     H233085   2.928   4.730   0.329
 8091WAT    EPW33086   2.921   4.655   0.352
 8092WAT      O33087   3.518   4.009   1.573
 8092WAT     H133088   3.491   3.992   1.491
 8092WAT     H233089   3.605   4.007   1.567
 8092WAT    EPW33090   3.527   4.006   1.560
 8093WAT      O33091   3.210   4.486   1.990
 8093WAT     H133092   3.235   4.501   2.072
 8093WAT     H233093   3.219   4.564   1.951
 8093WAT    EPW33094   3.215   4.500   1.996
 8094WAT      O33095   3.727   2.976   1.934
 8094WAT     H133096   3.751   2.962   2.017
 8094WAT     H233097   3.767   3.051   1.913
 8094WAT    EPW33098   3.736   2.985   1.943
 8095WAT      O33099   2.384   3.793   0.435
 8095WAT     H133100   2.376   3.707   0.420
 8095WAT     H233101   2.463   3.801   0.470
 8095WAT    EPW33102   2.395   3.782   0.438
 8096WAT      O33103   3.168   3.943   1.506
 8096WAT     H133104   3.106   3.979   1.557
 8096WAT     H233105   3.209   3.887   1.560
 8096WAT    EPW33106   3.165   3.940   1.522
 8097WAT      O33107   2.015   2.964   0.513
 8097WAT     H133108   2.019   2.906   0.448
 8097WAT     H233109   1.989   2.917   0.581
 8097WAT    EPW33110   2.012   2.949   0.513
 8098WAT      O33111   2.953   3.790   0.563
 8098WAT     H133112   2.969   3.853   0.621
 8098WAT     H233113   2.953   3.717   0.611
 8098WAT    EPW33114   2.956   3.789   0.579
 8099WAT      O33115   3.538   4.228   1.104
 8099WAT     H133116   3.582   4.215   1.030
 8099WAT     H233117   3.456   4.203   1.084
 8099WAT    EPW33118   3.532   4.222   1.090
 8100WAT      O33119   2.405   3.209   0.241
 8100WAT     H133120   2.345   3.182   0.183
 8100WAT     H233121   2.428   3.288   0.211
 8100WAT    EPW33122   2.399   3.217   0.228
 8101WAT      O33123   2.926   4.000   1.003
 8101WAT     H133124   2.843   3.980   1.020
 8101WAT     H233125   2.968   3.972   1.074
 8101WAT    EPW33126   2.920   3.993   1.016
 8102WAT      O33127   2.282   3.908   1.267
 8102WAT     H133128   2.334   3.976   1.249
 8102WAT     H233129   2.240   3.894   1.192
 8102WAT    EPW33130   2.283   3.916   1.253
 8103WAT      O33131   2.601   3.446   0.930
 8103WAT     H133132   2.681   3.413   0.915
 8103WAT     H233133   2.548   3.378   0.916
 8103WAT    EPW33134   2.605   3.431   0.926
 8104WAT      O33135   3.874   4.621   0.306
 8104WAT     H133136   3.949   4.577   0.292
 8104WAT     H233137   3.829   4.567   0.358
 8104WAT    EPW33138   3.879   4.606   0.312
 8105WAT      O33139   2.089   3.555   0.591
 8105WAT     H133140   2.124   3.517   0.661
 8105WAT     H233141   2.101   3.496   0.528
 8105WAT    EPW33142   2.096   3.541   0.592
 8106WAT      O33143   3.633   3.902   1.264
 8106WAT     H133144   3.645   3.834   1.318
 8106WAT     H233145   3.548   3.919   1.271
 8106WAT    EPW33146   3.622   3.894   1.273
 8107WAT      O33147   2.248   4.030   1.680
 8107WAT     H133148   2.207   3.982   1.619
 8107WAT     H233149   2.223   4.112   1.661
 8107WAT    EPW33150   2.238   4.035   1.668
 8108WAT      O33151   3.742   3.897   1.008
 8108WAT     H133152   3.711   3.902   1.089
 8108WAT     H233153   3.828   3.891   1.019
 8108WAT    EPW33154   3.750   3.897   1.021
 8109WAT      O33155   2.649   3.540   0.363
 8109WAT     H133156   2.664   3.621   0.394
 8109WAT     H233157   2.562   3.536   0.360
 8109WAT    EPW33158   2.638   3.552   0.367
 8110WAT      O33159   3.588   3.257   1.998
 8110WAT     H133160   3.623   3.225   2.071
 8110WAT     H233161   3.554   3.187   1.959
 8110WAT    EPW33162   3.588   3.242   2.003
 8111WAT      O33163   2.061   3.194   1.046
 8111WAT     H133164   2.043   3.219   0.964
 8111WAT     H233165   2.148   3.200   1.051
 8111WAT    EPW33166   2.071   3.199   1.034
 8112WAT      O33167   3.864   4.384   1.078
 8112WAT     H133168   3.899   4.440   1.021
 8112WAT     H233169   3.926   4.377   1.139
 8112WAT    EPW33170   3.879   4.392   1.079
 8113WAT      O33171   3.344   3.614   1.919
 8113WAT     H133172   3.386   3.664   1.977
 8113WAT     H233173   3.332   3.668   1.851
 8113WAT    EPW33174   3.348   3.629   1.918
 8114WAT      O33175   3.604   3.736   1.723
 8114WAT     H133176   3.649   3.801   1.760
 8114WAT     H233177   3.625   3.666   1.771
 8114WAT    EPW33178   3.614   3.735   1.736
 8115WAT      O33179   3.550   4.330   0.273
 8115WAT     H133180   3.591   4.254   0.277
 8115WAT     H233181   3.474   4.316   0.314
 8115WAT    EPW33182   3.545   4.317   0.280
 8116WAT      O33183   3.608   3.450   0.812
 8116WAT     H133184   3.534   3.415   0.840
 8116WAT     H233185   3.610   3.528   0.853
 8116WAT    EPW33186   3.597   3.456   0.822
 8117WAT      O33187   3.794   4.044   1.572
 8117WAT     H133188   3.862   3.993   1.553
 8117WAT     H233189   3.786   4.095   1.501
 8117WAT    EPW33190   3.803   4.044   1.559
 8118WAT      O33191   3.278   4.046   0.303
 8118WAT     H133192   3.309   4.107   0.357
 8118WAT     H233193   3.335   4.045   0.237
 8118WAT    EPW33194   3.291   4.055   0.301
 8119WAT      O33195   2.668   4.235   1.337
 8119WAT     H133196   2.675   4.286   1.407
 8119WAT     H233197   2.690   4.287   1.270
 8119WAT    EPW33198   2.672   4.250   1.337
 8120WAT      O33199   2.516   4.091   1.643
 8120WAT     H133200   2.434   4.064   1.659
 8120WAT     H233201   2.507   4.177   1.633
 8120WAT    EPW33202   2.503   4.100   1.644
 8121WAT      O33203   3.515   3.141   1.708
 8121WAT     H133204   3.586   3.191   1.705
 8121WAT     H233205   3.461   3.179   1.650
 8121WAT    EPW33206   3.517   3.154   1.699
 8122WAT      O33207   3.027   3.913   1.265
 8122WAT     H133208   3.073   3.897   1.338
 8122WAT     H233209   2.945   3.922   1.294
 8122WAT    EPW33210   3.022   3.912   1.280
 8123WAT      O33211   2.643   3.425   1.614
 8123WAT     H133212   2.659   3.347   1.648
 8123WAT     H233213   2.674   3.420   1.533
 8123WAT    EPW33214   2.650   3.413   1.607
 8124WAT      O33215   2.930   4.634   0.830
 8124WAT     H133216   2.933   4.719   0.851
 8124WAT     H233217   2.951   4.633   0.745
 8124WAT    EPW33218   2.934   4.647   0.821
 8125WAT      O33219   3.598   2.902   1.480
 8125WAT     H133220   3.552   2.954   1.428
 8125WAT     H233221   3.670   2.948   1.497
 8125WAT    EPW33222   3.602   2.916   1.475
 8126WAT      O33223   2.819   3.027   1.547
 8126WAT     H133224   2.902   3.045   1.528
 8126WAT     H233225   2.821   2.941   1.563
 8126WAT    EPW33226   2.832   3.017   1.547
 8127WAT      O33227   2.745   4.425   1.146
 8127WAT     H133228   2.698   4.480   1.098
 8127WAT     H233229   2.784   4.374   1.088
 8127WAT    EPW33230   2.744   4.426   1.131
 8128WAT      O33231   3.167   4.014   1.861
 8128WAT     H133232   3.231   3.979   1.814
 8128WAT     H233233   3.110   4.042   1.801
 8128WAT    EPW33234   3.168   4.013   1.845
 8129WAT      O33235   3.794   3.643   0.224
 8129WAT     H133236   3.820   3.706   0.169
 8129WAT     H233237   3.707   3.648   0.220
 8129WAT    EPW33238   3.785   3.653   0.215
 8130WAT      O33239   2.531   3.525   1.184
 8130WAT     H133240   2.556   3.495   1.106
 8130WAT     H233241   2.591   3.493   1.239
 8130WAT    EPW33242   2.544   3.516   1.181
 8131WAT      O33243   3.199   3.383   1.821
 8131WAT     H133244   3.148   3.444   1.785
 8131WAT     H233245   3.276   3.424   1.831
 8131WAT    EPW33246   3.203   3.398   1.818
 8132WAT      O33247   3.000   4.615   1.735
 8132WAT     H133248   3.013   4.616   1.649
 8132WAT     H233249   2.953   4.542   1.748
 8132WAT    EPW33250   2.995   4.604   1.724
 8133WAT      O33251   3.508   3.512   0.561
 8133WAT     H133252   3.534   3.488   0.641
 8133WAT     H233253   3.580   3.547   0.526
 8133WAT    EPW33254   3.523   3.514   0.568
 8134WAT      O33255   2.820   2.982   1.152
 8134WAT     H133256   2.735   2.975   1.169
 8134WAT     H233257   2.822   2.995   1.065
 8134WAT    EPW33258   2.808   2.983   1.142
 8135WAT      O33259   3.628   3.069   0.724
 8135WAT     H133260   3.552   3.028   0.738
 8135WAT     H233261   3.625   3.087   0.639
 8135WAT    EPW33262   3.616   3.065   0.713
 8136WAT      O33263   3.643   3.921   0.558
 8136WAT     H133264   3.692   3.850   0.546
 8136WAT     H233265   3.561   3.891   0.551
 8136WAT    EPW33266   3.638   3.906   0.555
 8137WAT      O33267   2.983   4.086   1.667
 8137WAT     H133268   2.907   4.084   1.710
 8137WAT     H233269   2.982   4.165   1.629
 8137WAT    EPW33270   2.971   4.098   1.668
 8138WAT      O33271   2.031   3.088   1.808
 8138WAT     H133272   2.026   3.160   1.760
 8138WAT     H233273   1.947   3.069   1.825
 8138WAT    EPW33274   2.018   3.096   1.804
 8139WAT      O33275   2.556   4.748   1.225
 8139WAT     H133276   2.548   4.732   1.310
 8139WAT     H233277   2.527   4.675   1.187
 8139WAT    EPW33278   2.551   4.735   1.232
 8140WAT      O33279   2.376   3.274   0.514
 8140WAT     H133280   2.379   3.241   0.433
 8140WAT     H233281   2.294   3.259   0.539
 8140WAT    EPW33282   2.365   3.267   0.505
 8141WAT      O33283   3.271   4.077   0.814
 8141WAT     H133284   3.266   4.093   0.900
 8141WAT     H233285   3.308   3.998   0.810
 8141WAT    EPW33286   3.276   4.068   0.826
 8142WAT      O33287   3.017   3.998   0.739
 8142WAT     H133288   2.981   3.990   0.818
 8142WAT     H233289   3.098   4.024   0.756
 8142WAT    EPW33290   3.023   4.001   0.753
 8143WAT      O33291   2.994   4.333   1.539
 8143WAT     H133292   3.069   4.352   1.579
 8143WAT     H233293   3.019   4.304   1.461
 8143WAT    EPW33294   3.009   4.331   1.533
 8144WAT      O33295   3.319   3.782   1.687
 8144WAT     H133296   3.307   3.716   1.631
 8144WAT     H233297   3.405   3.795   1.686
 8144WAT    EPW33298   3.330   3.774   1.679
 8145WAT      O33299   2.201   4.710   1.740
 8145WAT     H133300   2.145   4.645   1.729
 8145WAT     H233301   2.152   4.776   1.768
 8145WAT    EPW33302   2.186   4.710   1.742
 8146WAT      O33303   3.052   3.796   1.988
 8146WAT     H133304   3.086   3.867   1.951
 8146WAT     H233305   2.978   3.825   2.024
 8146WAT    EPW33306   3.046   3.811   1.988
 8147WAT      O33307   3.423   4.690   1.068
 8147WAT     H133308   3.363   4.751   1.086
 8147WAT     H233309   3.483   4.702   1.130
 8147WAT    EPW33310   3.423   4.701   1.080
 8148WAT      O33311   3.075   4.199   1.302
 8148WAT     H133312   3.064   4.113   1.306
 8148WAT     H233313   3.158   4.211   1.327
 8148WAT    EPW33314   3.086   4.188   1.306
 8149WAT      O33315   3.628   4.392   1.957
 8149WAT     H133316   3.710   4.363   1.952
 8149WAT     H233317   3.595   4.348   2.024
 8149WAT    EPW33318   3.635   4.381   1.966
 8150WAT      O33319   2.392   3.545   1.601
 8150WAT     H133320   2.405   3.606   1.540
 8150WAT     H233321   2.469   3.504   1.605
 8150WAT    EPW33322   2.406   3.548   1.593
 8151WAT      O33323   2.203   3.386   1.472
 8151WAT     H133324   2.222   3.394   1.387
 8151WAT     H233325   2.263   3.435   1.512
 8151WAT    EPW33326   2.215   3.394   1.465
 8152WAT      O33327   3.736   3.663   0.498
 8152WAT     H133328   3.759   3.662   0.414
 8152WAT     H233329   3.804   3.627   0.538
 8152WAT    EPW33330   3.749   3.657   0.491
 8153WAT      O33331   2.427   3.076   1.727
 8153WAT     H133332   2.407   2.992   1.724
 8153WAT     H233333   2.407   3.105   1.648
 8153WAT    EPW33334   2.421   3.068   1.715
 8154WAT      O33335   3.118   4.352   0.644
 8154WAT     H133336   3.098   4.434   0.621
 8154WAT     H233337   3.045   4.308   0.626
 8154WAT    EPW33338   3.104   4.358   0.638
 8155WAT      O33339   3.645   3.690   1.449
 8155WAT     H133340   3.570   3.648   1.432
 8155WAT     H233341   3.640   3.708   1.534
 8155WAT    EPW33342   3.633   3.686   1.459
 8156WAT      O33343   2.112   3.889   1.485
 8156WAT     H133344   2.160   3.902   1.413
 8156WAT     H233345   2.092   3.804   1.480
 8156WAT    EPW33346   2.116   3.878   1.474
 8157WAT      O33347   3.161   3.111   1.785
 8157WAT     H133348   3.179   3.195   1.796
 8157WAT     H233349   3.083   3.102   1.823
 8157WAT    EPW33350   3.152   3.122   1.792
 8158WAT      O33351   3.202   3.154   0.918
 8158WAT     H133352   3.123   3.159   0.955
 8158WAT     H233353   3.186   3.112   0.843
 8158WAT    EPW33354   3.188   3.148   0.913
 8159WAT      O33355   2.633   4.279   0.339
 8159WAT     H133356   2.657   4.321   0.412
 8159WAT     H233357   2.546   4.286   0.339
 8159WAT    EPW33358   2.624   4.286   0.350
 8160WAT      O33359   3.484   3.095   1.310
 8160WAT     H133360   3.561   3.132   1.292
 8160WAT     H233361   3.447   3.151   1.366
 8160WAT    EPW33362   3.490   3.109   1.316
 8161WAT      O33363   2.636   3.849   1.556
 8161WAT     H133364   2.596   3.920   1.586
 8161WAT     H233365   2.575   3.811   1.507
 8161WAT    EPW33366   2.621   3.854   1.553
 8162WAT      O33367   3.563   3.694   0.944
 8162WAT     H133368   3.625   3.753   0.961
 8162WAT     H233369   3.504   3.740   0.899
 8162WAT    EPW33370   3.564   3.710   0.940
 8163WAT      O33371   3.552   4.517   0.674
 8163WAT     H133372   3.524   4.439   0.699
 8163WAT     H233373   3.596   4.501   0.600
 8163WAT    EPW33374   3.554   4.503   0.667
 8164WAT      O33375   2.356   4.263   0.352
 8164WAT     H133376   2.352   4.246   0.437
 8164WAT     H233377   2.353   4.184   0.314
 8164WAT    EPW33378   2.355   4.249   0.359
 8165WAT      O33379   2.638   4.006   0.277
 8165WAT     H133380   2.553   4.007   0.256
 8165WAT     H233381   2.656   4.090   0.293
 8165WAT    EPW33382   2.628   4.019   0.276
 8166WAT      O33383   2.628   3.167   1.387
 8166WAT     H133384   2.546   3.148   1.407
 8166WAT     H233385   2.675   3.105   1.426
 8166WAT    EPW33386   2.623   3.155   1.395
 8167WAT      O33387   3.817   3.069   1.538
 8167WAT     H133388   3.823   3.122   1.608
 8167WAT     H233389   3.898   3.038   1.530
 8167WAT    EPW33390   3.830   3.072   1.547
 8168WAT      O33391   3.037   3.163   1.164
 8168WAT     H133392   2.968   3.110   1.173
 8168WAT     H233393   3.105   3.112   1.187
 8168WAT    EPW33394   3.037   3.148   1.169
 8169WAT      O33395   3.336   4.284   1.350
 8169WAT     H133396   3.347   4.355   1.399
 8169WAT     H233397   3.335   4.316   1.269
 8169WAT    EPW33398   3.337   4.299   1.345
 8170WAT      O33399   3.257   4.695   1.809
 8170WAT     H133400   3.185   4.661   1.773
 8170WAT     H233401   3.234   4.778   1.824
 8170WAT    EPW33402   3.243   4.702   1.806
 8171WAT      O33403   2.778   3.650   1.707
 8171WAT     H133404   2.734   3.580   1.678
 8171WAT     H233405   2.738   3.717   1.669
 8171WAT    EPW33406   2.766   3.649   1.697
 8172WAT      O33407   3.757   4.148   1.317
 8172WAT     H133408   3.726   4.070   1.292
 8172WAT     H233409   3.703   4.205   1.277
 8172WAT    EPW33410   3.744   4.145   1.307
 8173WAT      O33411   2.648   4.620   1.748
 8173WAT     H133412   2.637   4.624   1.835
 8173WAT     H233413   2.705   4.554   1.738
 8173WAT    EPW33414   2.655   4.611   1.759
 8174WAT      O33415   3.652   4.428   1.267
 8174WAT     H133416   3.721   4.435   1.214
 8174WAT     H233417   3.594   4.383   1.220
 8174WAT    EPW33418   3.654   4.423   1.252
 8175WAT      O33419   2.357   3.145   1.472
 8175WAT     H133420   2.305   3.079   1.448
 8175WAT     H233421   2.306   3.216   1.462
 8175WAT    EPW33422   2.342   3.146   1.467
 8176WAT      O33423   3.283   3.006   1.143
 8176WAT     H133424   3.345   3.046   1.189
 8176WAT     H233425   3.276   3.055   1.071
 8176WAT    EPW33426   3.291   3.019   1.139
 8177WAT      O33427   2.364   4.514   1.873
 8177WAT     H133428   2.434   4.549   1.912
 8177WAT     H233429   2.326   4.583   1.836
 8177WAT    EPW33430   2.369   4.529   1.874
 8178WAT      O33431   3.190   3.615   0.886
 8178WAT     H133432   3.240   3.543   0.891
 8178WAT     H233433   3.165   3.628   0.969
 8178WAT    EPW33434   3.194   3.606   0.899
 8179WAT      O33435   2.221   3.469   0.823
 8179WAT     H133436   2.179   3.493   0.895
 8179WAT     H233437   2.263   3.396   0.846
 8179WAT    EPW33438   2.221   3.461   0.837
 8180WAT      O33439   2.205   4.293   1.591
 8180WAT     H133440   2.155   4.355   1.627
 8180WAT     H233441   2.286   4.326   1.595
 8180WAT    EPW33442   2.210   4.307   1.597
 8181WAT      O33443   3.407   3.766   0.524
 8181WAT     H133444   3.424   3.681   0.536
 8181WAT     H233445   3.329   3.765   0.485
 8181WAT    EPW33446   3.398   3.753   0.520
 8182WAT      O33447   2.384   4.623   0.488
 8182WAT     H133448   2.341   4.600   0.416
 8182WAT     H233449   2.467   4.628   0.463
 8182WAT    EPW33450   2.390   4.620   0.474
 8183WAT      O33451   2.691   3.805   0.459
 8183WAT     H133452   2.690   3.864   0.395
 8183WAT     H233453   2.775   3.801   0.482
 8183WAT    EPW33454   2.703   3.813   0.453
 8184WAT      O33455   3.626   4.595   0.162
 8184WAT     H133456   3.708   4.601   0.191
 8184WAT     H233457   3.605   4.511   0.175
 8184WAT    EPW33458   3.635   4.583   0.168
 8185WAT      O33459   3.747   3.952   1.835
 8185WAT     H133460   3.826   3.934   1.866
 8185WAT     H233461   3.763   3.993   1.760
 8185WAT    EPW33462   3.761   3.955   1.828
 8186WAT      O33463   3.338   4.274   0.466
 8186WAT     H133464   3.389   4.263   0.536
 8186WAT     H233465   3.258   4.284   0.499
 8186WAT    EPW33466   3.334   4.274   0.481
 8187WAT      O33467   3.753   3.450   1.181
 8187WAT     H133468   3.669   3.463   1.163
 8187WAT     H233469   3.754   3.374   1.223
 8187WAT    EPW33470   3.741   3.441   1.184
 8188WAT      O33471   2.689   3.170   1.743
 8188WAT     H133472   2.728   3.133   1.674
 8188WAT     H233473   2.609   3.136   1.742
 8188WAT    EPW33474   2.683   3.159   1.733
 8189WAT      O33475   3.493   3.999   1.967
 8189WAT     H133476   3.575   3.989   1.938
 8189WAT     H233477   3.480   3.928   2.016
 8189WAT    EPW33478   3.503   3.987   1.969
 8190WAT      O33479   2.414   4.524   1.123
 8190WAT     H133480   2.402   4.446   1.086
 8190WAT     H233481   2.374   4.579   1.069
 8190WAT    EPW33482   2.406   4.521   1.110
 8191WAT      O33483   3.038   4.186   0.355
 8191WAT     H133484   3.103   4.139   0.321
 8191WAT     H233485   3.041   4.261   0.310
 8191WAT    EPW33486   3.048   4.190   0.343
 8192WAT      O33487   2.179   4.771   1.465
 8192WAT     H133488   2.189   4.751   1.549
 8192WAT     H233489   2.210   4.700   1.424
 8192WAT    EPW33490   2.185   4.757   1.471
 8193WAT      O33491   3.158   1.143   6.391
 8193WAT     H133492   3.156   1.188   6.316
 8193WAT     H233493   3.243   1.130   6.405
 8193WAT    EPW33494   3.170   1.148   6.382
 8194WAT      O33495   3.116   1.770   6.834
 8194WAT     H133496   3.080   1.847   6.856
 8194WAT     H233497   3.170   1.754   6.900
 8194WAT    EPW33498   3.118   1.779   6.847
 8195WAT      O33499   2.085   2.251   6.355
 8195WAT     H133500   2.047   2.252   6.433
 8195WAT     H233501   2.080   2.167   6.331
 8195WAT    EPW33502   2.079   2.239   6.363
 8196WAT      O33503   3.711   2.631   6.118
 8196WAT     H133504   3.773   2.575   6.145
 8196WAT     H233505   3.659   2.581   6.069
 8196WAT    EPW33506   3.713   2.615   6.115
 8197WAT      O33507   2.076   1.593   6.015
 8197WAT     H133508   2.009   1.639   5.981
 8197WAT     H233509   2.047   1.510   6.013
 8197WAT    EPW33510   2.062   1.587   6.009
 8198WAT      O33511   2.402   2.178   5.926
 8198WAT     H133512   2.365   2.136   5.859
 8198WAT     H233513   2.400   2.119   5.991
 8198WAT    EPW33514   2.396   2.163   5.926
 8199WAT      O33515   3.354   1.960   6.477
 8199WAT     H133516   3.362   1.945   6.391
 8199WAT     H233517   3.301   1.895   6.504
 8199WAT    EPW33518   3.347   1.948   6.468
 8200WAT      O33519   2.335   2.364   6.312
 8200WAT     H133520   2.388   2.326   6.370
 8200WAT     H233521   2.258   2.324   6.326
 8200WAT    EPW33522   2.331   2.353   6.323
 8201WAT      O33523   2.794   1.255   6.254
 8201WAT     H133524   2.791   1.325   6.203
 8201WAT     H233525   2.872   1.221   6.237
 8201WAT    EPW33526   2.805   1.260   6.244
 8202WAT      O33527   2.230   2.649   5.925
 8202WAT     H133528   2.275   2.658   5.851
 8202WAT     H233529   2.263   2.575   5.959
 8202WAT    EPW33530   2.242   2.639   5.919
 8203WAT      O33531   2.126   2.461   7.042
 8203WAT     H133532   2.151   2.440   7.123
 8203WAT     H233533   2.056   2.411   7.028
 8203WAT    EPW33534   2.120   2.451   7.052
 8204WAT      O33535   2.781   2.307   7.470
 8204WAT     H133536   2.793   2.261   7.544
 8204WAT     H233537   2.703   2.280   7.442
 8204WAT    EPW33538   2.772   2.296   7.477
 8205WAT      O33539   2.279   1.997   6.492
 8205WAT     H133540   2.229   1.997   6.420
 8205WAT     H233541   2.334   1.930   6.479
 8205WAT    EPW33542   2.280   1.987   6.479
 8206WAT      O33543   2.714   1.579   7.034
 8206WAT     H133544   2.783   1.584   6.982
 8206WAT     H233545   2.689   1.495   7.028
 8206WAT    EPW33546   2.720   1.567   7.026
 8207WAT      O33547   2.722   2.545   7.224
 8207WAT     H133548   2.698   2.621   7.188
 8207WAT     H233549   2.808   2.554   7.236
 8207WAT    EPW33550   2.731   2.557   7.220
 8208WAT      O33551   2.451   1.779   6.475
 8208WAT     H133552   2.518   1.728   6.498
 8208WAT     H233553   2.383   1.725   6.477
 8208WAT    EPW33554   2.451   1.764   6.479
 8209WAT      O33555   2.862   2.429   6.646
 8209WAT     H133556   2.883   2.347   6.665
 8209WAT     H233557   2.939   2.468   6.633
 8209WAT    EPW33558   2.877   2.423   6.647
 8210WAT      O33559   2.921   2.348   6.276
 8210WAT     H133560   2.943   2.282   6.330
 8210WAT     H233561   2.936   2.315   6.197
 8210WAT    EPW33562   2.926   2.333   6.272
 8211WAT      O33563   3.066   1.774   7.440
 8211WAT     H133564   2.982   1.780   7.415
 8211WAT     H233565   3.073   1.831   7.505
 8211WAT    EPW33566   3.055   1.783   7.446
 8212WAT      O33567   2.525   1.287   6.352
 8212WAT     H133568   2.487   1.346   6.300
 8212WAT     H233569   2.608   1.286   6.324
 8212WAT    EPW33570   2.532   1.295   6.340
 8213WAT      O33571   3.546   1.068   7.334
 8213WAT     H133572   3.526   1.138   7.284
 8213WAT     H233573   3.470   1.048   7.371
 8213WAT    EPW33574   3.532   1.076   7.332
 8214WAT      O33575   2.841   1.215   6.530
 8214WAT     H133576   2.852   1.299   6.552
 8214WAT     H233577   2.815   1.219   6.447
 8214WAT    EPW33578   2.839   1.228   6.521
 8215WAT      O33579   3.255   1.432   5.780
 8215WAT     H133580   3.210   1.500   5.812
 8215WAT     H233581   3.274   1.385   5.851
 8215WAT    EPW33582   3.251   1.435   5.795
 8216WAT      O33583   2.100   1.741   6.739
 8216WAT     H133584   2.101   1.827   6.751
 8216WAT     H233585   2.033   1.715   6.788
 8216WAT    EPW33586   2.090   1.750   6.748
 8217WAT      O33587   2.087   2.700   6.573
 8217WAT     H133588   2.023   2.748   6.540
 8217WAT     H233589   2.126   2.666   6.503
 8217WAT    EPW33590   2.084   2.702   6.558
 8218WAT      O33591   2.679   2.479   6.253
 8218WAT     H133592   2.645   2.478   6.333
 8218WAT     H233593   2.758   2.442   6.263
 8218WAT    EPW33594   2.686   2.473   6.266
 8219WAT      O33595   3.252   2.740   5.989
 8219WAT     H133596   3.319   2.787   6.020
 8219WAT     H233597   3.271   2.659   6.013
 8219WAT    EPW33598   3.265   2.735   5.997
 8220WAT      O33599   3.089   2.759   6.225
 8220WAT     H133600   3.109   2.827   6.276
 8220WAT     H233601   3.141   2.769   6.156
 8220WAT    EPW33602   3.099   2.771   6.223
 8221WAT      O33603   2.405   1.246   6.784
 8221WAT     H133604   2.354   1.181   6.755
 8221WAT     H233605   2.467   1.204   6.830
 8221WAT    EPW33606   2.407   1.230   6.786
 8222WAT      O33607   2.219   2.615   6.339
 8222WAT     H133608   2.269   2.544   6.348
 8222WAT     H233609   2.267   2.667   6.288
 8222WAT    EPW33610   2.234   2.612   6.333
 8223WAT      O33611   3.836   1.433   6.493
 8223WAT     H133612   3.785   1.504   6.502
 8223WAT     H233613   3.778   1.369   6.480
 8223WAT    EPW33614   3.820   1.434   6.492
 8224WAT      O33615   3.334   2.746   7.052
 8224WAT     H133616   3.403   2.799   7.044
 8224WAT     H233617   3.320   2.719   6.970
 8224WAT    EPW33618   3.342   2.750   7.039
 8225WAT      O33619   2.270   1.437   7.558
 8225WAT     H133620   2.201   1.384   7.553
 8225WAT     H233621   2.334   1.391   7.520
 8225WAT    EPW33622   2.269   1.422   7.552
 8226WAT      O33623   2.366   2.417   6.689
 8226WAT     H133624   2.422   2.398   6.624
 8226WAT     H233625   2.393   2.366   6.755
 8226WAT    EPW33626   2.378   2.406   6.689
 8227WAT      O33627   2.650   2.749   6.586
 8227WAT     H133628   2.730   2.766   6.557
 8227WAT     H233629   2.599   2.798   6.534
 8227WAT    EPW33630   2.654   2.759   6.574
 8228WAT      O33631   2.919   1.217   7.556
 8228WAT     H133632   2.927   1.139   7.518
 8228WAT     H233633   2.852   1.254   7.512
 8228WAT    EPW33634   2.910   1.211   7.544
 8229WAT      O33635   3.004   1.678   6.410
 8229WAT     H133636   3.033   1.636   6.339
 8229WAT     H233637   3.077   1.692   6.456
 8229WAT    EPW33638   3.019   1.674   6.406
 8230WAT      O33639   3.099   1.643   5.904
 8230WAT     H133640   3.125   1.722   5.929
 8230WAT     H233641   3.024   1.657   5.863
 8230WAT    EPW33642   3.092   1.657   5.902
 8231WAT      O33643   3.464   2.878   6.096
 8231WAT     H133644   3.519   2.867   6.030
 8231WAT     H233645   3.499   2.831   6.161
 8231WAT    EPW33646   3.477   2.869   6.096
 8232WAT      O33647   2.569   2.768   7.148
 8232WAT     H133648   2.576   2.795   7.231
 8232WAT     H233649   2.487   2.738   7.144
 8232WAT    EPW33650   2.558   2.768   7.160
 8233WAT      O33651   3.746   1.355   6.900
 8233WAT     H133652   3.812   1.344   6.844
 8233WAT     H233653   3.765   1.301   6.966
 8233WAT    EPW33654   3.759   1.346   6.902
 8234WAT      O33655   1.985   1.425   7.283
 8234WAT     H133656   1.982   1.488   7.344
 8234WAT     H233657   2.050   1.451   7.230
 8234WAT    EPW33658   1.994   1.438   7.284
 8235WAT      O33659   3.192   2.510   7.445
 8235WAT     H133660   3.188   2.441   7.497
 8235WAT     H233661   3.277   2.520   7.429
 8235WAT    EPW33662   3.204   2.501   7.451
 8236WAT      O33663   3.016   2.520   5.897
 8236WAT     H133664   2.970   2.585   5.933
 8236WAT     H233665   3.092   2.522   5.941
 8236WAT    EPW33666   3.021   2.530   5.909
 8237WAT      O33667   3.303   1.281   6.011
 8237WAT     H133668   3.360   1.215   6.014
 8237WAT     H233669   3.326   1.331   6.079
 8237WAT    EPW33670   3.315   1.279   6.021
 8238WAT      O33671   2.134   1.382   6.273
 8238WAT     H133672   2.111   1.299   6.257
 8238WAT     H233673   2.085   1.404   6.341
 8238WAT    EPW33674   2.124   1.373   6.280
 8239WAT      O33675   2.308   2.682   7.049
 8239WAT     H133676   2.253   2.614   7.050
 8239WAT     H233677   2.346   2.676   6.971
 8239WAT    EPW33678   2.306   2.671   7.038
 8240WAT      O33679   3.070   1.550   6.168
 8240WAT     H133680   3.000   1.499   6.154
 8240WAT     H233681   3.086   1.583   6.089
 8240WAT    EPW33682   3.062   1.547   6.154
 8241WAT      O33683   3.088   2.794   7.164
 8241WAT     H133684   3.167   2.783   7.129
 8241WAT     H233685   3.035   2.796   7.095
 8241WAT    EPW33686   3.092   2.792   7.149
 8242WAT      O33687   3.061   1.220   6.132
 8242WAT     H133688   3.005   1.204   6.067
 8242WAT     H233689   3.135   1.241   6.091
 8242WAT    EPW33690   3.064   1.220   6.116
 8243WAT      O33691   3.766   2.851   6.416
 8243WAT     H133692   3.724   2.928   6.422
 8243WAT     H233693   3.702   2.795   6.396
 8243WAT    EPW33694   3.750   2.854   6.414
 8244WAT      O33695   2.890   1.487   6.584
 8244WAT     H133696   2.917   1.552   6.532
 8244WAT     H233697   2.899   1.520   6.664
 8244WAT    EPW33698   2.895   1.502   6.588
 8245WAT      O33699   3.468   2.436   6.416
 8245WAT     H133700   3.529   2.378   6.439
 8245WAT     H233701   3.393   2.394   6.432
 8245WAT    EPW33702   3.466   2.421   6.422
 8246WAT      O33703   2.471   2.496   7.341
 8246WAT     H133704   2.548   2.519   7.307
 8246WAT     H233705   2.459   2.555   7.404
 8246WAT    EPW33706   2.481   2.508   7.346
 8247WAT      O33707   2.464   1.028   6.435
 8247WAT     H133708   2.483   1.110   6.412
 8247WAT     H233709   2.436   0.993   6.360
 8247WAT    EPW33710   2.463   1.035   6.420
 8248WAT      O33711   2.659   2.093   6.768
 8248WAT     H133712   2.685   2.075   6.849
 8248WAT     H233713   2.601   2.030   6.750
 8248WAT    EPW33714   2.654   2.081   6.777
 8249WAT      O33715   3.226   1.456   7.152
 8249WAT     H133716   3.217   1.482   7.235
 8249WAT     H233717   3.163   1.397   7.142
 8249WAT    EPW33718   3.215   1.451   7.163
 8250WAT      O33719   2.768   2.095   7.021
 8250WAT     H133720   2.755   2.181   7.027
 8250WAT     H233721   2.734   2.064   7.094
 8250WAT    EPW33722   2.761   2.103   7.033
 8251WAT      O33723   3.397   2.187   7.033
 8251WAT     H133724   3.322   2.156   7.064
 8251WAT     H233725   3.388   2.274   7.038
 8251WAT    EPW33726   3.385   2.196   7.038
 8252WAT      O33727   3.420   1.074   6.467
 8252WAT     H133728   3.424   1.057   6.552
 8252WAT     H233729   3.455   1.003   6.430
 8252WAT    EPW33730   3.426   1.061   6.474
 8253WAT      O33731   3.613   1.533   7.233
 8253WAT     H133732   3.696   1.506   7.236
 8253WAT     H233733   3.591   1.539   7.317
 8253WAT    EPW33734   3.622   1.530   7.246
 8254WAT      O33735   2.407   1.421   6.573
 8254WAT     H133736   2.435   1.368   6.509
 8254WAT     H233737   2.403   1.369   6.642
 8254WAT    EPW33738   2.410   1.405   6.574
 8255WAT      O33739   3.675   2.226   6.021
 8255WAT     H133740   3.675   2.180   6.096
 8255WAT     H233741   3.760   2.238   6.004
 8255WAT    EPW33742   3.687   2.221   6.030
 8256WAT      O33743   2.465   2.204   6.496
 8256WAT     H133744   2.522   2.170   6.440
 8256WAT     H233745   2.405   2.141   6.505
 8256WAT    EPW33746   2.464   2.190   6.489
 8257WAT      O33747   2.305   2.853   6.648
 8257WAT     H133748   2.229   2.816   6.627
 8257WAT     H233749   2.346   2.862   6.572
 8257WAT    EPW33750   2.300   2.849   6.634
 8258WAT      O33751   2.259   1.549   6.859
 8258WAT     H133752   2.343   1.571   6.855
 8258WAT     H233753   2.217   1.618   6.825
 8258WAT    EPW33754   2.265   1.562   6.853
 8259WAT      O33755   3.914   2.656   7.375
 8259WAT     H133756   3.849   2.657   7.316
 8259WAT     H233757   3.872   2.662   7.451
 8259WAT    EPW33758   3.898   2.657   7.377
 8260WAT      O33759   3.508   1.881   5.935
 8260WAT     H133760   3.501   1.961   5.901
 8260WAT     H233761   3.478   1.890   6.016
 8260WAT    EPW33762   3.502   1.894   5.942
 8261WAT      O33763   2.604   2.132   6.261
 8261WAT     H133764   2.630   2.211   6.236
 8261WAT     H233765   2.665   2.079   6.228
 8261WAT    EPW33766   2.617   2.136   6.253
 8262WAT      O33767   3.773   1.357   5.897
 8262WAT     H133768   3.758   1.291   5.842
 8262WAT     H233769   3.761   1.428   5.847
 8262WAT    EPW33770   3.769   1.358   5.881
 8263WAT      O33771   2.106   2.309   6.657
 8263WAT     H133772   2.056   2.371   6.694
 8263WAT     H233773   2.186   2.345   6.659
 8263WAT    EPW33774   2.110   2.324   6.663
 8264WAT      O33775   3.927   1.773   7.163
 8264WAT     H133776   3.948   1.699   7.122
 8264WAT     H233777   3.842   1.783   7.146
 8264WAT    EPW33778   3.918   1.764   7.154
 8265WAT      O33779   2.134   1.991   6.258
 8265WAT     H133780   2.117   1.905   6.258
 8265WAT     H233781   2.207   1.997   6.210
 8265WAT    EPW33782   2.143   1.979   6.251
 8266WAT      O33783   3.680   1.250   6.141
 8266WAT     H133784   3.757   1.213   6.160
 8266WAT     H233785   3.697   1.296   6.069
 8266WAT    EPW33786   3.694   1.252   6.133
 8267WAT      O33787   3.093   2.580   6.594
 8267WAT     H133788   3.044   2.649   6.571
 8267WAT     H233789   3.123   2.550   6.518
 8267WAT    EPW33790   3.090   2.586   6.579
 8268WAT      O33791   2.048   2.461   6.184
 8268WAT     H133792   2.102   2.517   6.226
 8268WAT     H233793   2.044   2.393   6.239
 8268WAT    EPW33794   2.056   2.459   6.198
 8269WAT      O33795   2.475   2.260   6.889
 8269WAT     H133796   2.531   2.302   6.942
 8269WAT     H233797   2.527   2.211   6.838
 8269WAT    EPW33798   2.491   2.259   6.889
 8270WAT      O33799   3.374   1.505   6.606
 8270WAT     H133800   3.405   1.472   6.681
 8270WAT     H233801   3.310   1.450   6.584
 8270WAT    EPW33802   3.369   1.492   6.614
 8271WAT      O33803   2.061   2.306   5.949
 8271WAT     H133804   2.135   2.260   5.947
 8271WAT     H233805   2.070   2.357   6.020
 8271WAT    EPW33806   2.073   2.307   5.959
 8272WAT      O33807   2.131   2.040   6.723
 8272WAT     H133808   2.182   2.019   6.655
 8272WAT     H233809   2.120   2.126   6.713
 8272WAT    EPW33810   2.137   2.050   6.711
 8273WAT      O33811   2.808   1.462   6.075
 8273WAT     H133812   2.797   1.434   5.993
 8273WAT     H233813   2.773   1.542   6.074
 8273WAT    EPW33814   2.801   1.470   6.063
 8274WAT      O33815   3.662   2.662   7.230
 8274WAT     H133816   3.625   2.740   7.237
 8274WAT     H233817   3.659   2.644   7.145
 8274WAT    EPW33818   3.656   2.671   7.218
 8275WAT      O33819   2.610   2.485   6.520
 8275WAT     H133820   2.613   2.569   6.543
 8275WAT     H233821   2.682   2.451   6.557
 8275WAT    EPW33822   2.621   2.493   6.529
 8276WAT      O33823   2.230   1.709   7.486
 8276WAT     H133824   2.249   1.632   7.523
 8276WAT     H233825   2.275   1.708   7.412
 8276WAT    EPW33826   2.239   1.697   7.481
 8277WAT      O33827   2.415   1.722   6.073
 8277WAT     H133828   2.400   1.656   6.128
 8277WAT     H233829   2.377   1.697   5.999
 8277WAT    EPW33830   2.407   1.709   6.070
 8278WAT      O33831   2.471   1.899   6.729
 8278WAT     H133832   2.463   1.871   6.646
 8278WAT     H233833   2.485   1.825   6.774
 8278WAT    EPW33834   2.472   1.884   6.723
 8279WAT      O33835   2.457   1.870   7.070
 8279WAT     H133836   2.481   1.819   7.004
 8279WAT     H233837   2.402   1.927   7.033
 8279WAT    EPW33838   2.452   1.871   7.055
 8280WAT      O33839   3.516   1.686   6.882
 8280WAT     H133840   3.449   1.709   6.932
 8280WAT     H233841   3.512   1.742   6.815
 8280WAT    EPW33842   3.505   1.697   6.879
 8281WAT      O33843   2.882   2.789   6.981
 8281WAT     H133844   2.840   2.722   6.945
 8281WAT     H233845   2.875   2.852   6.920
 8281WAT    EPW33846   2.875   2.789   6.967
 8282WAT      O33847   3.070   1.228   7.231
 8282WAT     H133848   3.094   1.147   7.208
 8282WAT     H233849   3.102   1.238   7.312
 8282WAT    EPW33850   3.078   1.218   7.239
 8283WAT      O33851   3.320   1.438   6.237
 8283WAT     H133852   3.376   1.504   6.245
 8283WAT     H233853   3.244   1.478   6.222
 8283WAT    EPW33854   3.317   1.454   6.236
 8284WAT      O33855   2.148   1.970   7.577
 8284WAT     H133856   2.194   2.027   7.530
 8284WAT     H233857   2.180   1.893   7.552
 8284WAT    EPW33858   2.159   1.967   7.566
 8285WAT      O33859   3.425   2.272   7.475
 8285WAT     H133860   3.455   2.352   7.456
 8285WAT     H233861   3.456   2.222   7.410
 8285WAT    EPW33862   3.434   2.276   7.463
 8286WAT      O33863   2.821   2.598   7.519
 8286WAT     H133864   2.826   2.589   7.606
 8286WAT     H233865   2.807   2.516   7.491
 8286WAT    EPW33866   2.819   2.584   7.528
 8287WAT      O33867   2.919   1.574   6.844
 8287WAT     H133868   2.982   1.635   6.847
 8287WAT     H233869   2.957   1.503   6.877
 8287WAT    EPW33870   2.934   1.573   6.849
 8288WAT      O33871   3.170   1.887   6.034
 8288WAT     H133872   3.147   1.944   5.972
 8288WAT     H233873   3.113   1.902   6.098
 8288WAT    EPW33874   3.158   1.898   6.034
 8289WAT      O33875   3.638   2.225   6.497
 8289WAT     H133876   3.668   2.171   6.560
 8289WAT     H233877   3.646   2.177   6.425
 8289WAT    EPW33878   3.644   2.210   6.496
 8290WAT      O33879   3.288   2.625   6.800
 8290WAT     H133880   3.226   2.606   6.742
 8290WAT     H233881   3.333   2.689   6.762
 8290WAT    EPW33882   3.286   2.631   6.786
 8291WAT      O33883   3.280   2.267   6.783
 8291WAT     H133884   3.205   2.296   6.815
 8291WAT     H233885   3.313   2.219   6.847
 8291WAT    EPW33886   3.274   2.264   6.797
 8292WAT      O33887   2.657   2.747   6.170
 8292WAT     H133888   2.661   2.672   6.215
 8292WAT     H233889   2.727   2.745   6.119
 8292WAT    EPW33890   2.668   2.736   6.169
 8293WAT      O33891   2.601   1.119   6.005
 8293WAT     H133892   2.609   1.113   6.091
 8293WAT     H233893   2.556   1.193   5.993
 8293WAT    EPW33894   2.595   1.129   6.016
 8294WAT      O33895   2.894   2.734   6.028
 8294WAT     H133896   2.949   2.746   6.095
 8294WAT     H233897   2.896   2.810   5.986
 8294WAT    EPW33898   2.902   2.747   6.032
 8295WAT      O33899   3.520   2.111   7.276
 8295WAT     H133900   3.489   2.133   7.197
 8295WAT     H233901   3.607   2.122   7.267
 8295WAT    EPW33902   3.528   2.116   7.263
 8296WAT      O33903   3.751   1.052   7.523
 8296WAT     H133904   3.688   1.061   7.463
 8296WAT     H233905   3.707   1.053   7.598
 8296WAT    EPW33906   3.735   1.054   7.525
 8297WAT      O33907   2.385   1.999   6.138
 8297WAT     H133908   2.402   1.914   6.127
 8297WAT     H233909   2.451   2.028   6.186
 8297WAT    EPW33910   2.397   1.991   6.143
 8298WAT      O33911   3.163   2.091   7.135
 8298WAT     H133912   3.109   2.135   7.188
 8298WAT     H233913   3.188   2.023   7.184
 8298WAT    EPW33914   3.159   2.087   7.150
 8299WAT      O33915   2.043   1.114   6.222
 8299WAT     H133916   2.042   1.058   6.155
 8299WAT     H233917   2.011   1.067   6.288
 8299WAT    EPW33918   2.038   1.099   6.222
 8300WAT      O33919   3.015   1.920   6.266
 8300WAT     H133920   3.021   1.986   6.323
 8300WAT     H233921   3.004   1.850   6.318
 8300WAT    EPW33922   3.014   1.920   6.282
 8301WAT      O33923   3.545   2.381   6.795
 8301WAT     H133924   3.583   2.368   6.717
 8301WAT     H233925   3.462   2.360   6.780
 8301WAT    EPW33926   3.538   2.376   6.781
 8302WAT      O33927   2.472   1.357   5.947
 8302WAT     H133928   2.410   1.352   5.886
 8302WAT     H233929   2.539   1.395   5.906
 8302WAT    EPW33930   2.473   1.362   5.932
 8303WAT      O33931   2.914   2.157   6.685
 8303WAT     H133932   2.832   2.133   6.701
 8303WAT     H233933   2.958   2.122   6.752
 8303WAT    EPW33934   2.908   2.148   6.698
 8304WAT      O33935   2.626   2.737   5.774
 8304WAT     H133936   2.640   2.670   5.827
 8304WAT     H233937   2.620   2.805   5.827
 8304WAT    EPW33938   2.627   2.737   5.790
 8305WAT      O33939   2.287   2.063   6.959
 8305WAT     H133940   2.340   2.130   6.943
 8305WAT     H233941   2.245   2.050   6.884
 8305WAT    EPW33942   2.289   2.071   6.946
 8306WAT      O33943   2.619   1.592   6.606
 8306WAT     H133944   2.696   1.553   6.595
 8306WAT     H233945   2.561   1.528   6.594
 8306WAT    EPW33946   2.622   1.577   6.603
 8307WAT      O33947   3.899   2.813   6.009
 8307WAT     H133948   3.964   2.764   5.978
 8307WAT     H233949   3.837   2.755   6.030
 8307WAT    EPW33950   3.900   2.797   6.008
 8308WAT      O33951   2.097   1.715   6.271
 8308WAT     H133952   2.132   1.675   6.340
 8308WAT     H233953   2.109   1.658   6.206
 8308WAT    EPW33954   2.104   1.701   6.272
 8309WAT      O33955   3.641   2.052   6.968
 8309WAT     H133956   3.644   1.981   7.019
 8309WAT     H233957   3.561   2.083   6.980
 8309WAT    EPW33958   3.630   2.046   6.977
 8310WAT      O33959   2.611   1.882   5.819
 8310WAT     H133960   2.588   1.833   5.888
 8310WAT     H233961   2.554   1.859   5.757
 8310WAT    EPW33962   2.599   1.872   5.820
 8311WAT      O33963   2.256   2.161   7.398
 8311WAT     H133964   2.224   2.116   7.331
 8311WAT     H233965   2.227   2.242   7.383
 8311WAT    EPW33966   2.247   2.167   7.386
 8312WAT      O33967   3.730   2.050   6.703
 8312WAT     H133968   3.706   2.056   6.786
 8312WAT     H233969   3.817   2.042   6.708
 8312WAT    EPW33970   3.740   2.050   6.716
 8313WAT      O33971   2.689   1.713   6.044
 8313WAT     H133972   2.717   1.785   6.084
 8313WAT     H233973   2.604   1.708   6.067
 8313WAT    EPW33974   2.680   1.723   6.054
 8314WAT      O33975   3.499   1.476   7.503
 8314WAT     H133976   3.465   1.505   7.578
 8314WAT     H233977   3.456   1.402   7.488
 8314WAT    EPW33978   3.488   1.470   7.512
 8315WAT      O33979   2.082   1.348   6.736
 8315WAT     H133980   2.060   1.382   6.658
 8315WAT     H233981   2.149   1.397   6.761
 8315WAT    EPW33982   2.088   1.360   6.728
 8316WAT      O33983   3.882   2.533   6.781
 8316WAT     H133984   3.906   2.592   6.722
 8316WAT     H233985   3.946   2.537   6.841
 8316WAT    EPW33986   3.895   2.542   6.781
 8317WAT      O33987   3.392   1.875   7.538
 8317WAT     H133988   3.439   1.938   7.577
 8317WAT     H233989   3.312   1.887   7.570
 8317WAT    EPW33990   3.387   1.886   7.549
 8318WAT      O33991   3.651   1.820   7.426
 8318WAT     H133992   3.690   1.894   7.454
 8318WAT     H233993   3.571   1.825   7.459
 8318WAT    EPW33994   3.645   1.832   7.435
 8319WAT      O33995   3.536   2.464   5.984
 8319WAT     H133996   3.573   2.387   6.003
 8319WAT     H233997   3.458   2.459   6.022
 8319WAT    EPW33998   3.530   2.452   5.992
 8320WAT      O33999   3.615   1.614   6.519
 8320WAT     H134000   3.547   1.566   6.548
 8320WAT     H234001   3.606   1.690   6.562
 8320WAT    EPW34002   3.603   1.618   6.529
 8321WAT      O34003   3.794   2.174   7.263
 8321WAT     H134004   3.863   2.127   7.237
 8321WAT     H234005   3.787   2.235   7.201
 8321WAT    EPW34006   3.803   2.176   7.250
 8322WAT      O34007   3.239   2.234   5.931
 8322WAT     H134008   3.317   2.195   5.922
 8322WAT     H234009   3.215   2.250   5.849
 8322WAT    EPW34010   3.247   2.230   5.917
 8323WAT      O34011   2.710   2.370   7.012
 8323WAT     H134012   2.709   2.415   7.087
 8323WAT     H234013   2.717   2.432   6.951
 8323WAT    EPW34014   2.711   2.386   7.014
 8324WAT      O34015   2.526   2.226   7.374
 8324WAT     H134016   2.448   2.193   7.393
 8324WAT     H234017   2.509   2.310   7.357
 8324WAT    EPW34018   2.512   2.233   7.374
 8325WAT      O34019   3.463   1.303   7.184
 8325WAT     H134020   3.515   1.373   7.189
 8325WAT     H234021   3.384   1.338   7.167
 8325WAT    EPW34022   3.459   1.319   7.182
 8326WAT      O34023   3.012   2.017   6.913
 8326WAT     H134024   3.067   2.046   6.975
 8326WAT     H234025   2.933   2.030   6.949
 8326WAT    EPW34026   3.008   2.023   6.928
 8327WAT      O34027   2.649   1.578   7.306
 8327WAT     H134028   2.672   1.500   7.337
 8327WAT     H234029   2.678   1.576   7.224
 8327WAT    EPW34030   2.656   1.566   7.298
 8328WAT      O34031   2.917   2.783   6.495
 8328WAT     H134032   2.925   2.867   6.514
 8328WAT     H234033   2.929   2.780   6.409
 8328WAT    EPW34034   2.920   2.795   6.485
 8329WAT      O34035   3.548   1.101   7.007
 8329WAT     H134036   3.515   1.171   7.046
 8329WAT     H234037   3.632   1.102   7.031
 8329WAT    EPW34038   3.556   1.111   7.016
 8330WAT      O34039   2.802   1.166   7.170
 8330WAT     H134040   2.884   1.195   7.179
 8330WAT     H234041   2.812   1.090   7.128
 8330WAT    EPW34042   2.815   1.159   7.165
 8331WAT      O34043   2.742   2.586   6.840
 8331WAT     H134044   2.678   2.627   6.798
 8331WAT     H234045   2.785   2.544   6.777
 8331WAT    EPW34046   2.739   2.586   6.825
 8332WAT      O34047   3.159   2.226   7.529
 8332WAT     H134048   3.243   2.234   7.508
 8332WAT     H234049   3.118   2.233   7.451
 8332WAT    EPW34050   3.165   2.228   7.514
 8333WAT      O34051   3.477   2.543   7.412
 8333WAT     H134052   3.484   2.608   7.470
 8333WAT     H234053   3.532   2.567   7.349
 8333WAT    EPW34054   3.486   2.556   7.411
 8334WAT      O34055   3.763   1.776   5.923
 8334WAT     H134056   3.814   1.823   5.871
 8334WAT     H234057   3.684   1.812   5.913
 8334WAT    EPW34058   3.759   1.788   5.914
 8335WAT      O34059   2.837   2.033   5.870
 8335WAT     H134060   2.769   1.988   5.839
 8335WAT     H234061   2.807   2.115   5.874
 8335WAT    EPW34062   2.823   2.038   5.866
 8336WAT      O34063   2.522   1.661   6.859
 8336WAT     H134064   2.557   1.635   6.783
 8336WAT     H234065   2.579   1.634   6.918
 8336WAT    EPW34066   2.536   1.653   6.856
 8337WAT      O34067   3.221   1.543   7.417
 8337WAT     H134068   3.165   1.610   7.429
 8337WAT     H234069   3.299   1.580   7.427
 8337WAT    EPW34070   3.224   1.558   7.420
 8338WAT      O34071   3.289   1.709   7.043
 8338WAT     H134072   3.287   1.759   7.114
 8338WAT     H234073   3.270   1.630   7.073
 8338WAT    EPW34074   3.286   1.705   7.058
 8339WAT      O34075   3.000   2.806   7.436
 8339WAT     H134076   3.018   2.796   7.352
 8339WAT     H234077   2.962   2.730   7.458
 8339WAT    EPW34078   2.997   2.793   7.427
 8340WAT      O34079   3.498   1.660   6.271
 8340WAT     H134080   3.524   1.641   6.353
 8340WAT     H234081   3.570   1.690   6.233
 8340WAT    EPW34082   3.513   1.661   6.278
 8341WAT      O34083   2.827   1.156   6.807
 8341WAT     H134084   2.745   1.140   6.829
 8341WAT     H234085   2.824   1.164   6.720
 8341WAT    EPW34086   2.815   1.155   6.797
 8342WAT      O34087   3.639   1.245   6.421
 8342WAT     H134088   3.562   1.210   6.439
 8342WAT     H234089   3.635   1.262   6.336
 8342WAT    EPW34090   3.627   1.242   6.411
 8343WAT      O34091   3.636   2.066   6.252
 8343WAT     H134092   3.685   1.994   6.246
 8343WAT     H234093   3.554   2.036   6.242
 8343WAT    EPW34094   3.631   2.051   6.250
 8344WAT      O34095   3.003   2.259   7.298
 8344WAT     H134096   2.928   2.261   7.343
 8344WAT     H234097   3.009   2.341   7.267
 8344WAT    EPW34098   2.993   2.272   7.300
 8345WAT      O34099   2.072   1.245   7.481
 8345WAT     H134100   2.042   1.298   7.418
 8345WAT     H234101   2.000   1.203   7.508
 8345WAT    EPW34102   2.057   1.247   7.476
 8346WAT      O34103   2.579   2.889   6.894
 8346WAT     H134104   2.580   2.859   6.976
 8346WAT     H234105   2.544   2.823   6.849
 8346WAT    EPW34106   2.574   2.875   6.900
 8347WAT      O34107   2.388   1.468   6.192
 8347WAT     H134108   2.400   1.432   6.114
 8347WAT     H234109   2.307   1.444   6.213
 8347WAT    EPW34110   2.378   1.459   6.184
 8348WAT      O34111   3.277   2.230   6.506
 8348WAT     H134112   3.276   2.245   6.592
 8348WAT     H234113   3.315   2.151   6.499
 8348WAT    EPW34114   3.283   2.221   6.518
 8349WAT      O34115   3.025   2.144   6.433
 8349WAT     H134116   2.986   2.140   6.511
 8349WAT     H234117   3.105   2.173   6.452
 8349WAT    EPW34118   3.031   2.148   6.447
 8350WAT      O34119   3.009   2.537   7.242
 8350WAT     H134120   3.063   2.532   7.311
 8350WAT     H234121   3.036   2.610   7.201
 8350WAT    EPW34122   3.021   2.547   7.246
 8351WAT      O34123   3.850   1.624   7.470
 8351WAT     H134124   3.794   1.689   7.455
 8351WAT     H234125   3.928   1.664   7.472
 8351WAT    EPW34126   3.853   1.639   7.468
 8352WAT      O34127   3.263   1.871   7.273
 8352WAT     H134128   3.198   1.840   7.321
 8352WAT     H234129   3.325   1.890   7.331
 8352WAT    EPW34130   3.263   1.869   7.288
 8353WAT      O34131   2.212   2.862   7.403
 8353WAT     H134132   2.154   2.797   7.396
 8353WAT     H234133   2.165   2.929   7.433
 8353WAT    EPW34134   2.197   2.862   7.407
 8354WAT      O34135   3.137   1.966   7.629
 8354WAT     H134136   3.142   2.049   7.600
 8354WAT     H234137   3.114   1.975   7.712
 8354WAT    EPW34138   3.135   1.980   7.637
 8355WAT      O34139   3.418   2.871   6.743
 8355WAT     H134140   3.359   2.931   6.768
 8355WAT     H234141   3.481   2.879   6.802
 8355WAT    EPW34142   3.418   2.881   6.755
 8356WAT      O34143   3.062   2.362   6.935
 8356WAT     H134144   2.983   2.367   6.972
 8356WAT     H234145   3.115   2.399   6.993
 8356WAT    EPW34146   3.058   2.368   6.949
 8357WAT      O34147   2.386   1.672   7.254
 8357WAT     H134148   2.406   1.740   7.203
 8357WAT     H234149   2.464   1.641   7.278
 8357WAT    EPW34150   2.401   1.678   7.250
 8358WAT      O34151   2.197   1.515   7.125
 8358WAT     H134152   2.213   1.525   7.040
 8358WAT     H234153   2.253   1.569   7.164
 8358WAT    EPW34154   2.207   1.524   7.118
 8359WAT      O34155   3.726   1.802   6.197
 8359WAT     H134156   3.744   1.800   6.111
 8359WAT     H234157   3.796   1.766   6.233
 8359WAT    EPW34158   3.739   1.796   6.189
 8360WAT      O34159   2.432   1.248   7.411
 8360WAT     H134160   2.389   1.173   7.425
 8360WAT     H234161   2.411   1.268   7.329
 8360WAT    EPW34162   2.422   1.240   7.401
 8361WAT      O34163   3.143   2.505   6.322
 8361WAT     H134164   3.121   2.585   6.295
 8361WAT     H234165   3.071   2.459   6.312
 8361WAT    EPW34166   3.129   2.510   6.317
 8362WAT      O34167   3.650   1.819   7.145
 8362WAT     H134168   3.625   1.736   7.136
 8362WAT     H234169   3.645   1.833   7.231
 8362WAT    EPW34170   3.645   1.809   7.156
 8363WAT      O34171   2.137   2.026   7.190
 8363WAT     H134172   2.178   2.041   7.114
 8363WAT     H234173   2.113   1.943   7.184
 8363WAT    EPW34174   2.139   2.016   7.178
 8364WAT      O34175   2.287   1.622   5.838
 8364WAT     H134176   2.215   1.619   5.887
 8364WAT     H234177   2.290   1.543   5.801
 8364WAT    EPW34178   2.277   1.610   5.840
 8365WAT      O34179   3.178   1.274   7.486
 8365WAT     H134180   3.185   1.361   7.474
 8365WAT     H234181   3.100   1.265   7.524
 8365WAT    EPW34182   3.167   1.286   7.490
 8366WAT      O34183   3.146   1.343   6.585
 8366WAT     H134184   3.068   1.383   6.584
 8366WAT     H234185   3.139   1.281   6.525
 8366WAT    EPW34186   3.133   1.340   6.576
 8367WAT      O34187   2.617   2.512   5.969
 8367WAT     H134188   2.650   2.512   6.049
 8367WAT     H234189   2.532   2.495   5.981
 8367WAT    EPW34190   2.609   2.509   5.982
 8368WAT      O34191   3.474   1.411   6.848
 8368WAT     H134192   3.554   1.378   6.858
 8368WAT     H234193   3.484   1.495   6.872
 8368WAT    EPW34194   3.487   1.419   6.853
 8369WAT      O34195   2.638   2.000   7.244
 8369WAT     H134196   2.598   2.066   7.283
 8369WAT     H234197   2.575   1.961   7.198
 8369WAT    EPW34198   2.623   2.004   7.243
 8370WAT      O34199   3.545   1.850   6.652
 8370WAT     H134200   3.608   1.910   6.665
 8370WAT     H234201   3.488   1.890   6.600
 8370WAT    EPW34202   3.546   1.865   6.646
 8371WAT      O34203   3.543   2.694   6.324
 8371WAT     H134204   3.514   2.619   6.359
 8371WAT     H234205   3.599   2.667   6.262
 8371WAT    EPW34206   3.547   2.679   6.320
 8372WAT      O34207   2.360   2.427   6.038
 8372WAT     H134208   2.357   2.409   6.123
 8372WAT     H234209   2.371   2.349   6.001
 8372WAT    EPW34210   2.361   2.413   6.045
 8373WAT      O34211   2.670   2.262   5.856
 8373WAT     H134212   2.591   2.227   5.869
 8373WAT     H234213   2.662   2.342   5.890
 8373WAT    EPW34214   2.657   2.269   5.863
 8374WAT      O34215   2.619   1.326   7.030
 8374WAT     H134216   2.540   1.309   7.062
 8374WAT     H234217   2.671   1.269   7.070
 8374WAT    EPW34218   2.615   1.315   7.041
 8375WAT      O34219   3.806   1.191   7.118
 8375WAT     H134220   3.817   1.255   7.176
 8375WAT     H234221   3.884   1.152   7.115
 8375WAT    EPW34222   3.819   1.195   7.126
 8376WAT      O34223   3.012   1.330   6.928
 8376WAT     H134224   2.952   1.275   6.895
 8376WAT     H234225   3.088   1.294   6.905
 8376WAT    EPW34226   3.014   1.317   6.919
 8377WAT      O34227   3.317   2.459   7.034
 8377WAT     H134228   3.336   2.529   7.081
 8377WAT     H234229   3.315   2.489   6.952
 8377WAT    EPW34230   3.319   2.473   7.029
 8378WAT      O34231   3.286   2.865   7.473
 8378WAT     H134232   3.211   2.820   7.475
 8378WAT     H234233   3.261   2.948   7.487
 8378WAT    EPW34234   3.271   2.871   7.475
 8379WAT      O34235   2.800   1.805   7.372
 8379WAT     H134236   2.752   1.734   7.361
 8379WAT     H234237   2.753   1.869   7.334
 8379WAT    EPW34238   2.786   1.804   7.365
 8380WAT      O34239   2.871   1.150   5.944
 8380WAT     H134240   2.880   1.158   5.858
 8380WAT     H234241   2.784   1.150   5.956
 8380WAT    EPW34242   2.859   1.151   5.933
 8381WAT      O34243   3.768   2.304   7.013
 8381WAT     H134244   3.738   2.225   6.990
 8381WAT     H234245   3.714   2.359   6.972
 8381WAT    EPW34246   3.755   2.301   7.004
 8382WAT      O34247   2.652   2.810   7.419
 8382WAT     H134248   2.695   2.884   7.434
 8382WAT     H234249   2.708   2.748   7.446
 8382WAT    EPW34250   2.667   2.811   7.425
 8383WAT      O34251   3.657   2.588   6.950
 8383WAT     H134252   3.729   2.588   6.901
 8383WAT     H234253   3.600   2.540   6.905
 8383WAT    EPW34254   3.659   2.581   6.936
 8384WAT      O34255   2.365   1.294   7.149
 8384WAT     H134256   2.312   1.228   7.128
 8384WAT     H234257   2.316   1.365   7.138
 8384WAT    EPW34258   2.350   1.295   7.144
 8385WAT      O34259   3.253   1.238   6.820
 8385WAT     H134260   3.318   1.293   6.840
 8385WAT     H234261   3.221   1.270   6.746
 8385WAT    EPW34262   3.258   1.251   6.812
 8386WAT      O34263   2.416   2.702   7.517
 8386WAT     H134264   2.488   2.748   7.500
 8386WAT     H234265   2.351   2.754   7.489
 8386WAT    EPW34266   2.417   2.716   7.511
 8387WAT      O34267   3.218   1.736   6.576
 8387WAT     H134268   3.273   1.669   6.588
 8387WAT     H234269   3.187   1.751   6.656
 8387WAT    EPW34270   3.222   1.728   6.590
 8388WAT      O34271   2.224   1.627   6.506
 8388WAT     H134272   2.180   1.653   6.577
 8388WAT     H234273   2.263   1.554   6.532
 8388WAT    EPW34274   2.223   1.620   6.521
 8389WAT      O34275   2.200   2.428   7.308
 8389WAT     H134276   2.151   2.495   7.337
 8389WAT     H234277   2.281   2.459   7.314
 8389WAT    EPW34278   2.204   2.443   7.313
 8390WAT      O34279   3.396   1.907   6.200
 8390WAT     H134280   3.417   1.826   6.221
 8390WAT     H234281   3.321   1.899   6.155
 8390WAT    EPW34282   3.388   1.894   6.196
 8391WAT      O34283   2.378   2.763   6.163
 8391WAT     H134284   2.343   2.750   6.084
 8391WAT     H234285   2.463   2.751   6.150
 8391WAT    EPW34286   2.385   2.759   6.149
 8392WAT      O34287   2.778   1.959   6.132
 8392WAT     H134288   2.804   1.990   6.055
 8392WAT     H234289   2.853   1.949   6.176
 8392WAT    EPW34290   2.793   1.962   6.127
 8393WAT      O34291   3.594   2.832   5.854
 8393WAT     H134292   3.646   2.886   5.808
 8393WAT     H234293   3.613   2.753   5.822
 8393WAT    EPW34294   3.605   2.829   5.842
 8394WAT      O34295   3.774   2.051   7.518
 8394WAT     H134296   3.855   2.028   7.543
 8394WAT     H234297   3.788   2.102   7.448
 8394WAT    EPW34298   3.788   2.055   7.511
 8395WAT      O34299   3.262   2.473   6.067
 8395WAT     H134300   3.240   2.466   6.151
 8395WAT     H234301   3.254   2.391   6.036
 8395WAT    EPW34302   3.258   2.460   6.075
 8396WAT      O34303   3.736   1.446   7.659
 8396WAT     H134304   3.789   1.503   7.621
 8396WAT     H234305   3.666   1.444   7.607
 8396WAT    EPW34306   3.733   1.454   7.646
 8397WAT      O34307   3.791   1.633   6.913
 8397WAT     H134308   3.708   1.660   6.908
 8397WAT     H234309   3.784   1.546   6.913
 8397WAT    EPW34310   3.778   1.624   6.912
 8398WAT      O34311   2.705   1.307   7.392
 8398WAT     H134312   2.726   1.264   7.319
 8398WAT     H234313   2.622   1.285   7.405
 8398WAT    EPW34314   2.696   1.297   7.383
 8399WAT      O34315   3.531   2.082   7.654
 8399WAT     H134316   3.614   2.077   7.626
 8399WAT     H234317   3.500   2.152   7.612
 8399WAT    EPW34318   3.539   2.092   7.644
 8400WAT      O34319   2.429   2.663   6.800
 8400WAT     H134320   2.413   2.585   6.764
 8400WAT     H234321   2.389   2.719   6.748
 8400WAT    EPW34322   2.421   2.660   6.787
 8401WAT      O34323   2.973   2.271   6.019
 8401WAT     H134324   3.052   2.239   6.000
 8401WAT     H234325   2.968   2.344   5.972
 8401WAT    EPW34326   2.984   2.277   6.009
 8402WAT      O34327   2.178   2.916   7.132
 8402WAT     H134328   2.190   2.898   7.217
 8402WAT     H234329   2.211   2.846   7.092
 8402WAT    EPW34330   2.184   2.903   7.139
 8403WAT      O34331   3.203   1.121   4.478
 8403WAT     H134332   3.227   1.164   4.406
 8403WAT     H234333   3.279   1.095   4.513
 8403WAT    EPW34334   3.218   1.124   4.473
 8404WAT      O34335   3.191   1.866   4.910
 8404WAT     H134336   3.259   1.901   4.868
 8404WAT     H234337   3.229   1.821   4.975
 8404WAT    EPW34338   3.207   1.864   4.914
 8405WAT      O34339   2.099   2.248   4.470
 8405WAT     H134340   2.071   2.258   4.552
 8405WAT     H234341   2.092   2.162   4.456
 8405WAT    EPW34342   2.094   2.237   4.480
 8406WAT      O34343   2.077   1.594   4.111
 8406WAT     H134344   2.012   1.641   4.079
 8406WAT     H234345   2.046   1.513   4.111
 8406WAT    EPW34346   2.063   1.589   4.107
 8407WAT      O34347   2.330   2.179   4.058
 8407WAT     H134348   2.317   2.136   3.983
 8407WAT     H234349   2.346   2.116   4.116
 8407WAT    EPW34350   2.330   2.163   4.056
 8408WAT      O34351   3.336   1.933   4.653
 8408WAT     H134352   3.348   1.962   4.572
 8408WAT     H234353   3.293   1.858   4.643
 8408WAT    EPW34354   3.331   1.926   4.640
 8409WAT      O34355   2.339   2.373   4.417
 8409WAT     H134356   2.400   2.336   4.468
 8409WAT     H234357   2.267   2.328   4.435
 8409WAT    EPW34358   2.338   2.361   4.427
 8410WAT      O34359   2.789   1.319   4.374
 8410WAT     H134360   2.773   1.399   4.342
 8410WAT     H234361   2.855   1.290   4.326
 8410WAT    EPW34362   2.796   1.327   4.362
 8411WAT      O34363   2.210   2.655   4.034
 8411WAT     H134364   2.257   2.667   3.961
 8411WAT     H234365   2.247   2.585   4.070
 8411WAT    EPW34366   2.223   2.647   4.029
 8412WAT      O34367   2.059   2.441   5.100
 8412WAT     H134368   2.076   2.437   5.185
 8412WAT     H234369   1.991   2.387   5.089
 8412WAT    EPW34370   2.052   2.433   5.111
 8413WAT      O34371   2.765   2.301   5.594
 8413WAT     H134372   2.739   2.285   5.676
 8413WAT     H234373   2.695   2.280   5.546
 8413WAT    EPW34374   2.751   2.296   5.599
 8414WAT      O34375   2.327   1.987   4.627
 8414WAT     H134376   2.264   1.997   4.567
 8414WAT     H234377   2.373   1.920   4.597
 8414WAT    EPW34378   2.324   1.979   4.613
 8415WAT      O34379   2.713   1.575   5.120
 8415WAT     H134380   2.789   1.573   5.077
 8415WAT     H234381   2.692   1.491   5.129
 8415WAT    EPW34382   2.721   1.562   5.115
 8416WAT      O34383   2.828   2.642   5.320
 8416WAT     H134384   2.837   2.673   5.239
 8416WAT     H234385   2.898   2.589   5.329
 8416WAT    EPW34386   2.840   2.638   5.309
 8417WAT      O34387   2.454   1.776   4.512
 8417WAT     H134388   2.515   1.738   4.562
 8417WAT     H234389   2.384   1.726   4.524
 8417WAT    EPW34390   2.453   1.763   4.521
 8418WAT      O34391   2.869   2.464   4.702
 8418WAT     H134392   2.890   2.380   4.712
 8418WAT     H234393   2.944   2.501   4.677
 8418WAT    EPW34394   2.883   2.457   4.700
 8419WAT      O34395   2.902   2.322   4.341
 8419WAT     H134396   2.960   2.296   4.401
 8419WAT     H234397   2.934   2.291   4.266
 8419WAT    EPW34398   2.915   2.313   4.339
 8420WAT      O34399   3.043   1.813   5.555
 8420WAT     H134400   2.958   1.812   5.539
 8420WAT     H234401   3.051   1.869   5.622
 8420WAT    EPW34402   3.032   1.821   5.563
 8421WAT      O34403   2.519   1.287   4.455
 8421WAT     H134404   2.478   1.343   4.402
 8421WAT     H234405   2.603   1.295   4.433
 8421WAT    EPW34406   2.525   1.296   4.444
 8422WAT      O34407   3.522   1.088   5.502
 8422WAT     H134408   3.493   1.147   5.445
 8422WAT     H234409   3.449   1.061   5.542
 8422WAT    EPW34410   3.507   1.092   5.500
 8423WAT      O34411   2.870   1.254   4.645
 8423WAT     H134412   2.868   1.337   4.674
 8423WAT     H234413   2.844   1.261   4.562
 8423WAT    EPW34414   2.866   1.268   4.637
 8424WAT      O34415   3.328   1.517   3.987
 8424WAT     H134416   3.271   1.580   4.004
 8424WAT     H234417   3.280   1.454   3.951
 8424WAT    EPW34418   3.313   1.517   3.984
 8425WAT      O34419   2.099   1.734   4.843
 8425WAT     H134420   2.093   1.820   4.855
 8425WAT     H234421   2.033   1.702   4.890
 8425WAT    EPW34422   2.088   1.742   4.852
 8426WAT      O34423   2.109   2.719   4.671
 8426WAT     H134424   2.039   2.764   4.644
 8426WAT     H234425   2.135   2.676   4.600
 8426WAT    EPW34426   2.102   2.719   4.656
 8427WAT      O34427   2.731   2.545   4.308
 8427WAT     H134428   2.694   2.544   4.387
 8427WAT     H234429   2.792   2.484   4.314
 8427WAT    EPW34430   2.734   2.536   4.321
 8428WAT      O34431   2.370   1.249   4.882
 8428WAT     H134432   2.337   1.177   4.844
 8428WAT     H234433   2.433   1.217   4.934
 8428WAT    EPW34434   2.375   1.233   4.884
 8429WAT      O34435   2.702   1.442   5.803
 8429WAT     H134436   2.703   1.407   5.723
 8429WAT     H234437   2.744   1.518   5.793
 8429WAT    EPW34438   2.709   1.448   5.790
 8430WAT      O34439   2.212   2.617   4.434
 8430WAT     H134440   2.266   2.549   4.444
 8430WAT     H234441   2.259   2.674   4.388
 8430WAT    EPW34442   2.227   2.615   4.428
 8431WAT      O34443   3.840   1.440   4.596
 8431WAT     H134444   3.786   1.507   4.607
 8431WAT     H234445   3.786   1.371   4.590
 8431WAT    EPW34446   3.824   1.440   4.597
 8432WAT      O34447   2.284   1.359   5.737
 8432WAT     H134448   2.204   1.332   5.717
 8432WAT     H234449   2.333   1.328   5.671
 8432WAT    EPW34450   2.280   1.350   5.724
 8433WAT      O34451   2.374   2.391   4.788
 8433WAT     H134452   2.421   2.352   4.726
 8433WAT     H234453   2.400   2.352   4.862
 8433WAT    EPW34454   2.385   2.380   4.790
 8434WAT      O34455   2.725   2.822   4.620
 8434WAT     H134456   2.804   2.828   4.583
 8434WAT     H234457   2.739   2.852   4.701
 8434WAT    EPW34458   2.739   2.828   4.626
 8435WAT      O34459   2.890   1.168   5.672
 8435WAT     H134460   2.900   1.098   5.621
 8435WAT     H234461   2.826   1.213   5.632
 8435WAT    EPW34462   2.882   1.165   5.658
 8436WAT      O34463   2.996   1.702   4.495
 8436WAT     H134464   3.017   1.653   4.426
 8436WAT     H234465   3.067   1.696   4.546
 8436WAT    EPW34466   3.010   1.694   4.492
 8437WAT      O34467   3.129   1.708   4.029
 8437WAT     H134468   3.153   1.782   4.068
 8437WAT     H234469   3.119   1.731   3.945
 8437WAT    EPW34470   3.131   1.722   4.022
 8438WAT      O34471   2.519   2.860   5.268
 8438WAT     H134472   2.564   2.843   5.341
 8438WAT     H234473   2.471   2.788   5.258
 8438WAT    EPW34474   2.519   2.847   5.278
 8439WAT      O34475   3.766   1.344   5.019
 8439WAT     H134476   3.834   1.335   4.964
 8439WAT     H234477   3.790   1.296   5.088
 8439WAT    EPW34478   3.780   1.335   5.021
 8440WAT      O34479   2.007   1.475   5.457
 8440WAT     H134480   2.000   1.549   5.503
 8440WAT     H234481   2.066   1.495   5.395
 8440WAT    EPW34482   2.015   1.489   5.455
 8441WAT      O34483   3.248   2.530   5.586
 8441WAT     H134484   3.229   2.451   5.617
 8441WAT     H234485   3.328   2.520   5.553
 8441WAT    EPW34486   3.257   2.517   5.586
 8442WAT      O34487   3.272   1.218   4.228
 8442WAT     H134488   3.337   1.181   4.184
 8442WAT     H234489   3.303   1.297   4.249
 8442WAT    EPW34490   3.286   1.224   4.225
 8443WAT      O34491   2.126   1.382   4.375
 8443WAT     H134492   2.104   1.299   4.358
 8443WAT     H234493   2.077   1.402   4.444
 8443WAT    EPW34494   2.116   1.372   4.382
 8444WAT      O34495   2.307   2.713   5.103
 8444WAT     H134496   2.320   2.648   5.159
 8444WAT     H234497   2.334   2.680   5.027
 8444WAT    EPW34498   2.313   2.699   5.100
 8445WAT      O34499   3.049   1.556   4.248
 8445WAT     H134500   3.046   1.472   4.224
 8445WAT     H234501   3.075   1.597   4.175
 8445WAT    EPW34502   3.052   1.549   4.234
 8446WAT      O34503   3.104   2.789   5.238
 8446WAT     H134504   3.171   2.828   5.198
 8446WAT     H234505   3.043   2.782   5.175
 8446WAT    EPW34506   3.105   2.793   5.223
 8447WAT      O34507   3.005   1.287   4.192
 8447WAT     H134508   2.970   1.248   4.122
 8447WAT     H234509   3.087   1.256   4.194
 8447WAT    EPW34510   3.012   1.276   4.181
 8448WAT      O34511   2.862   1.535   4.695
 8448WAT     H134512   2.901   1.587   4.637
 8448WAT     H234513   2.895   1.560   4.771
 8448WAT    EPW34514   2.872   1.546   4.698
 8449WAT      O34515   2.464   1.022   4.522
 8449WAT     H134516   2.482   1.106   4.502
 8449WAT     H234517   2.434   0.989   4.447
 8449WAT    EPW34518   2.463   1.030   4.508
 8450WAT      O34519   2.708   2.153   4.901
 8450WAT     H134520   2.734   2.131   4.982
 8450WAT     H234521   2.657   2.086   4.877
 8450WAT    EPW34522   2.704   2.140   4.910
 8451WAT      O34523   3.236   1.475   5.265
 8451WAT     H134524   3.241   1.514   5.342
 8451WAT     H234525   3.175   1.413   5.277
 8451WAT    EPW34526   3.228   1.472   5.278
 8452WAT      O34527   2.827   2.129   5.149
 8452WAT     H134528   2.800   2.210   5.165
 8452WAT     H234529   2.787   2.082   5.211
 8452WAT    EPW34530   2.817   2.134   5.161
 8453WAT      O34531   3.355   2.146   5.068
 8453WAT     H134532   3.321   2.142   5.149
 8453WAT     H234533   3.366   2.232   5.056
 8453WAT    EPW34534   3.352   2.158   5.078
 8454WAT      O34535   3.445   1.049   4.587
 8454WAT     H134536   3.443   1.023   4.671
 8454WAT     H234537   3.482   0.982   4.545
 8454WAT    EPW34538   3.450   1.036   4.593
 8455WAT      O34539   2.022   2.526   5.771
 8455WAT     H134540   2.085   2.571   5.810
 8455WAT     H234541   2.028   2.446   5.807
 8455WAT    EPW34542   2.032   2.521   5.782
 8456WAT      O34543   2.410   1.425   4.675
 8456WAT     H134544   2.439   1.373   4.612
 8456WAT     H234545   2.401   1.372   4.744
 8456WAT    EPW34546   2.413   1.410   4.676
 8457WAT      O34547   3.658   2.236   3.924
 8457WAT     H134548   3.581   2.275   3.910
 8457WAT     H234549   3.711   2.302   3.944
 8457WAT    EPW34550   3.655   2.252   3.925
 8458WAT      O34551   2.492   2.218   4.588
 8458WAT     H134552   2.554   2.194   4.532
 8458WAT     H234553   2.447   2.144   4.602
 8458WAT    EPW34554   2.495   2.203   4.582
 8459WAT      O34555   2.357   2.841   4.678
 8459WAT     H134556   2.276   2.809   4.677
 8459WAT     H234557   2.348   2.917   4.721
 8459WAT    EPW34558   2.344   2.848   4.684
 8460WAT      O34559   2.275   1.589   5.006
 8460WAT     H134560   2.355   1.618   4.985
 8460WAT     H234561   2.222   1.634   4.953
 8460WAT    EPW34562   2.279   1.600   4.995
 8461WAT      O34563   3.906   2.666   5.424
 8461WAT     H134564   3.831   2.666   5.380
 8461WAT     H234565   3.881   2.659   5.507
 8461WAT    EPW34566   3.892   2.665   5.430
 8462WAT      O34567   3.527   1.998   3.999
 8462WAT     H134568   3.555   2.076   3.971
 8462WAT     H234569   3.543   2.000   4.085
 8462WAT    EPW34570   3.533   2.010   4.008
 8463WAT      O34571   2.672   2.157   4.376
 8463WAT     H134572   2.733   2.218   4.380
 8463WAT     H234573   2.697   2.107   4.308
 8463WAT    EPW34574   2.685   2.158   4.366
 8464WAT      O34575   3.812   1.393   4.049
 8464WAT     H134576   3.852   1.327   4.010
 8464WAT     H234577   3.773   1.436   3.984
 8464WAT    EPW34578   3.812   1.389   4.034
 8465WAT      O34579   2.106   2.306   4.752
 8465WAT     H134580   2.051   2.367   4.781
 8465WAT     H234581   2.185   2.342   4.763
 8465WAT    EPW34582   2.110   2.321   4.758
 8466WAT      O34583   2.838   1.685   5.786
 8466WAT     H134584   2.786   1.724   5.845
 8466WAT     H234585   2.818   1.725   5.711
 8466WAT    EPW34586   2.827   1.697   5.784
 8467WAT      O34587   3.942   1.750   5.243
 8467WAT     H134588   3.992   1.679   5.255
 8467WAT     H234589   3.882   1.723   5.187
 8467WAT    EPW34590   3.941   1.735   5.237
 8468WAT      O34591   2.152   1.979   4.410
 8468WAT     H134592   2.123   1.897   4.404
 8468WAT     H234593   2.215   1.983   4.350
 8468WAT    EPW34594   2.157   1.968   4.401
 8469WAT      O34595   3.674   1.243   4.254
 8469WAT     H134596   3.751   1.206   4.269
 8469WAT     H234597   3.691   1.302   4.191
 8469WAT    EPW34598   3.688   1.247   4.247
 8470WAT      O34599   2.043   2.448   4.289
 8470WAT     H134600   2.094   2.508   4.327
 8470WAT     H234601   2.042   2.383   4.347
 8470WAT    EPW34602   2.051   2.447   4.303
 8471WAT      O34603   2.477   2.266   5.012
 8471WAT     H134604   2.511   2.311   5.078
 8471WAT     H234605   2.547   2.232   4.973
 8471WAT    EPW34606   2.492   2.267   5.016
 8472WAT      O34607   3.382   1.487   4.729
 8472WAT     H134608   3.420   1.458   4.801
 8472WAT     H234609   3.327   1.423   4.707
 8472WAT    EPW34610   3.379   1.473   4.736
 8473WAT      O34611   2.063   2.298   4.053
 8473WAT     H134612   2.136   2.252   4.055
 8473WAT     H234613   2.067   2.348   4.125
 8473WAT    EPW34614   2.074   2.299   4.064
 8474WAT      O34615   2.135   2.041   4.830
 8474WAT     H134616   2.193   2.019   4.770
 8474WAT     H234617   2.121   2.126   4.816
 8474WAT    EPW34618   2.141   2.051   4.819
 8475WAT      O34619   2.772   1.551   4.207
 8475WAT     H134620   2.761   1.505   4.134
 8475WAT     H234621   2.859   1.556   4.215
 8475WAT    EPW34622   2.783   1.545   4.198
 8476WAT      O34623   3.648   2.670   5.283
 8476WAT     H134624   3.644   2.757   5.279
 8476WAT     H234625   3.619   2.645   5.204
 8476WAT    EPW34626   3.643   2.679   5.271
 8477WAT      O34627   2.641   2.559   4.570
 8477WAT     H134628   2.658   2.641   4.592
 8477WAT     H234629   2.704   2.513   4.608
 8477WAT    EPW34630   2.653   2.565   4.579
 8478WAT      O34631   2.396   1.804   5.654
 8478WAT     H134632   2.356   1.743   5.702
 8478WAT     H234633   2.394   1.772   5.573
 8478WAT    EPW34634   2.390   1.790   5.649
 8479WAT      O34635   2.421   1.710   4.158
 8479WAT     H134636   2.407   1.644   4.213
 8479WAT     H234637   2.381   1.683   4.084
 8479WAT    EPW34638   2.413   1.696   4.155
 8480WAT      O34639   2.522   1.960   4.845
 8480WAT     H134640   2.454   1.962   4.790
 8480WAT     H234641   2.521   1.878   4.876
 8480WAT    EPW34642   2.512   1.948   4.842
 8481WAT      O34643   2.462   1.876   5.181
 8481WAT     H134644   2.483   1.827   5.113
 8481WAT     H234645   2.406   1.934   5.148
 8481WAT    EPW34646   2.456   1.878   5.166
 8482WAT      O34647   3.517   1.663   5.003
 8482WAT     H134648   3.450   1.691   5.051
 8482WAT     H234649   3.519   1.718   4.936
 8482WAT    EPW34650   3.508   1.676   5.000
 8483WAT      O34651   2.882   2.751   5.060
 8483WAT     H134652   2.843   2.683   5.020
 8483WAT     H234653   2.861   2.819   5.010
 8483WAT    EPW34654   2.873   2.751   5.047
 8484WAT      O34655   3.082   1.253   5.331
 8484WAT     H134656   3.103   1.173   5.303
 8484WAT     H234657   3.108   1.252   5.414
 8484WAT    EPW34658   3.089   1.241   5.339
 8485WAT      O34659   3.309   1.469   4.340
 8485WAT     H134660   3.371   1.531   4.344
 8485WAT     H234661   3.238   1.513   4.318
 8485WAT    EPW34662   3.308   1.485   4.337
 8486WAT      O34663   2.271   2.039   5.727
 8486WAT     H134664   2.265   2.087   5.655
 8486WAT     H234665   2.316   1.969   5.701
 8486WAT    EPW34666   2.277   2.036   5.713
 8487WAT      O34667   3.449   2.249   5.567
 8487WAT     H134668   3.479   2.329   5.550
 8487WAT     H234669   3.472   2.203   5.496
 8487WAT    EPW34670   3.457   2.254   5.554
 8488WAT      O34671   2.920   2.543   5.628
 8488WAT     H134672   2.947   2.527   5.709
 8488WAT     H234673   2.861   2.481   5.614
 8488WAT    EPW34674   2.915   2.532   5.638
 8489WAT      O34675   2.951   1.577   4.964
 8489WAT     H134676   3.016   1.624   5.000
 8489WAT     H234677   2.980   1.495   4.969
 8489WAT    EPW34678   2.965   1.572   4.970
 8490WAT      O34679   3.189   1.943   4.162
 8490WAT     H134680   3.177   2.008   4.106
 8490WAT     H234681   3.131   1.959   4.225
 8490WAT    EPW34682   3.179   1.955   4.163
 8491WAT      O34683   3.261   2.389   4.796
 8491WAT     H134684   3.273   2.388   4.710
 8491WAT     H234685   3.336   2.421   4.828
 8491WAT    EPW34686   3.274   2.394   4.788
 8492WAT      O34687   2.640   2.814   4.271
 8492WAT     H134688   2.689   2.741   4.272
 8492WAT     H234689   2.668   2.856   4.200
 8492WAT    EPW34690   2.651   2.809   4.261
 8493WAT      O34691   2.596   1.111   4.080
 8493WAT     H134692   2.601   1.090   4.165
 8493WAT     H234693   2.547   1.183   4.079
 8493WAT    EPW34694   2.590   1.119   4.092
 8494WAT      O34695   3.562   2.170   5.324
 8494WAT     H134696   3.562   2.136   5.243
 8494WAT     H234697   3.646   2.177   5.343
 8494WAT    EPW34698   3.574   2.166   5.315
 8495WAT      O34699   3.707   1.170   5.693
 8495WAT     H134700   3.645   1.160   5.633
 8495WAT     H234701   3.696   1.101   5.745
 8495WAT    EPW34702   3.697   1.158   5.692
 8496WAT      O34703   2.379   1.974   4.248
 8496WAT     H134704   2.383   1.891   4.221
 8496WAT     H234705   2.437   1.977   4.313
 8496WAT    EPW34706   2.389   1.962   4.254
 8497WAT      O34707   3.168   2.105   5.277
 8497WAT     H134708   3.114   2.141   5.336
 8497WAT     H234709   3.196   2.033   5.317
 8497WAT    EPW34710   3.164   2.100   5.292
 8498WAT      O34711   2.039   1.114   4.323
 8498WAT     H134712   2.040   1.058   4.256
 8498WAT     H234713   2.007   1.067   4.389
 8498WAT    EPW34714   2.035   1.099   4.323
 8499WAT      O34715   3.016   1.973   4.377
 8499WAT     H134716   3.043   2.035   4.433
 8499WAT     H234717   3.009   1.902   4.428
 8499WAT    EPW34718   3.019   1.971   4.393
 8500WAT      O34719   2.455   1.348   4.052
 8500WAT     H134720   2.398   1.344   3.986
 8500WAT     H234721   2.519   1.398   4.020
 8500WAT    EPW34722   2.456   1.355   4.038
 8501WAT      O34723   2.955   2.216   4.797
 8501WAT     H134724   2.874   2.195   4.821
 8501WAT     H234725   2.980   2.274   4.857
 8501WAT    EPW34726   2.947   2.221   4.809
 8502WAT      O34727   2.603   2.755   3.874
 8502WAT     H134728   2.614   2.687   3.928
 8502WAT     H234729   2.629   2.823   3.921
 8502WAT    EPW34730   2.608   2.755   3.889
 8503WAT      O34731   2.287   2.066   5.069
 8503WAT     H134732   2.341   2.132   5.053
 8503WAT     H234733   2.239   2.060   4.997
 8503WAT    EPW34734   2.288   2.075   5.056
 8504WAT      O34735   2.597   1.625   4.703
 8504WAT     H134736   2.678   1.593   4.696
 8504WAT     H234737   2.546   1.555   4.693
 8504WAT    EPW34738   2.601   1.610   4.700
 8505WAT      O34739   2.090   1.709   4.375
 8505WAT     H134740   2.126   1.668   4.443
 8505WAT     H234741   2.105   1.655   4.308
 8505WAT    EPW34742   2.097   1.695   4.376
 8506WAT      O34743   3.627   2.057   5.065
 8506WAT     H134744   3.626   1.985   5.113
 8506WAT     H234745   3.542   2.071   5.046
 8506WAT    EPW34746   3.614   2.049   5.069
 8507WAT      O34747   2.571   1.907   3.895
 8507WAT     H134748   2.616   1.970   3.855
 8507WAT     H234749   2.518   1.877   3.833
 8507WAT    EPW34750   2.570   1.912   3.880
 8508WAT      O34751   2.257   2.182   5.493
 8508WAT     H134752   2.220   2.133   5.432
 8508WAT     H234753   2.220   2.261   5.481
 8508WAT    EPW34754   2.246   2.187   5.482
 8509WAT      O34755   3.784   1.977   4.837
 8509WAT     H134756   3.750   2.007   4.911
 8509WAT     H234757   3.806   2.050   4.793
 8509WAT    EPW34758   3.782   1.992   4.841
 8510WAT      O34759   3.483   1.558   5.663
 8510WAT     H134760   3.420   1.504   5.690
 8510WAT     H234761   3.501   1.529   5.583
 8510WAT    EPW34762   3.477   1.545   5.655
 8511WAT      O34763   2.069   1.340   4.846
 8511WAT     H134764   2.053   1.371   4.766
 8511WAT     H234765   2.156   1.348   4.854
 8511WAT    EPW34766   2.080   1.346   4.835
 8512WAT      O34767   3.336   1.839   5.712
 8512WAT     H134768   3.380   1.824   5.786
 8512WAT     H234769   3.263   1.879   5.739
 8512WAT    EPW34770   3.332   1.843   5.727
 8513WAT      O34771   3.516   1.909   5.512
 8513WAT     H134772   3.576   1.960   5.549
 8513WAT     H234773   3.468   1.881   5.579
 8513WAT    EPW34774   3.518   1.912   5.527
 8514WAT      O34775   3.608   1.610   4.616
 8514WAT     H134776   3.544   1.558   4.644
 8514WAT     H234777   3.603   1.680   4.669
 8514WAT    EPW34778   3.598   1.613   4.628
 8515WAT      O34779   3.960   1.842   5.737
 8515WAT     H134780   3.926   1.817   5.661
 8515WAT     H234781   4.017   1.778   5.756
 8515WAT    EPW34782   3.963   1.829   5.728
 8516WAT      O34783   3.840   2.185   5.366
 8516WAT     H134784   3.878   2.115   5.329
 8516WAT     H234785   3.836   2.243   5.301
 8516WAT    EPW34786   3.845   2.183   5.351
 8517WAT      O34787   2.700   2.384   5.161
 8517WAT     H134788   2.663   2.436   5.221
 8517WAT     H234789   2.713   2.436   5.093
 8517WAT    EPW34790   2.697   2.399   5.160
 8518WAT      O34791   2.535   2.219   5.447
 8518WAT     H134792   2.455   2.195   5.473
 8518WAT     H234793   2.523   2.298   5.413
 8518WAT    EPW34794   2.521   2.227   5.446
 8519WAT      O34795   3.443   1.281   5.309
 8519WAT     H134796   3.507   1.339   5.321
 8519WAT     H234797   3.375   1.330   5.286
 8519WAT    EPW34798   3.443   1.297   5.307
 8520WAT      O34799   2.652   1.581   5.401
 8520WAT     H134800   2.665   1.501   5.433
 8520WAT     H234801   2.678   1.574   5.318
 8520WAT    EPW34802   2.658   1.568   5.393
 8521WAT      O34803   3.567   1.072   5.171
 8521WAT     H134804   3.524   1.142   5.203
 8521WAT     H234805   3.651   1.097   5.175
 8521WAT    EPW34806   3.573   1.086   5.176
 8522WAT      O34807   2.816   1.175   5.349
 8522WAT     H134808   2.896   1.207   5.335
 8522WAT     H234809   2.832   1.096   5.382
 8522WAT    EPW34810   2.831   1.168   5.352
 8523WAT      O34811   2.727   2.553   4.935
 8523WAT     H134812   2.650   2.582   4.906
 8523WAT     H234813   2.767   2.524   4.863
 8523WAT    EPW34814   2.721   2.553   4.920
 8524WAT      O34815   3.187   2.251   5.659
 8524WAT     H134816   3.264   2.236   5.622
 8524WAT     H234817   3.131   2.252   5.592
 8524WAT    EPW34818   3.190   2.249   5.644
 8525WAT      O34819   3.514   2.520   5.503
 8525WAT     H134820   3.559   2.545   5.573
 8525WAT     H234821   3.552   2.563   5.437
 8525WAT    EPW34822   3.526   2.530   5.504
 8526WAT      O34823   3.720   1.798   3.950
 8526WAT     H134824   3.795   1.836   3.926
 8526WAT     H234825   3.661   1.862   3.943
 8526WAT    EPW34826   3.722   1.813   3.945
 8527WAT      O34827   2.975   2.113   3.955
 8527WAT     H134828   2.911   2.120   3.896
 8527WAT     H234829   3.043   2.151   3.917
 8527WAT    EPW34830   2.975   2.120   3.941
 8528WAT      O34831   2.529   1.701   4.958
 8528WAT     H134832   2.552   1.674   4.878
 8528WAT     H234833   2.587   1.661   5.010
 8528WAT    EPW34834   2.541   1.691   4.954
 8529WAT      O34835   3.243   1.630   5.500
 8529WAT     H134836   3.174   1.673   5.532
 8529WAT     H234837   3.304   1.642   5.561
 8529WAT    EPW34838   3.242   1.639   5.514
 8530WAT      O34839   3.276   1.717   5.129
 8530WAT     H134840   3.288   1.767   5.199
 8530WAT     H234841   3.264   1.637   5.162
 8530WAT    EPW34842   3.276   1.713   5.144
 8531WAT      O34843   3.039   2.780   5.533
 8531WAT     H134844   3.051   2.777   5.447
 8531WAT     H234845   2.993   2.708   5.550
 8531WAT    EPW34846   3.034   2.769   5.523
 8532WAT      O34847   3.495   1.678   4.371
 8532WAT     H134848   3.533   1.658   4.447
 8532WAT     H234849   3.563   1.695   4.319
 8532WAT    EPW34850   3.511   1.677   4.375
 8533WAT      O34851   2.826   1.132   4.918
 8533WAT     H134852   2.743   1.128   4.944
 8533WAT     H234853   2.820   1.156   4.834
 8533WAT    EPW34854   2.813   1.135   4.910
 8534WAT      O34855   3.649   1.239   4.537
 8534WAT     H134856   3.576   1.198   4.561
 8534WAT     H234857   3.637   1.254   4.452
 8534WAT    EPW34858   3.637   1.235   4.528
 8535WAT      O34859   3.612   2.030   4.266
 8535WAT     H134860   3.623   2.116   4.269
 8535WAT     H234861   3.539   2.016   4.311
 8535WAT    EPW34862   3.603   2.041   4.273
 8536WAT      O34863   3.009   2.264   5.450
 8536WAT     H134864   2.930   2.268   5.488
 8536WAT     H234865   3.016   2.341   5.410
 8536WAT    EPW34866   2.998   2.276   5.450
 8537WAT      O34867   2.044   1.252   5.620
 8537WAT     H134868   2.039   1.322   5.569
 8537WAT     H234869   1.960   1.231   5.634
 8537WAT    EPW34870   2.031   1.259   5.615
 8538WAT      O34871   2.512   2.910   4.981
 8538WAT     H134872   2.511   2.896   5.067
 8538WAT     H234873   2.494   2.831   4.948
 8538WAT    EPW34874   2.509   2.896   4.989
 8539WAT      O34875   2.379   1.464   4.293
 8539WAT     H134876   2.390   1.424   4.217
 8539WAT     H234877   2.297   1.442   4.316
 8539WAT    EPW34878   2.368   1.455   4.285
 8540WAT      O34879   3.087   2.214   4.525
 8540WAT     H134880   3.069   2.208   4.610
 8540WAT     H234881   3.161   2.261   4.523
 8540WAT    EPW34882   3.096   2.220   4.537
 8541WAT      O34883   3.090   2.523   5.345
 8541WAT     H134884   3.131   2.531   5.421
 8541WAT     H234885   3.114   2.594   5.301
 8541WAT    EPW34886   3.100   2.534   5.349
 8542WAT      O34887   3.829   1.801   5.496
 8542WAT     H134888   3.767   1.739   5.497
 8542WAT     H234889   3.865   1.791   5.417
 8542WAT    EPW34890   3.825   1.790   5.484
 8543WAT      O34891   3.290   1.872   5.357
 8543WAT     H134892   3.258   1.807   5.407
 8543WAT     H234893   3.367   1.889   5.393
 8543WAT    EPW34894   3.297   1.865   5.369
 8544WAT      O34895   2.187   2.901   5.490
 8544WAT     H134896   2.152   2.823   5.506
 8544WAT     H234897   2.140   2.955   5.540
 8544WAT    EPW34898   2.175   2.897   5.500
 8545WAT      O34899   3.093   1.994   5.771
 8545WAT     H134900   3.117   2.070   5.737
 8545WAT     H234901   3.011   2.008   5.797
 8545WAT    EPW34902   3.085   2.007   5.770
 8546WAT      O34903   3.080   2.359   5.002
 8546WAT     H134904   3.102   2.405   5.073
 8546WAT     H234905   3.142   2.378   4.944
 8546WAT    EPW34906   3.092   2.369   5.004
 8547WAT      O34907   3.632   2.577   5.749
 8547WAT     H134908   3.718   2.560   5.755
 8547WAT     H234909   3.598   2.534   5.817
 8547WAT    EPW34910   3.640   2.568   5.760
 8548WAT      O34911   2.400   1.700   5.391
 8548WAT     H134912   2.414   1.762   5.330
 8548WAT     H234913   2.477   1.658   5.395
 8548WAT    EPW34914   2.414   1.703   5.383
 8549WAT      O34915   2.204   1.549   5.266
 8549WAT     H134916   2.223   1.557   5.181
 8549WAT     H234917   2.265   1.597   5.305
 8549WAT    EPW34918   2.216   1.557   5.259
 8550WAT      O34919   3.714   1.768   4.222
 8550WAT     H134920   3.705   1.777   4.136
 8550WAT     H234921   3.706   1.850   4.252
 8550WAT    EPW34922   3.712   1.782   4.214
 8551WAT      O34923   2.428   1.239   5.532
 8551WAT     H134924   2.405   1.155   5.531
 8551WAT     H234925   2.407   1.266   5.452
 8551WAT    EPW34926   2.422   1.231   5.520
 8552WAT      O34927   3.611   1.847   5.250
 8552WAT     H134928   3.622   1.761   5.254
 8552WAT     H234929   3.590   1.869   5.332
 8552WAT    EPW34930   3.609   1.837   5.262
 8553WAT      O34931   2.127   2.040   5.294
 8553WAT     H134932   2.172   2.055   5.221
 8553WAT     H234933   2.101   1.957   5.285
 8553WAT    EPW34934   2.130   2.030   5.282
 8554WAT      O34935   2.283   1.614   3.925
 8554WAT     H134936   2.213   1.611   3.977
 8554WAT     H234937   2.285   1.535   3.889
 8554WAT    EPW34938   2.273   1.602   3.927
 8555WAT      O34939   3.148   1.244   5.601
 8555WAT     H134940   3.182   1.307   5.650
 8555WAT     H234941   3.068   1.233   5.635
 8555WAT    EPW34942   3.141   1.252   5.613
 8556WAT      O34943   3.190   1.286   4.702
 8556WAT     H134944   3.106   1.296   4.725
 8556WAT     H234945   3.185   1.240   4.628
 8556WAT    EPW34946   3.177   1.280   4.694
 8557WAT      O34947   2.591   2.543   4.066
 8557WAT     H134948   2.641   2.540   4.137
 8557WAT     H234949   2.512   2.520   4.095
 8557WAT    EPW34950   2.587   2.539   4.081
 8558WAT      O34951   3.496   1.390   4.965
 8558WAT     H134952   3.577   1.361   4.978
 8558WAT     H234953   3.498   1.471   4.995
 8558WAT    EPW34954   3.508   1.397   4.971
 8559WAT      O34955   2.665   1.995   5.338
 8559WAT     H134956   2.625   2.064   5.374
 8559WAT     H234957   2.603   1.958   5.289
 8559WAT    EPW34958   2.650   2.000   5.336
 8560WAT      O34959   3.555   1.828   4.783
 8560WAT     H134960   3.624   1.880   4.791
 8560WAT     H234961   3.498   1.876   4.738
 8560WAT    EPW34962   3.557   1.842   4.778
 8561WAT      O34963   2.347   2.442   4.149
 8561WAT     H134964   2.349   2.427   4.235
 8561WAT     H234965   2.339   2.363   4.114
 8561WAT    EPW34966   2.346   2.428   4.156
 8562WAT      O34967   2.603   2.266   4.003
 8562WAT     H134968   2.522   2.243   4.026
 8562WAT     H234969   2.605   2.351   4.018
 8562WAT    EPW34970   2.591   2.275   4.008
 8563WAT      O34971   2.630   1.326   5.196
 8563WAT     H134972   2.547   1.309   5.216
 8563WAT     H234973   2.674   1.260   5.233
 8563WAT    EPW34974   2.624   1.314   5.204
 8564WAT      O34975   3.827   1.170   5.232
 8564WAT     H134976   3.827   1.208   5.311
 8564WAT     H234977   3.907   1.135   5.226
 8564WAT    EPW34978   3.839   1.171   5.243
 8565WAT      O34979   3.033   1.316   4.964
 8565WAT     H134980   2.973   1.252   4.965
 8565WAT     H234981   3.107   1.274   4.983
 8565WAT    EPW34982   3.035   1.300   4.967
 8566WAT      O34983   3.393   2.429   5.086
 8566WAT     H134984   3.413   2.425   5.171
 8566WAT     H234985   3.441   2.496   5.057
 8566WAT    EPW34986   3.403   2.439   5.094
 8567WAT      O34987   3.401   2.911   5.516
 8567WAT     H134988   3.403   2.929   5.431
 8567WAT     H234989   3.357   2.978   5.550
 8567WAT    EPW34990   3.395   2.923   5.508
 8568WAT      O34991   2.768   1.801   5.526
 8568WAT     H134992   2.734   1.731   5.487
 8568WAT     H234993   2.738   1.867   5.478
 8568WAT    EPW34994   2.758   1.801   5.513
 8569WAT      O34995   2.862   1.141   4.003
 8569WAT     H134996   2.868   1.149   3.916
 8569WAT     H234997   2.776   1.142   4.017
 8569WAT    EPW34998   2.851   1.142   3.992
 8570WAT      O34999   3.801   2.296   5.110
 8570WAT     H135000   3.746   2.235   5.081
 8570WAT     H235001   3.828   2.335   5.037
 8570WAT    EPW35002   3.797   2.293   5.095
 8571WAT      O35003   2.691   2.811   5.493
 8571WAT     H135004   2.674   2.782   5.574
 8571WAT     H235005   2.723   2.740   5.453
 8571WAT    EPW35006   2.693   2.796   5.499
 8572WAT      O35007   2.358   1.312   5.277
 8572WAT     H135008   2.304   1.246   5.257
 8572WAT     H235009   2.308   1.383   5.267
 8572WAT    EPW35010   2.342   1.313   5.273
 8573WAT      O35011   3.295   1.196   4.947
 8573WAT     H135012   3.356   1.255   4.967
 8573WAT     H235013   3.271   1.218   4.866
 8573WAT    EPW35014   3.300   1.208   4.938
 8574WAT      O35015   2.373   2.654   5.686
 8574WAT     H135016   2.454   2.682   5.703
 8574WAT     H235017   2.379   2.622   5.605
 8574WAT    EPW35018   2.386   2.654   5.677
 8575WAT      O35019   3.198   1.694   4.683
 8575WAT     H135020   3.256   1.631   4.700
 8575WAT     H235021   3.182   1.727   4.762
 8575WAT    EPW35022   3.204   1.689   4.697
 8576WAT      O35023   2.229   1.633   4.607
 8576WAT     H135024   2.185   1.656   4.678
 8576WAT     H235025   2.271   1.560   4.631
 8576WAT    EPW35026   2.229   1.625   4.621
 8577WAT      O35027   2.119   2.425   5.383
 8577WAT     H135028   2.089   2.496   5.422
 8577WAT     H235029   2.203   2.444   5.366
 8577WAT    EPW35030   2.127   2.438   5.386
 8578WAT      O35031   3.377   1.930   4.372
 8578WAT     H135032   3.406   1.848   4.370
 8578WAT     H235033   3.325   1.935   4.303
 8578WAT    EPW35034   3.374   1.919   4.362
 8579WAT      O35035   2.364   2.781   4.269
 8579WAT     H135036   2.324   2.771   4.192
 8579WAT     H235037   2.448   2.776   4.250
 8579WAT    EPW35038   2.370   2.779   4.255
 8580WAT      O35039   2.823   2.006   4.180
 8580WAT     H135040   2.866   2.043   4.114
 8580WAT     H235041   2.883   1.998   4.242
 8580WAT    EPW35042   2.838   2.010   4.179
 8581WAT      O35043   3.740   2.047   5.601
 8581WAT     H135044   3.775   1.972   5.572
 8581WAT     H235045   3.764   2.105   5.540
 8581WAT    EPW35046   3.749   2.045   5.587
 8582WAT      O35047   3.752   1.575   5.733
 8582WAT     H135048   3.748   1.643   5.788
 8582WAT     H235049   3.670   1.568   5.703
 8582WAT    EPW35050   3.739   1.584   5.737
 8583WAT      O35051   3.791   1.627   5.033
 8583WAT     H135052   3.705   1.645   5.032
 8583WAT     H235053   3.793   1.541   5.047
 8583WAT    EPW35054   3.779   1.617   5.035
 8584WAT      O35055   2.690   1.327   5.539
 8584WAT     H135056   2.728   1.286   5.472
 8584WAT     H235057   2.609   1.295   5.541
 8584WAT    EPW35058   2.684   1.316   5.530
 8585WAT      O35059   3.485   2.137   5.839
 8585WAT     H135060   3.556   2.168   5.880
 8585WAT     H235061   3.498   2.161   5.756
 8585WAT    EPW35062   3.497   2.145   5.832
 8586WAT      O35063   2.457   2.650   4.858
 8586WAT     H135064   2.430   2.570   4.834
 8586WAT     H235065   2.431   2.700   4.792
 8586WAT    EPW35066   2.449   2.646   4.845
 8587WAT      O35067   2.201   2.947   5.217
 8587WAT     H135068   2.204   2.924   5.301
 8587WAT     H235069   2.231   2.877   5.175
 8587WAT    EPW35070   2.206   2.934   5.223
 8588WAT      O35071   3.211   1.147   2.580
 8588WAT     H135072   3.236   1.217   2.535
 8588WAT     H235073   3.285   1.114   2.612
 8588WAT    EPW35074   3.226   1.152   2.578
 8589WAT      O35075   3.117   1.790   3.043
 8589WAT     H135076   3.078   1.864   3.069
 8589WAT     H235077   3.176   1.775   3.104
 8589WAT    EPW35078   3.120   1.799   3.056
 8590WAT      O35079   2.073   2.244   2.540
 8590WAT     H135080   2.007   2.243   2.597
 8590WAT     H235081   2.088   2.160   2.524
 8590WAT    EPW35082   2.065   2.232   2.546
 8591WAT      O35083   3.675   2.651   2.286
 8591WAT     H135084   3.735   2.607   2.332
 8591WAT     H235085   3.636   2.589   2.238
 8591WAT    EPW35086   3.678   2.635   2.286
 8592WAT      O35087   2.077   1.596   2.211
 8592WAT     H135088   2.011   1.643   2.179
 8592WAT     H235089   2.047   1.514   2.208
 8592WAT    EPW35090   2.063   1.591   2.206
 8593WAT      O35091   2.416   2.166   2.140
 8593WAT     H135092   2.377   2.127   2.073
 8593WAT     H235093   2.414   2.105   2.203
 8593WAT    EPW35094   2.410   2.151   2.139
 8594WAT      O35095   3.344   1.990   2.690
 8594WAT     H135096   3.369   1.970   2.608
 8594WAT     H235097   3.304   1.917   2.717
 8594WAT    EPW35098   3.342   1.976   2.682
 8595WAT      O35099   2.326   2.363   2.505
 8595WAT     H135100   2.385   2.318   2.551
 8595WAT     H235101   2.251   2.323   2.523
 8595WAT    EPW35102   2.324   2.350   2.514
 8596WAT      O35103   2.781   1.258   2.451
 8596WAT     H135104   2.782   1.335   2.410
 8596WAT     H235105   2.855   1.220   2.425
 8596WAT    EPW35106   2.792   1.264   2.441
 8597WAT      O35107   2.202   2.621   2.090
 8597WAT     H135108   2.255   2.639   2.023
 8597WAT     H235109   2.246   2.562   2.136
 8597WAT    EPW35110   2.216   2.615   2.087
 8598WAT      O35111   2.121   2.469   3.238
 8598WAT     H135112   2.155   2.449   3.315
 8598WAT     H235113   2.051   2.416   3.232
 8598WAT    EPW35114   2.116   2.458   3.248
 8599WAT      O35115   2.716   2.126   3.798
 8599WAT     H135116   2.686   2.174   3.864
 8599WAT     H235117   2.675   2.159   3.728
 8599WAT    EPW35118   2.706   2.138   3.797
 8600WAT      O35119   2.324   1.971   2.725
 8600WAT     H135120   2.264   1.985   2.663
 8600WAT     H235121   2.376   1.911   2.689
 8600WAT    EPW35122   2.323   1.964   2.710
 8601WAT      O35123   2.465   1.796   2.561
 8601WAT     H135124   2.531   1.756   2.521
 8601WAT     H235125   2.412   1.730   2.584
 8601WAT    EPW35126   2.467   1.780   2.559
 8602WAT      O35127   2.987   2.403   2.850
 8602WAT     H135128   2.964   2.322   2.872
 8602WAT     H235129   3.067   2.412   2.884
 8602WAT    EPW35130   2.995   2.392   2.859
 8603WAT      O35131   3.078   1.792   3.766
 8603WAT     H135132   3.017   1.830   3.717
 8603WAT     H235133   3.137   1.856   3.778
 8603WAT    EPW35134   3.078   1.807   3.761
 8604WAT      O35135   2.521   1.306   2.556
 8604WAT     H135136   2.481   1.362   2.502
 8604WAT     H235137   2.601   1.297   2.523
 8604WAT    EPW35138   2.527   1.313   2.543
 8605WAT      O35139   3.494   1.054   3.545
 8605WAT     H135140   3.470   1.128   3.506
 8605WAT     H235141   3.424   1.030   3.592
 8605WAT    EPW35142   3.480   1.061   3.546
 8606WAT      O35143   2.840   1.208   2.723
 8606WAT     H135144   2.871   1.288   2.742
 8606WAT     H235145   2.811   1.216   2.641
 8606WAT    EPW35146   2.841   1.221   2.714
 8607WAT      O35147   3.278   1.452   1.993
 8607WAT     H135148   3.239   1.523   2.026
 8607WAT     H235149   3.282   1.398   2.062
 8607WAT    EPW35150   3.273   1.455   2.008
 8608WAT      O35151   2.104   1.743   2.931
 8608WAT     H135152   2.099   1.829   2.939
 8608WAT     H235153   2.034   1.714   2.974
 8608WAT    EPW35154   2.093   1.751   2.938
 8609WAT      O35155   2.097   2.703   2.772
 8609WAT     H135156   2.030   2.747   2.739
 8609WAT     H235157   2.137   2.669   2.702
 8609WAT    EPW35158   2.093   2.705   2.757
 8610WAT      O35159   2.728   2.423   2.536
 8610WAT     H135160   2.677   2.444   2.604
 8610WAT     H235161   2.716   2.337   2.527
 8610WAT    EPW35162   2.719   2.413   2.544
 8611WAT      O35163   3.367   2.727   2.252
 8611WAT     H135164   3.428   2.788   2.264
 8611WAT     H235165   3.393   2.661   2.302
 8611WAT    EPW35166   3.380   2.726   2.261
 8612WAT      O35167   3.175   2.840   2.417
 8612WAT     H135168   3.233   2.860   2.479
 8612WAT     H235169   3.225   2.812   2.351
 8612WAT    EPW35170   3.191   2.839   2.417
 8613WAT      O35171   2.397   1.259   2.987
 8613WAT     H135172   2.342   1.201   2.953
 8613WAT     H235173   2.449   1.210   3.038
 8613WAT    EPW35174   2.397   1.243   2.990
 8614WAT      O35175   2.685   1.475   3.944
 8614WAT     H135176   2.682   1.428   3.870
 8614WAT     H235177   2.727   1.547   3.921
 8614WAT    EPW35178   2.691   1.478   3.930
 8615WAT      O35179   2.227   2.620   2.531
 8615WAT     H135180   2.272   2.546   2.539
 8615WAT     H235181   2.283   2.673   2.490
 8615WAT    EPW35182   2.242   2.617   2.526
 8616WAT      O35183   3.848   1.419   2.706
 8616WAT     H135184   3.807   1.496   2.713
 8616WAT     H235185   3.783   1.361   2.701
 8616WAT    EPW35186   3.832   1.422   2.707
 8617WAT      O35187   2.284   1.347   3.827
 8617WAT     H135188   2.204   1.320   3.807
 8617WAT     H235189   2.333   1.315   3.762
 8617WAT    EPW35190   2.280   1.338   3.815
 8618WAT      O35191   2.349   2.440   2.898
 8618WAT     H135192   2.411   2.447   2.837
 8618WAT     H235193   2.383   2.385   2.957
 8618WAT    EPW35194   2.363   2.433   2.898
 8619WAT      O35195   2.686   2.753   2.798
 8619WAT     H135196   2.762   2.772   2.760
 8619WAT     H235197   2.630   2.806   2.757
 8619WAT    EPW35198   2.689   2.763   2.786
 8620WAT      O35199   2.874   1.171   3.727
 8620WAT     H135200   2.902   1.094   3.696
 8620WAT     H235201   2.948   1.217   3.736
 8620WAT    EPW35202   2.889   1.166   3.724
 8621WAT      O35203   3.010   1.684   2.617
 8621WAT     H135204   3.039   1.644   2.545
 8621WAT     H235205   3.083   1.702   2.661
 8621WAT    EPW35206   3.025   1.681   2.613
 8622WAT      O35207   3.124   1.663   2.128
 8622WAT     H135208   3.144   1.744   2.153
 8622WAT     H235209   3.043   1.671   2.095
 8622WAT    EPW35210   3.115   1.676   2.127
 8623WAT      O35211   2.494   2.858   3.387
 8623WAT     H135212   2.542   2.816   3.446
 8623WAT     H235213   2.430   2.802   3.369
 8623WAT    EPW35214   2.491   2.844   3.393
 8624WAT      O35215   3.761   1.395   3.159
 8624WAT     H135216   3.824   1.375   3.101
 8624WAT     H235217   3.772   1.335   3.222
 8624WAT    EPW35218   3.772   1.383   3.159
 8625WAT      O35219   2.003   1.473   3.556
 8625WAT     H135220   1.997   1.546   3.604
 8625WAT     H235221   2.056   1.496   3.490
 8625WAT    EPW35222   2.010   1.487   3.553
 8626WAT      O35223   2.990   2.563   2.094
 8626WAT     H135224   2.968   2.622   2.154
 8626WAT     H235225   3.069   2.589   2.067
 8626WAT    EPW35226   2.999   2.575   2.099
 8627WAT      O35227   3.277   1.277   2.212
 8627WAT     H135228   3.336   1.212   2.211
 8627WAT     H235229   3.294   1.319   2.286
 8627WAT    EPW35230   3.288   1.273   2.223
 8628WAT      O35231   2.138   1.385   2.479
 8628WAT     H135232   2.115   1.303   2.460
 8628WAT     H235233   2.087   1.406   2.547
 8628WAT    EPW35234   2.127   1.376   2.487
 8629WAT      O35235   2.282   2.706   3.262
 8629WAT     H135236   2.227   2.638   3.263
 8629WAT     H235237   2.322   2.698   3.185
 8629WAT    EPW35238   2.280   2.695   3.250
 8630WAT      O35239   3.068   1.552   2.378
 8630WAT     H135240   2.990   1.517   2.357
 8630WAT     H235241   3.095   1.587   2.303
 8630WAT    EPW35242   3.060   1.552   2.364
 8631WAT      O35243   3.024   1.203   2.315
 8631WAT     H135244   2.975   1.194   2.243
 8631WAT     H235245   3.103   1.224   2.285
 8631WAT    EPW35246   3.028   1.205   2.300
 8632WAT      O35247   2.934   1.471   2.782
 8632WAT     H135248   2.949   1.537   2.726
 8632WAT     H235249   2.964   1.501   2.858
 8632WAT    EPW35250   2.940   1.485   2.785
 8633WAT      O35251   3.433   2.495   2.659
 8633WAT     H135252   3.469   2.569   2.689
 8633WAT     H235253   3.399   2.459   2.731
 8633WAT    EPW35254   3.434   2.501   2.674
 8634WAT      O35255   2.472   2.520   3.606
 8634WAT     H135256   2.535   2.577   3.589
 8634WAT     H235257   2.431   2.555   3.675
 8634WAT    EPW35258   2.475   2.533   3.614
 8635WAT      O35259   2.470   1.041   2.633
 8635WAT     H135260   2.484   1.124   2.611
 8635WAT     H235261   2.443   1.004   2.559
 8635WAT    EPW35262   2.468   1.048   2.619
 8636WAT      O35263   2.652   2.085   2.979
 8636WAT     H135264   2.684   2.082   3.060
 8636WAT     H235265   2.602   2.013   2.974
 8636WAT    EPW35266   2.649   2.074   2.990
 8637WAT      O35267   3.227   1.470   3.374
 8637WAT     H135268   3.224   1.515   3.449
 8637WAT     H235269   3.166   1.408   3.386
 8637WAT    EPW35270   3.217   1.467   3.387
 8638WAT      O35271   2.760   2.109   3.231
 8638WAT     H135272   2.748   2.195   3.239
 8638WAT     H235273   2.732   2.077   3.307
 8638WAT    EPW35274   2.754   2.117   3.244
 8639WAT      O35275   3.441   1.043   2.696
 8639WAT     H135276   3.446   1.013   2.778
 8639WAT     H235277   3.477   0.980   2.648
 8639WAT    EPW35278   3.447   1.029   2.701
 8640WAT      O35279   2.021   2.514   3.868
 8640WAT     H135280   2.075   2.564   3.915
 8640WAT     H235281   2.028   2.436   3.905
 8640WAT    EPW35282   2.030   2.510   3.880
 8641WAT      O35283   3.614   1.521   3.508
 8641WAT     H135284   3.698   1.514   3.530
 8641WAT     H235285   3.573   1.531   3.584
 8641WAT    EPW35286   3.620   1.521   3.522
 8642WAT      O35287   2.442   1.443   2.789
 8642WAT     H135288   2.461   1.394   2.719
 8642WAT     H235289   2.418   1.384   2.848
 8642WAT    EPW35290   2.441   1.427   2.787
 8643WAT      O35291   3.707   2.248   2.200
 8643WAT     H135292   3.684   2.206   2.273
 8643WAT     H235293   3.663   2.206   2.137
 8643WAT    EPW35294   3.697   2.236   2.201
 8644WAT      O35295   2.487   2.192   2.651
 8644WAT     H135296   2.567   2.163   2.633
 8644WAT     H235297   2.446   2.123   2.684
 8644WAT    EPW35298   2.493   2.178   2.653
 8645WAT      O35299   2.296   2.875   2.862
 8645WAT     H135300   2.225   2.833   2.833
 8645WAT     H235301   2.347   2.880   2.791
 8645WAT    EPW35302   2.293   2.869   2.847
 8646WAT      O35303   2.234   1.546   3.077
 8646WAT     H135304   2.321   1.555   3.067
 8646WAT     H235305   2.201   1.615   3.034
 8646WAT    EPW35306   2.242   1.557   3.069
 8647WAT      O35307   3.514   1.881   2.132
 8647WAT     H135308   3.515   1.964   2.105
 8647WAT     H235309   3.488   1.887   2.215
 8647WAT    EPW35310   3.510   1.894   2.140
 8648WAT      O35311   2.751   2.141   2.562
 8648WAT     H135312   2.805   2.101   2.617
 8648WAT     H235313   2.753   2.091   2.490
 8648WAT    EPW35314   2.759   2.128   2.559
 8649WAT      O35315   3.938   1.358   2.117
 8649WAT     H135316   3.894   1.299   2.165
 8649WAT     H235317   3.877   1.393   2.066
 8649WAT    EPW35318   3.923   1.354   2.117
 8650WAT      O35319   2.100   2.312   2.879
 8650WAT     H135320   2.045   2.373   2.907
 8650WAT     H235321   2.177   2.354   2.874
 8650WAT    EPW35322   2.103   2.327   2.882
 8651WAT      O35323   2.819   1.710   3.890
 8651WAT     H135324   2.790   1.749   3.818
 8651WAT     H235325   2.906   1.712   3.881
 8651WAT    EPW35326   2.827   1.716   3.878
 8652WAT      O35327   3.939   1.772   3.315
 8652WAT     H135328   3.986   1.705   3.345
 8652WAT     H235329   3.866   1.769   3.362
 8652WAT    EPW35330   3.935   1.762   3.326
 8653WAT      O35331   2.161   1.983   2.496
 8653WAT     H135332   2.132   1.901   2.492
 8653WAT     H235333   2.224   1.985   2.435
 8653WAT    EPW35334   2.166   1.971   2.486
 8654WAT      O35335   3.614   1.282   2.388
 8654WAT     H135336   3.699   1.268   2.374
 8654WAT     H235337   3.607   1.369   2.386
 8654WAT    EPW35338   3.625   1.292   2.386
 8655WAT      O35339   2.053   2.464   2.374
 8655WAT     H135340   2.106   2.519   2.415
 8655WAT     H235341   2.049   2.395   2.427
 8655WAT    EPW35342   2.060   2.462   2.388
 8656WAT      O35343   2.469   2.270   3.080
 8656WAT     H135344   2.524   2.313   3.134
 8656WAT     H235345   2.522   2.215   3.038
 8656WAT    EPW35346   2.485   2.268   3.082
 8657WAT      O35347   3.337   1.518   2.825
 8657WAT     H135348   3.408   1.487   2.866
 8657WAT     H235349   3.291   1.447   2.807
 8657WAT    EPW35350   3.341   1.503   2.828
 8658WAT      O35351   2.056   2.295   2.145
 8658WAT     H135352   2.133   2.255   2.140
 8658WAT     H235353   2.068   2.353   2.209
 8658WAT    EPW35354   2.069   2.298   2.154
 8659WAT      O35355   2.135   2.043   2.923
 8659WAT     H135356   2.195   2.023   2.864
 8659WAT     H235357   2.122   2.129   2.911
 8659WAT    EPW35358   2.142   2.053   2.913
 8660WAT      O35359   2.799   1.488   2.303
 8660WAT     H135360   2.777   1.474   2.220
 8660WAT     H235361   2.757   1.562   2.324
 8660WAT    EPW35362   2.789   1.497   2.294
 8661WAT      O35363   2.584   2.498   2.758
 8661WAT     H135364   2.599   2.584   2.759
 8661WAT     H235365   2.632   2.468   2.825
 8661WAT    EPW35366   2.593   2.506   2.768
 8662WAT      O35367   2.363   1.807   3.734
 8662WAT     H135368   2.333   1.743   3.785
 8662WAT     H235369   2.359   1.772   3.654
 8662WAT    EPW35370   2.358   1.792   3.730
 8663WAT      O35371   2.426   1.704   2.211
 8663WAT     H135372   2.405   1.645   2.273
 8663WAT     H235373   2.380   1.678   2.142
 8663WAT    EPW35374   2.416   1.691   2.210
 8664WAT      O35375   2.476   1.867   2.986
 8664WAT     H135376   2.416   1.871   2.923
 8664WAT     H235377   2.484   1.782   3.002
 8664WAT    EPW35378   2.468   1.855   2.979
 8665WAT      O35379   2.444   1.903   3.280
 8665WAT     H135380   2.473   1.876   3.203
 8665WAT     H235381   2.383   1.962   3.259
 8665WAT    EPW35382   2.439   1.908   3.265
 8666WAT      O35383   3.515   1.678   3.063
 8666WAT     H135384   3.451   1.696   3.120
 8666WAT     H235385   3.506   1.740   3.002
 8666WAT    EPW35386   3.504   1.690   3.063
 8667WAT      O35387   3.050   1.262   3.444
 8667WAT     H135388   3.074   1.182   3.418
 8667WAT     H235389   3.081   1.267   3.526
 8667WAT    EPW35390   3.058   1.251   3.452
 8668WAT      O35391   3.282   1.394   2.463
 8668WAT     H135392   3.349   1.449   2.473
 8668WAT     H235393   3.215   1.446   2.442
 8668WAT    EPW35394   3.282   1.410   2.462
 8669WAT      O35395   2.261   2.049   3.823
 8669WAT     H135396   2.259   2.100   3.752
 8669WAT     H235397   2.301   1.977   3.796
 8669WAT    EPW35398   2.267   2.046   3.809
 8670WAT      O35399   3.014   1.533   3.037
 8670WAT     H135400   3.041   1.616   3.043
 8670WAT     H235401   3.085   1.487   3.060
 8670WAT    EPW35402   3.029   1.539   3.041
 8671WAT      O35403   3.177   1.912   2.257
 8671WAT     H135404   3.175   1.991   2.219
 8671WAT     H235405   3.122   1.921   2.324
 8671WAT    EPW35406   3.168   1.925   2.261
 8672WAT      O35407   3.688   2.262   2.636
 8672WAT     H135408   3.630   2.325   2.650
 8672WAT     H235409   3.650   2.212   2.575
 8672WAT    EPW35410   3.674   2.264   2.629
 8673WAT      O35411   2.682   2.644   2.371
 8673WAT     H135412   2.700   2.577   2.423
 8673WAT     H235413   2.760   2.681   2.358
 8673WAT    EPW35414   2.696   2.640   2.377
 8674WAT      O35415   2.584   1.118   2.199
 8674WAT     H135416   2.611   1.119   2.282
 8674WAT     H235417   2.542   1.194   2.190
 8674WAT    EPW35418   2.582   1.130   2.210
 8675WAT      O35419   2.930   2.749   2.293
 8675WAT     H135420   2.996   2.772   2.346
 8675WAT     H235421   2.918   2.819   2.243
 8675WAT    EPW35422   2.938   2.762   2.294
 8676WAT      O35423   3.611   2.046   3.379
 8676WAT     H135424   3.543   2.100   3.389
 8676WAT     H235425   3.677   2.091   3.414
 8676WAT    EPW35426   3.610   2.061   3.386
 8677WAT      O35427   3.719   1.124   3.692
 8677WAT     H135428   3.646   1.104   3.648
 8677WAT     H235429   3.706   1.088   3.770
 8677WAT    EPW35430   3.706   1.115   3.697
 8678WAT      O35431   2.386   1.956   2.332
 8678WAT     H135432   2.382   1.883   2.284
 8678WAT     H235433   2.425   1.931   2.405
 8678WAT    EPW35434   2.391   1.942   2.336
 8679WAT      O35435   3.198   2.087   3.318
 8679WAT     H135436   3.237   2.163   3.334
 8679WAT     H235437   3.240   2.031   3.371
 8679WAT    EPW35438   3.210   2.090   3.328
 8680WAT      O35439   2.048   1.117   2.422
 8680WAT     H135440   2.047   1.061   2.355
 8680WAT     H235441   2.015   1.070   2.488
 8680WAT    EPW35442   2.043   1.102   2.422
 8681WAT      O35443   3.017   1.930   2.485
 8681WAT     H135444   3.043   1.990   2.542
 8681WAT     H235445   3.011   1.857   2.533
 8681WAT    EPW35446   3.020   1.928   2.500
 8682WAT      O35447   2.460   1.361   2.150
 8682WAT     H135448   2.400   1.354   2.087
 8682WAT     H235449   2.527   1.401   2.110
 8682WAT    EPW35450   2.461   1.366   2.135
 8683WAT      O35451   2.913   2.136   2.886
 8683WAT     H135452   2.829   2.122   2.903
 8683WAT     H235453   2.953   2.107   2.958
 8683WAT    EPW35454   2.907   2.130   2.899
 8684WAT      O35455   2.578   2.785   2.011
 8684WAT     H135456   2.595   2.707   2.046
 8684WAT     H235457   2.589   2.840   2.077
 8684WAT    EPW35458   2.582   2.781   2.026
 8685WAT      O35459   2.268   2.093   3.169
 8685WAT     H135460   2.323   2.158   3.147
 8685WAT     H235461   2.226   2.076   3.094
 8685WAT    EPW35462   2.270   2.100   3.155
 8686WAT      O35463   2.685   1.471   2.921
 8686WAT     H135464   2.749   1.485   2.863
 8686WAT     H235465   2.615   1.455   2.871
 8686WAT    EPW35466   2.684   1.470   2.905
 8687WAT      O35467   3.818   2.867   2.181
 8687WAT     H135468   3.840   2.928   2.240
 8687WAT     H235469   3.766   2.813   2.226
 8687WAT    EPW35470   3.814   2.868   2.196
 8688WAT      O35471   2.100   1.711   2.473
 8688WAT     H135472   2.142   1.670   2.538
 8688WAT     H235473   2.110   1.656   2.406
 8688WAT    EPW35474   2.108   1.697   2.473
 8689WAT      O35475   3.634   2.056   3.096
 8689WAT     H135476   3.623   2.034   3.180
 8689WAT     H235477   3.638   2.143   3.098
 8689WAT    EPW35478   3.633   2.065   3.109
 8690WAT      O35479   2.634   1.835   2.022
 8690WAT     H135480   2.567   1.802   2.067
 8690WAT     H235481   2.605   1.836   1.940
 8690WAT    EPW35482   2.620   1.830   2.016
 8691WAT      O35483   2.263   2.192   3.586
 8691WAT     H135484   2.221   2.141   3.529
 8691WAT     H235485   2.239   2.272   3.564
 8691WAT    EPW35486   2.253   2.196   3.575
 8692WAT      O35487   3.869   1.926   3.016
 8692WAT     H135488   3.801   1.975   3.039
 8692WAT     H235489   3.932   1.984   3.000
 8692WAT    EPW35490   3.868   1.942   3.017
 8693WAT      O35491   2.659   1.718   2.369
 8693WAT     H135492   2.699   1.795   2.360
 8693WAT     H235493   2.596   1.721   2.309
 8693WAT    EPW35494   2.655   1.730   2.359
 8694WAT      O35495   3.448   1.512   3.739
 8694WAT     H135496   3.421   1.533   3.819
 8694WAT     H235497   3.403   1.439   3.721
 8694WAT    EPW35498   3.438   1.504   3.748
 8695WAT      O35499   2.076   1.342   2.942
 8695WAT     H135500   2.052   1.379   2.867
 8695WAT     H235501   2.135   1.397   2.975
 8695WAT    EPW35502   2.081   1.355   2.936
 8696WAT      O35503   3.296   1.960   3.839
 8696WAT     H135504   3.357   1.969   3.901
 8696WAT     H235505   3.269   2.042   3.826
 8696WAT    EPW35506   3.301   1.974   3.846
 8697WAT      O35507   3.512   1.898   3.665
 8697WAT     H135508   3.577   1.951   3.687
 8697WAT     H235509   3.448   1.919   3.720
 8697WAT    EPW35510   3.512   1.909   3.676
 8698WAT      O35511   3.533   2.458   2.144
 8698WAT     H135512   3.588   2.392   2.161
 8698WAT     H235513   3.477   2.456   2.211
 8698WAT    EPW35514   3.533   2.448   2.156
 8699WAT      O35515   3.701   1.674   2.750
 8699WAT     H135516   3.660   1.658   2.675
 8699WAT     H235517   3.656   1.740   2.785
 8699WAT    EPW35518   3.689   1.681   2.744
 8700WAT      O35519   3.989   1.851   3.873
 8700WAT     H135520   3.971   1.839   3.788
 8700WAT     H235521   4.036   1.925   3.873
 8700WAT    EPW35522   3.993   1.860   3.860
 8701WAT      O35523   3.824   2.187   3.504
 8701WAT     H135524   3.894   2.141   3.479
 8701WAT     H235525   3.858   2.262   3.533
 8701WAT    EPW35526   3.839   2.191   3.505
 8702WAT      O35527   3.197   2.183   2.161
 8702WAT     H135528   3.277   2.216   2.172
 8702WAT     H235529   3.181   2.195   2.076
 8702WAT    EPW35530   3.207   2.189   2.150
 8703WAT      O35531   2.696   2.385   3.212
 8703WAT     H135532   2.727   2.435   3.276
 8703WAT     H235533   2.721   2.427   3.139
 8703WAT    EPW35534   2.704   2.398   3.210
 8704WAT      O35535   2.538   2.233   3.592
 8704WAT     H135536   2.454   2.212   3.593
 8704WAT     H235537   2.538   2.320   3.596
 8704WAT    EPW35538   2.526   2.242   3.593
 8705WAT      O35539   3.456   1.308   3.411
 8705WAT     H135540   3.514   1.369   3.434
 8705WAT     H235541   3.383   1.352   3.395
 8705WAT    EPW35542   3.454   1.323   3.412
 8706WAT      O35543   3.008   2.033   3.126
 8706WAT     H135544   3.071   2.057   3.181
 8706WAT     H235545   2.934   2.051   3.170
 8706WAT    EPW35546   3.006   2.039   3.141
 8707WAT      O35547   2.631   1.581   3.524
 8707WAT     H135548   2.647   1.521   3.585
 8707WAT     H235549   2.628   1.535   3.450
 8707WAT    EPW35550   2.633   1.565   3.522
 8708WAT      O35551   2.933   2.824   2.687
 8708WAT     H135552   2.918   2.910   2.695
 8708WAT     H235553   3.019   2.817   2.694
 8708WAT    EPW35554   2.943   2.836   2.689
 8709WAT      O35555   3.543   1.108   3.232
 8709WAT     H135556   3.510   1.177   3.274
 8709WAT     H235557   3.628   1.112   3.251
 8709WAT    EPW35558   3.551   1.119   3.241
 8710WAT      O35559   2.783   1.229   3.376
 8710WAT     H135560   2.863   1.238   3.410
 8710WAT     H235561   2.752   1.157   3.415
 8710WAT    EPW35562   2.790   1.219   3.387
 8711WAT      O35563   2.764   2.519   2.976
 8711WAT     H135564   2.752   2.600   2.948
 8711WAT     H235565   2.840   2.496   2.941
 8711WAT    EPW35566   2.773   2.527   2.966
 8712WAT      O35567   3.760   1.743   2.100
 8712WAT     H135568   3.805   1.805   2.057
 8712WAT     H235569   3.684   1.781   2.117
 8712WAT    EPW35570   3.756   1.758   2.096
 8713WAT      O35571   2.834   2.027   2.079
 8713WAT     H135572   2.771   1.974   2.051
 8713WAT     H235573   2.798   2.106   2.071
 8713WAT    EPW35574   2.819   2.031   2.073
 8714WAT      O35575   2.511   1.606   3.090
 8714WAT     H135576   2.565   1.569   3.032
 8714WAT     H235577   2.528   1.564   3.164
 8714WAT    EPW35578   2.521   1.594   3.092
 8715WAT      O35579   3.246   1.648   3.589
 8715WAT     H135580   3.185   1.674   3.646
 8715WAT     H235581   3.309   1.614   3.640
 8715WAT    EPW35582   3.246   1.647   3.605
 8716WAT      O35583   3.299   1.708   3.234
 8716WAT     H135584   3.316   1.764   3.299
 8716WAT     H235585   3.279   1.634   3.276
 8716WAT    EPW35586   3.299   1.705   3.250
 8717WAT      O35587   2.808   1.133   2.999
 8717WAT     H135588   2.726   1.113   3.021
 8717WAT     H235589   2.804   1.142   2.912
 8717WAT    EPW35590   2.795   1.131   2.990
 8718WAT      O35591   3.639   1.238   2.661
 8718WAT     H135592   3.570   1.190   2.687
 8718WAT     H235593   3.618   1.260   2.580
 8718WAT    EPW35594   3.626   1.234   2.653
 8719WAT      O35595   3.623   2.093   2.419
 8719WAT     H135596   3.681   2.028   2.425
 8719WAT     H235597   3.546   2.052   2.418
 8719WAT    EPW35598   3.620   2.077   2.420
 8720WAT      O35599   2.040   1.247   3.716
 8720WAT     H135600   2.035   1.317   3.665
 8720WAT     H235601   1.957   1.227   3.732
 8720WAT    EPW35602   2.027   1.254   3.711
 8721WAT      O35603   2.588   2.880   3.115
 8721WAT     H135604   2.571   2.872   3.200
 8721WAT     H235605   2.551   2.810   3.080
 8721WAT    EPW35606   2.580   2.869   3.123
 8722WAT      O35607   2.383   1.483   2.386
 8722WAT     H135608   2.397   1.438   2.313
 8722WAT     H235609   2.304   1.457   2.412
 8722WAT    EPW35610   2.374   1.473   2.379
 8723WAT      O35611   3.291   2.327   2.849
 8723WAT     H135612   3.280   2.355   2.931
 8723WAT     H235613   3.341   2.256   2.857
 8723WAT    EPW35614   3.297   2.321   2.862
 8724WAT      O35615   3.081   2.136   2.661
 8724WAT     H135616   3.041   2.131   2.738
 8724WAT     H235617   3.165   2.123   2.680
 8724WAT    EPW35618   3.088   2.133   2.675
 8725WAT      O35619   3.896   1.822   3.614
 8725WAT     H135620   3.830   1.873   3.640
 8725WAT     H235621   3.946   1.876   3.568
 8725WAT    EPW35622   3.893   1.837   3.611
 8726WAT      O35623   3.333   1.875   3.457
 8726WAT     H135624   3.295   1.809   3.500
 8726WAT     H235625   3.401   1.896   3.507
 8726WAT    EPW35626   3.337   1.868   3.470
 8727WAT      O35627   2.202   2.860   3.620
 8727WAT     H135628   2.142   2.797   3.614
 8727WAT     H235629   2.159   2.928   3.652
 8727WAT    EPW35630   2.187   2.861   3.624
 8728WAT      O35631   2.383   1.702   3.468
 8728WAT     H135632   2.403   1.767   3.414
 8728WAT     H235633   2.461   1.668   3.489
 8728WAT    EPW35634   2.397   1.706   3.463
 8729WAT      O35635   2.177   1.554   3.348
 8729WAT     H135636   2.191   1.553   3.262
 8729WAT     H235637   2.241   1.605   3.379
 8729WAT    EPW35638   2.188   1.561   3.340
 8730WAT      O35639   3.787   1.867   2.414
 8730WAT     H135640   3.729   1.802   2.407
 8730WAT     H235641   3.857   1.829   2.449
 8730WAT    EPW35642   3.789   1.852   2.418
 8731WAT      O35643   2.432   1.238   3.616
 8731WAT     H135644   2.433   1.152   3.600
 8731WAT     H235645   2.404   1.272   3.540
 8731WAT    EPW35646   2.428   1.230   3.602
 8732WAT      O35647   3.183   2.587   2.551
 8732WAT     H135648   3.185   2.668   2.520
 8732WAT     H235649   3.258   2.580   2.595
 8732WAT    EPW35650   3.194   2.598   2.553
 8733WAT      O35651   3.663   1.759   3.360
 8733WAT     H135652   3.629   1.701   3.415
 8733WAT     H235653   3.629   1.835   3.387
 8733WAT    EPW35654   3.653   1.762   3.372
 8734WAT      O35655   2.122   2.046   3.399
 8734WAT     H135656   2.159   2.068   3.323
 8734WAT     H235657   2.095   1.964   3.386
 8734WAT    EPW35658   2.123   2.037   3.386
 8735WAT      O35659   2.264   1.618   2.005
 8735WAT     H135660   2.197   1.616   2.062
 8735WAT     H235661   2.267   1.537   1.974
 8735WAT    EPW35662   2.254   1.606   2.009
 8736WAT      O35663   3.164   1.302   2.800
 8736WAT     H135664   3.092   1.349   2.783
 8736WAT     H235665   3.172   1.251   2.730
 8736WAT    EPW35666   3.154   1.301   2.787
 8737WAT      O35667   2.599   2.531   2.135
 8737WAT     H135668   2.634   2.561   2.208
 8737WAT     H235669   2.519   2.504   2.160
 8737WAT    EPW35670   2.592   2.531   2.149
 8738WAT      O35671   3.505   1.404   3.036
 8738WAT     H135672   3.582   1.380   3.070
 8738WAT     H235673   3.501   1.489   3.052
 8738WAT    EPW35674   3.516   1.413   3.043
 8739WAT      O35675   2.640   2.003   3.460
 8739WAT     H135676   2.607   2.074   3.498
 8739WAT     H235677   2.574   1.974   3.411
 8739WAT    EPW35678   2.626   2.010   3.458
 8740WAT      O35679   3.546   1.886   2.877
 8740WAT     H135680   3.570   1.948   2.934
 8740WAT     H235681   3.493   1.929   2.822
 8740WAT    EPW35682   3.542   1.902   2.877
 8741WAT      O35683   2.356   2.423   2.228
 8741WAT     H135684   2.349   2.412   2.314
 8741WAT     H235685   2.374   2.343   2.198
 8741WAT    EPW35686   2.358   2.409   2.236
 8742WAT      O35687   2.672   2.264   2.056
 8742WAT     H135688   2.595   2.229   2.078
 8742WAT     H235689   2.666   2.347   2.082
 8742WAT    EPW35690   2.660   2.271   2.063
 8743WAT      O35691   2.593   1.414   3.302
 8743WAT     H135692   2.511   1.385   3.312
 8743WAT     H235693   2.642   1.352   3.338
 8743WAT    EPW35694   2.588   1.401   3.309
 8744WAT      O35695   3.799   1.182   3.347
 8744WAT     H135696   3.780   1.180   3.432
 8744WAT     H235697   3.882   1.156   3.343
 8744WAT    EPW35698   3.808   1.178   3.359
 8745WAT      O35699   3.058   1.235   3.112
 8745WAT     H135700   3.020   1.176   3.061
 8745WAT     H235701   3.143   1.221   3.101
 8745WAT    EPW35702   3.065   1.225   3.103
 8746WAT      O35703   2.777   1.807   3.627
 8746WAT     H135704   2.740   1.738   3.588
 8746WAT     H235705   2.744   1.875   3.584
 8746WAT    EPW35706   2.767   1.807   3.615
 8747WAT      O35707   2.852   1.140   2.112
 8747WAT     H135708   2.867   1.150   2.027
 8747WAT     H235709   2.765   1.146   2.118
 8747WAT    EPW35710   2.841   1.142   2.100
 8748WAT      O35711   3.663   2.329   3.169
 8748WAT     H135712   3.711   2.348   3.239
 8748WAT     H235713   3.586   2.367   3.186
 8748WAT    EPW35714   3.659   2.338   3.182
 8749WAT      O35715   2.651   2.742   3.594
 8749WAT     H135716   2.643   2.752   3.681
 8749WAT     H235717   2.736   2.756   3.581
 8749WAT    EPW35718   2.663   2.746   3.605
 8750WAT      O35719   2.338   1.328   3.371
 8750WAT     H135720   2.291   1.257   3.354
 8750WAT     H235721   2.280   1.393   3.365
 8750WAT    EPW35722   2.322   1.327   3.368
 8751WAT      O35723   3.316   1.200   3.015
 8751WAT     H135724   3.376   1.261   3.030
 8751WAT     H235725   3.277   1.228   2.942
 8751WAT    EPW35726   3.319   1.213   3.007
 8752WAT      O35727   2.346   2.690   3.796
 8752WAT     H135728   2.423   2.724   3.819
 8752WAT     H235729   2.312   2.751   3.743
 8752WAT    EPW35730   2.352   2.704   3.791
 8753WAT      O35731   3.217   1.762   2.782
 8753WAT     H135732   3.266   1.690   2.792
 8753WAT     H235733   3.186   1.777   2.863
 8753WAT    EPW35734   3.220   1.754   2.796
 8754WAT      O35735   2.260   1.643   2.700
 8754WAT     H135736   2.208   1.666   2.767
 8754WAT     H235737   2.305   1.575   2.732
 8754WAT    EPW35738   2.259   1.636   2.715
 8755WAT      O35739   2.220   2.452   3.496
 8755WAT     H135740   2.165   2.510   3.532
 8755WAT     H235741   2.299   2.483   3.518
 8755WAT    EPW35742   2.223   2.465   3.505
 8756WAT      O35743   3.406   1.915   2.411
 8756WAT     H135744   3.433   1.833   2.425
 8756WAT     H235745   3.332   1.906   2.367
 8756WAT    EPW35746   3.399   1.902   2.407
 8757WAT      O35747   2.435   2.771   2.407
 8757WAT     H135748   2.435   2.833   2.345
 8757WAT     H235749   2.511   2.731   2.395
 8757WAT    EPW35750   2.447   2.775   2.396
 8758WAT      O35751   2.783   1.966   2.347
 8758WAT     H135752   2.801   1.990   2.265
 8758WAT     H235753   2.862   1.951   2.381
 8758WAT    EPW35754   2.798   1.967   2.340
 8759WAT      O35755   3.737   2.048   3.730
 8759WAT     H135756   3.720   2.105   3.793
 8759WAT     H235757   3.764   2.099   3.663
 8759WAT    EPW35758   3.739   2.064   3.729
 8760WAT      O35759   3.379   2.465   2.377
 8760WAT     H135760   3.419   2.470   2.455
 8760WAT     H235761   3.295   2.480   2.396
 8760WAT    EPW35762   3.373   2.468   2.391
 8761WAT      O35763   3.708   1.540   3.844
 8761WAT     H135764   3.706   1.624   3.867
 8761WAT     H235765   3.628   1.525   3.813
 8761WAT    EPW35766   3.696   1.550   3.843
 8762WAT      O35767   2.670   1.357   3.693
 8762WAT     H135768   2.734   1.298   3.694
 8762WAT     H235769   2.599   1.311   3.671
 8762WAT    EPW35770   2.669   1.342   3.690
 8763WAT      O35771   2.410   2.683   3.019
 8763WAT     H135772   2.392   2.606   2.983
 8763WAT     H235773   2.371   2.741   2.966
 8763WAT    EPW35774   2.401   2.680   3.006
 8764WAT      O35775   3.039   2.369   2.301
 8764WAT     H135776   3.082   2.305   2.261
 8764WAT     H235777   3.017   2.424   2.237
 8764WAT    EPW35778   3.042   2.368   2.286
 8765WAT      O35779   2.189   2.952   3.355
 8765WAT     H135780   2.197   2.929   3.439
 8765WAT     H235781   2.208   2.878   3.313
 8765WAT    EPW35782   2.193   2.937   3.362
 8766WAT      O35783   3.189   1.143   0.684
 8766WAT     H135784   3.210   1.175   0.606
 8766WAT     H235785   3.265   1.119   0.718
 8766WAT    EPW35786   3.203   1.144   0.678
 8767WAT      O35787   3.106   1.776   1.142
 8767WAT     H135788   3.070   1.852   1.168
 8767WAT     H235789   3.163   1.758   1.205
 8767WAT    EPW35790   3.109   1.785   1.155
 8768WAT      O35791   2.085   2.249   0.671
 8768WAT     H135792   2.074   2.252   0.757
 8768WAT     H235793   2.080   2.163   0.653
 8768WAT    EPW35794   2.082   2.236   0.681
 8769WAT      O35795   3.718   2.607   0.448
 8769WAT     H135796   3.781   2.550   0.468
 8769WAT     H235797   3.668   2.563   0.391
 8769WAT    EPW35798   3.720   2.592   0.443
 8770WAT      O35799   2.093   1.610   0.312
 8770WAT     H135800   2.038   1.668   0.277
 8770WAT     H235801   2.051   1.534   0.303
 8770WAT    EPW35802   2.079   1.607   0.305
 8771WAT      O35803   2.345   2.152   0.250
 8771WAT     H135804   2.329   2.112   0.174
 8771WAT     H235805   2.352   2.086   0.307
 8771WAT    EPW35806   2.344   2.136   0.247
 8772WAT      O35807   3.357   1.962   0.799
 8772WAT     H135808   3.373   1.948   0.714
 8772WAT     H235809   3.303   1.898   0.821
 8772WAT    EPW35810   3.352   1.951   0.790
 8773WAT      O35811   2.334   2.358   0.621
 8773WAT     H135812   2.387   2.324   0.682
 8773WAT     H235813   2.258   2.318   0.636
 8773WAT    EPW35814   2.331   2.347   0.632
 8774WAT      O35815   2.812   1.261   0.607
 8774WAT     H135816   2.811   1.343   0.577
 8774WAT     H235817   2.856   1.217   0.546
 8774WAT    EPW35818   2.818   1.267   0.594
 8775WAT      O35819   2.244   2.659   0.271
 8775WAT     H135820   2.272   2.666   0.189
 8775WAT     H235821   2.270   2.579   0.295
 8775WAT    EPW35822   2.252   2.648   0.263
 8776WAT      O35823   2.104   2.462   1.337
 8776WAT     H135824   2.138   2.442   1.414
 8776WAT     H235825   2.033   2.411   1.332
 8776WAT    EPW35826   2.098   2.452   1.347
 8777WAT      O35827   2.758   2.313   1.792
 8777WAT     H135828   2.737   2.292   1.874
 8777WAT     H235829   2.686   2.294   1.746
 8777WAT    EPW35830   2.744   2.307   1.797
 8778WAT      O35831   2.289   1.995   0.807
 8778WAT     H135832   2.239   1.994   0.735
 8778WAT     H235833   2.344   1.928   0.795
 8778WAT    EPW35834   2.290   1.985   0.795
 8779WAT      O35835   2.715   1.574   1.349
 8779WAT     H135836   2.783   1.575   1.294
 8779WAT     H235837   2.695   1.489   1.354
 8779WAT    EPW35838   2.722   1.562   1.341
 8780WAT      O35839   2.752   2.582   1.523
 8780WAT     H135840   2.767   2.644   1.463
 8780WAT     H235841   2.831   2.556   1.547
 8780WAT    EPW35842   2.766   2.588   1.518
 8781WAT      O35843   2.456   1.777   0.790
 8781WAT     H135844   2.523   1.725   0.811
 8781WAT     H235845   2.388   1.723   0.793
 8781WAT    EPW35846   2.456   1.761   0.794
 8782WAT      O35847   2.851   2.413   0.941
 8782WAT     H135848   2.874   2.332   0.962
 8782WAT     H235849   2.927   2.455   0.935
 8782WAT    EPW35850   2.866   2.407   0.943
 8783WAT      O35851   2.893   2.342   0.588
 8783WAT     H135852   2.932   2.282   0.637
 8783WAT     H235853   2.929   2.330   0.509
 8783WAT    EPW35854   2.904   2.332   0.583
 8784WAT      O35855   2.995   1.754   1.778
 8784WAT     H135856   2.919   1.784   1.745
 8784WAT     H235857   3.026   1.822   1.823
 8784WAT    EPW35858   2.988   1.769   1.779
 8785WAT      O35859   2.537   1.276   0.679
 8785WAT     H135860   2.495   1.322   0.618
 8785WAT     H235861   2.619   1.271   0.649
 8785WAT    EPW35862   2.543   1.282   0.666
 8786WAT      O35863   3.515   1.047   1.633
 8786WAT     H135864   3.490   1.116   1.586
 8786WAT     H235865   3.442   1.023   1.674
 8786WAT    EPW35866   3.501   1.054   1.632
 8787WAT      O35867   2.860   1.208   0.875
 8787WAT     H135868   2.870   1.291   0.900
 8787WAT     H235869   2.839   1.215   0.790
 8787WAT    EPW35870   2.858   1.221   0.866
 8788WAT      O35871   2.100   1.737   1.052
 8788WAT     H135872   2.097   1.824   1.059
 8788WAT     H235873   2.033   1.710   1.100
 8788WAT    EPW35874   2.090   1.746   1.060
 8789WAT      O35875   2.080   2.696   0.876
 8789WAT     H135876   2.018   2.744   0.837
 8789WAT     H235877   2.123   2.661   0.808
 8789WAT    EPW35878   2.077   2.698   0.860
 8790WAT      O35879   2.705   2.551   0.581
 8790WAT     H135880   2.659   2.534   0.653
 8790WAT     H235881   2.771   2.493   0.586
 8790WAT    EPW35882   2.708   2.540   0.592
 8791WAT      O35883   3.287   2.700   0.397
 8791WAT     H135884   3.350   2.759   0.385
 8791WAT     H235885   3.329   2.630   0.426
 8791WAT    EPW35886   3.302   2.698   0.400
 8792WAT      O35887   3.079   2.768   0.566
 8792WAT     H135888   3.106   2.840   0.606
 8792WAT     H235889   3.142   2.751   0.508
 8792WAT    EPW35890   3.092   2.776   0.563
 8793WAT      O35891   2.389   1.247   1.098
 8793WAT     H135892   2.342   1.182   1.063
 8793WAT     H235893   2.450   1.206   1.144
 8793WAT    EPW35894   2.391   1.231   1.100
 8794WAT      O35895   2.696   1.458   2.027
 8794WAT     H135896   2.691   1.423   1.947
 8794WAT     H235897   2.750   1.525   2.016
 8794WAT    EPW35898   2.703   1.462   2.014
 8795WAT      O35899   2.224   2.610   0.650
 8795WAT     H135900   2.273   2.539   0.657
 8795WAT     H235901   2.273   2.666   0.605
 8795WAT    EPW35902   2.238   2.608   0.644
 8796WAT      O35903   3.833   1.431   0.804
 8796WAT     H135904   3.783   1.502   0.810
 8796WAT     H235905   3.776   1.366   0.790
 8796WAT    EPW35906   3.817   1.432   0.803
 8797WAT      O35907   3.350   2.728   1.378
 8797WAT     H135908   3.430   2.763   1.381
 8797WAT     H235909   3.341   2.706   1.295
 8797WAT    EPW35910   3.361   2.730   1.366
 8798WAT      O35911   2.275   1.348   1.938
 8798WAT     H135912   2.194   1.321   1.918
 8798WAT     H235913   2.323   1.319   1.871
 8798WAT    EPW35914   2.270   1.340   1.925
 8799WAT      O35915   2.358   2.434   1.001
 8799WAT     H135916   2.414   2.420   0.936
 8799WAT     H235917   2.385   2.380   1.064
 8799WAT    EPW35918   2.370   2.424   1.001
 8800WAT      O35919   2.663   2.747   0.914
 8800WAT     H135920   2.742   2.765   0.882
 8800WAT     H235921   2.609   2.792   0.863
 8800WAT    EPW35922   2.667   2.756   0.902
 8801WAT      O35923   2.921   1.156   1.848
 8801WAT     H135924   2.950   1.079   1.821
 8801WAT     H235925   2.873   1.185   1.781
 8801WAT    EPW35926   2.918   1.149   1.834
 8802WAT      O35927   2.993   1.697   0.717
 8802WAT     H135928   3.023   1.654   0.648
 8802WAT     H235929   3.066   1.712   0.764
 8802WAT    EPW35930   3.008   1.693   0.714
 8803WAT      O35931   3.086   1.721   0.256
 8803WAT     H135932   3.113   1.797   0.288
 8803WAT     H235933   3.009   1.740   0.221
 8803WAT    EPW35934   3.079   1.735   0.255
 8804WAT      O35935   3.481   2.901   0.349
 8804WAT     H135936   3.523   2.861   0.284
 8804WAT     H235937   3.541   2.955   0.383
 8804WAT    EPW35938   3.496   2.903   0.344
 8805WAT      O35939   2.522   2.831   1.496
 8805WAT     H135940   2.563   2.812   1.570
 8805WAT     H235941   2.462   2.768   1.489
 8805WAT    EPW35942   2.519   2.819   1.506
 8806WAT      O35943   3.749   1.365   1.239
 8806WAT     H135944   3.812   1.351   1.180
 8806WAT     H235945   3.767   1.309   1.303
 8806WAT    EPW35946   3.761   1.355   1.239
 8807WAT      O35947   2.008   1.472   1.658
 8807WAT     H135948   2.005   1.546   1.704
 8807WAT     H235949   2.064   1.491   1.593
 8807WAT    EPW35950   2.016   1.486   1.655
 8808WAT      O35951   3.227   2.551   1.747
 8808WAT     H135952   3.232   2.565   1.833
 8808WAT     H235953   3.311   2.544   1.723
 8808WAT    EPW35954   3.240   2.552   1.756
 8809WAT      O35955   3.076   2.588   0.241
 8809WAT     H135956   3.015   2.650   0.250
 8809WAT     H235957   3.148   2.627   0.270
 8809WAT    EPW35958   3.078   2.603   0.246
 8810WAT      O35959   3.248   1.211   0.421
 8810WAT     H135960   3.314   1.169   0.383
 8810WAT     H235961   3.282   1.289   0.440
 8810WAT    EPW35962   3.263   1.217   0.418
 8811WAT      O35963   2.111   1.390   0.576
 8811WAT     H135964   2.085   1.310   0.554
 8811WAT     H235965   2.066   1.407   0.648
 8811WAT    EPW35966   2.100   1.380   0.583
 8812WAT      O35967   2.288   2.684   1.368
 8812WAT     H135968   2.228   2.621   1.359
 8812WAT     H235969   2.331   2.682   1.291
 8812WAT    EPW35970   2.286   2.674   1.355
 8813WAT      O35971   3.063   1.565   0.482
 8813WAT     H135972   2.986   1.526   0.467
 8813WAT     H235973   3.076   1.612   0.410
 8813WAT    EPW35974   3.053   1.566   0.469
 8814WAT      O35975   3.094   2.785   1.466
 8814WAT     H135976   3.172   2.771   1.431
 8814WAT     H235977   3.039   2.780   1.399
 8814WAT    EPW35978   3.097   2.782   1.451
 8815WAT      O35979   2.973   1.205   0.375
 8815WAT     H135980   2.953   1.274   0.327
 8815WAT     H235981   3.060   1.210   0.382
 8815WAT    EPW35982   2.983   1.216   0.369
 8816WAT      O35983   3.768   2.829   0.734
 8816WAT     H135984   3.724   2.904   0.745
 8816WAT     H235985   3.705   2.771   0.718
 8816WAT    EPW35986   3.752   2.832   0.733
 8817WAT      O35987   2.898   1.493   0.891
 8817WAT     H135988   2.920   1.560   0.839
 8817WAT     H235989   2.906   1.525   0.971
 8817WAT    EPW35990   2.902   1.507   0.895
 8818WAT      O35991   3.467   2.395   0.713
 8818WAT     H135992   3.534   2.345   0.739
 8818WAT     H235993   3.397   2.356   0.748
 8818WAT    EPW35994   3.467   2.382   0.722
 8819WAT      O35995   2.482   2.541   1.639
 8819WAT     H135996   2.561   2.570   1.617
 8819WAT     H235997   2.465   2.584   1.713
 8819WAT    EPW35998   2.491   2.552   1.647
 8820WAT      O35999   2.469   1.017   0.746
 8820WAT     H136000   2.491   1.099   0.727
 8820WAT     H236001   2.436   0.986   0.671
 8820WAT    EPW36002   2.467   1.025   0.732
 8821WAT      O36003   2.658   2.104   1.084
 8821WAT     H136004   2.683   2.090   1.166
 8821WAT     H236005   2.605   2.037   1.067
 8821WAT    EPW36006   2.654   2.092   1.093
 8822WAT      O36007   3.244   1.469   1.473
 8822WAT     H136008   3.243   1.508   1.551
 8822WAT     H236009   3.177   1.412   1.479
 8822WAT    EPW36010   3.234   1.466   1.486
 8823WAT      O36011   2.766   2.123   1.338
 8823WAT     H136012   2.741   2.206   1.343
 8823WAT     H236013   2.729   2.087   1.409
 8823WAT    EPW36014   2.757   2.130   1.349
 8824WAT      O36015   3.379   2.171   1.348
 8824WAT     H136016   3.304   2.143   1.382
 8824WAT     H236017   3.374   2.258   1.355
 8824WAT    EPW36018   3.367   2.180   1.354
 8825WAT      O36019   3.433   1.066   0.789
 8825WAT     H136020   3.435   1.048   0.874
 8825WAT     H236021   3.468   0.995   0.751
 8825WAT    EPW36022   3.438   1.053   0.796
 8826WAT      O36023   2.001   2.496   1.944
 8826WAT     H136024   2.063   2.541   1.987
 8826WAT     H236025   2.005   2.417   1.979
 8826WAT    EPW36026   2.011   2.491   1.955
 8827WAT      O36027   3.619   1.511   1.572
 8827WAT     H136028   3.703   1.495   1.588
 8827WAT     H236029   3.582   1.507   1.651
 8827WAT    EPW36030   3.626   1.508   1.586
 8828WAT      O36031   2.410   1.418   0.886
 8828WAT     H136032   2.442   1.366   0.824
 8828WAT     H236033   2.403   1.367   0.955
 8828WAT    EPW36034   2.414   1.403   0.887
 8829WAT      O36035   3.680   2.237   0.339
 8829WAT     H136036   3.674   2.188   0.410
 8829WAT     H236037   3.765   2.235   0.319
 8829WAT    EPW36038   3.692   2.230   0.347
 8830WAT      O36039   2.456   2.216   0.824
 8830WAT     H136040   2.529   2.195   0.782
 8830WAT     H236041   2.409   2.143   0.822
 8830WAT    EPW36042   2.460   2.202   0.818
 8831WAT      O36043   2.291   2.855   0.956
 8831WAT     H136044   2.218   2.813   0.931
 8831WAT     H236045   2.339   2.857   0.884
 8831WAT    EPW36046   2.287   2.849   0.942
 8832WAT      O36047   2.259   1.557   1.190
 8832WAT     H136048   2.344   1.577   1.178
 8832WAT     H236049   2.218   1.621   1.147
 8832WAT    EPW36050   2.266   1.570   1.182
 8833WAT      O36051   3.922   2.668   1.716
 8833WAT     H136052   3.850   2.664   1.667
 8833WAT     H236053   3.892   2.664   1.797
 8833WAT    EPW36054   3.907   2.667   1.720
 8834WAT      O36055   3.517   1.849   0.262
 8834WAT     H136056   3.441   1.832   0.223
 8834WAT     H236057   3.494   1.887   0.337
 8834WAT    EPW36058   3.503   1.852   0.267
 8835WAT      O36059   2.671   2.165   0.657
 8835WAT     H136060   2.727   2.224   0.625
 8835WAT     H236061   2.676   2.100   0.600
 8835WAT    EPW36062   2.680   2.164   0.644
 8836WAT      O36063   3.801   1.398   0.233
 8836WAT     H136064   3.825   1.323   0.196
 8836WAT     H236065   3.764   1.443   0.168
 8836WAT    EPW36066   3.799   1.393   0.218
 8837WAT      O36067   2.109   2.309   0.952
 8837WAT     H136068   2.055   2.368   0.987
 8837WAT     H236069   2.188   2.347   0.960
 8837WAT    EPW36070   2.113   2.324   0.959
 8838WAT      O36071   2.865   1.676   2.009
 8838WAT     H136072   2.798   1.732   2.012
 8838WAT     H236073   2.901   1.690   1.931
 8838WAT    EPW36074   2.860   1.686   1.998
 8839WAT      O36075   3.925   1.777   1.465
 8839WAT     H136076   3.974   1.706   1.452
 8839WAT     H236077   3.855   1.762   1.415
 8839WAT    EPW36078   3.922   1.764   1.456
 8840WAT      O36079   2.143   1.982   0.578
 8840WAT     H136080   2.118   1.898   0.580
 8840WAT     H236081   2.213   1.981   0.526
 8840WAT    EPW36082   2.149   1.969   0.571
 8841WAT      O36083   3.658   1.243   0.438
 8841WAT     H136084   3.735   1.206   0.457
 8841WAT     H236085   3.679   1.310   0.387
 8841WAT    EPW36086   3.672   1.247   0.433
 8842WAT      O36087   3.080   2.569   0.917
 8842WAT     H136088   3.039   2.644   0.900
 8842WAT     H236089   3.109   2.543   0.839
 8842WAT    EPW36090   3.078   2.577   0.903
 8843WAT      O36091   2.048   2.458   0.496
 8843WAT     H136092   2.101   2.513   0.537
 8843WAT     H236093   2.042   2.391   0.551
 8843WAT    EPW36094   2.055   2.456   0.510
 8844WAT      O36095   2.462   2.267   1.194
 8844WAT     H136096   2.515   2.310   1.248
 8844WAT     H236097   2.518   2.222   1.144
 8844WAT    EPW36098   2.478   2.266   1.195
 8845WAT      O36099   3.376   1.515   0.909
 8845WAT     H136100   3.409   1.478   0.981
 8845WAT     H236101   3.314   1.459   0.884
 8845WAT    EPW36102   3.372   1.501   0.916
 8846WAT      O36103   2.071   2.258   0.293
 8846WAT     H136104   2.153   2.228   0.286
 8846WAT     H236105   2.079   2.327   0.346
 8846WAT    EPW36106   2.084   2.264   0.300
 8847WAT      O36107   2.127   2.042   1.027
 8847WAT     H136108   2.181   2.018   0.963
 8847WAT     H236109   2.119   2.128   1.015
 8847WAT    EPW36110   2.134   2.051   1.016
 8848WAT      O36111   2.802   1.473   0.422
 8848WAT     H136112   2.751   1.410   0.390
 8848WAT     H236113   2.756   1.546   0.407
 8848WAT    EPW36114   2.787   1.474   0.415
 8849WAT      O36115   3.710   2.640   1.530
 8849WAT     H136116   3.681   2.711   1.489
 8849WAT     H236117   3.762   2.602   1.470
 8849WAT    EPW36118   3.713   2.645   1.515
 8850WAT      O36119   2.596   2.494   0.828
 8850WAT     H136120   2.610   2.574   0.860
 8850WAT     H236121   2.664   2.449   0.858
 8850WAT    EPW36122   2.608   2.499   0.838
 8851WAT      O36123   2.389   1.808   1.843
 8851WAT     H136124   2.345   1.746   1.885
 8851WAT     H236125   2.384   1.783   1.759
 8851WAT    EPW36126   2.382   1.795   1.837
 8852WAT      O36127   2.363   1.672   0.376
 8852WAT     H136128   2.372   1.609   0.436
 8852WAT     H236129   2.282   1.660   0.346
 8852WAT    EPW36130   2.352   1.661   0.381
 8853WAT      O36131   2.483   1.897   1.044
 8853WAT     H136132   2.473   1.874   0.961
 8853WAT     H236133   2.498   1.822   1.085
 8853WAT    EPW36134   2.484   1.883   1.038
 8854WAT      O36135   2.447   1.884   1.374
 8854WAT     H136136   2.473   1.832   1.309
 8854WAT     H236137   2.392   1.940   1.335
 8854WAT    EPW36138   2.442   1.885   1.358
 8855WAT      O36139   3.517   1.683   1.180
 8855WAT     H136140   3.449   1.706   1.229
 8855WAT     H236141   3.515   1.739   1.113
 8855WAT    EPW36142   3.506   1.694   1.177
 8856WAT      O36143   2.867   2.750   1.307
 8856WAT     H136144   2.838   2.689   1.251
 8856WAT     H236145   2.853   2.825   1.265
 8856WAT    EPW36146   2.861   2.752   1.293
 8857WAT      O36147   3.076   1.252   1.554
 8857WAT     H136148   3.095   1.174   1.519
 8857WAT     H236149   3.118   1.251   1.630
 8857WAT    EPW36150   3.085   1.240   1.560
 8858WAT      O36151   3.322   1.456   0.517
 8858WAT     H136152   3.380   1.520   0.527
 8858WAT     H236153   3.246   1.498   0.513
 8858WAT    EPW36154   3.319   1.472   0.518
 8859WAT      O36155   2.281   2.046   1.929
 8859WAT     H136156   2.272   2.097   1.859
 8859WAT     H236157   2.322   1.976   1.899
 8859WAT    EPW36158   2.286   2.043   1.914
 8860WAT      O36159   3.423   2.267   1.791
 8860WAT     H136160   3.449   2.344   1.758
 8860WAT     H236161   3.446   2.210   1.730
 8860WAT    EPW36162   3.430   2.270   1.777
 8861WAT      O36163   2.858   2.579   1.838
 8861WAT     H136164   2.890   2.571   1.919
 8861WAT     H236165   2.828   2.499   1.820
 8861WAT    EPW36166   2.858   2.566   1.847
 8862WAT      O36167   2.916   1.573   1.154
 8862WAT     H136168   2.977   1.635   1.157
 8862WAT     H236169   2.958   1.502   1.183
 8862WAT    EPW36170   2.931   1.572   1.159
 8863WAT      O36171   3.174   1.948   0.388
 8863WAT     H136172   3.192   2.029   0.363
 8863WAT     H236173   3.106   1.958   0.442
 8863WAT    EPW36174   3.167   1.961   0.392
 8864WAT      O36175   3.655   2.216   0.812
 8864WAT     H136176   3.681   2.163   0.876
 8864WAT     H236177   3.665   2.168   0.740
 8864WAT    EPW36178   3.660   2.201   0.810
 8865WAT      O36179   3.276   2.598   1.127
 8865WAT     H136180   3.208   2.580   1.076
 8865WAT     H236181   3.323   2.654   1.079
 8865WAT    EPW36182   3.273   2.604   1.112
 8866WAT      O36183   3.279   2.264   1.097
 8866WAT     H136184   3.204   2.297   1.129
 8866WAT     H236185   3.306   2.212   1.161
 8866WAT    EPW36186   3.272   2.261   1.111
 8867WAT      O36187   2.657   2.794   0.444
 8867WAT     H136188   2.669   2.725   0.496
 8867WAT     H236189   2.729   2.796   0.394
 8867WAT    EPW36190   2.669   2.784   0.444
 8868WAT      O36191   2.640   1.260   0.340
 8868WAT     H136192   2.626   1.180   0.370
 8868WAT     H236193   2.565   1.281   0.300
 8868WAT    EPW36194   2.627   1.252   0.338
 8869WAT      O36195   2.912   2.796   0.339
 8869WAT     H136196   2.952   2.779   0.415
 8869WAT     H236197   2.927   2.881   0.327
 8869WAT    EPW36198   2.920   2.806   0.349
 8870WAT      O36199   3.500   2.096   1.588
 8870WAT     H136200   3.467   2.123   1.511
 8870WAT     H236201   3.586   2.109   1.578
 8870WAT    EPW36202   3.508   2.102   1.575
 8871WAT      O36203   3.240   2.663   2.011
 8871WAT     H136204   3.286   2.678   2.084
 8871WAT     H236205   3.253   2.736   1.964
 8871WAT    EPW36206   3.248   2.676   2.015
 8872WAT      O36207   3.630   1.192   1.839
 8872WAT     H136208   3.595   1.141   1.777
 8872WAT     H236209   3.637   1.139   1.908
 8872WAT    EPW36210   3.626   1.176   1.840
 8873WAT      O36211   2.384   1.947   0.435
 8873WAT     H136212   2.377   1.862   0.419
 8873WAT     H236213   2.463   1.955   0.471
 8873WAT    EPW36214   2.395   1.936   0.438
 8874WAT      O36215   3.146   2.086   1.470
 8874WAT     H136216   3.100   2.127   1.532
 8874WAT     H236217   3.180   2.018   1.512
 8874WAT    EPW36218   3.144   2.082   1.485
 8875WAT      O36219   2.016   1.131   0.505
 8875WAT     H136220   2.020   1.071   0.442
 8875WAT     H236221   1.992   1.085   0.576
 8875WAT    EPW36222   2.013   1.115   0.506
 8876WAT      O36223   2.957   1.938   0.566
 8876WAT     H136224   2.973   2.002   0.624
 8876WAT     H236225   2.960   1.866   0.615
 8876WAT    EPW36226   2.960   1.937   0.582
 8877WAT      O36227   3.542   2.379   1.104
 8877WAT     H136228   3.577   2.360   1.026
 8877WAT     H236229   3.458   2.356   1.094
 8877WAT    EPW36230   3.535   2.373   1.091
 8878WAT      O36231   2.402   1.373   0.235
 8878WAT     H136232   2.347   1.344   0.174
 8878WAT     H236233   2.418   1.455   0.211
 8878WAT    EPW36234   2.396   1.381   0.223
 8879WAT      O36235   2.916   2.146   0.994
 8879WAT     H136236   2.832   2.125   1.010
 8879WAT     H236237   2.958   2.113   1.062
 8879WAT    EPW36238   2.910   2.138   1.006
 8880WAT      O36239   2.274   2.074   1.265
 8880WAT     H136240   2.328   2.140   1.246
 8880WAT     H236241   2.233   2.058   1.190
 8880WAT    EPW36242   2.276   2.082   1.251
 8881WAT      O36243   2.624   1.588   0.918
 8881WAT     H136244   2.701   1.550   0.903
 8881WAT     H236245   2.567   1.524   0.904
 8881WAT    EPW36246   2.627   1.573   0.914
 8882WAT      O36247   3.883   2.785   0.320
 8882WAT     H136248   3.957   2.741   0.304
 8882WAT     H236249   3.836   2.728   0.366
 8882WAT    EPW36250   3.887   2.770   0.324
 8883WAT      O36251   2.091   1.706   0.590
 8883WAT     H136252   2.128   1.671   0.661
 8883WAT     H236253   2.100   1.645   0.529
 8883WAT    EPW36254   2.098   1.692   0.592
 8884WAT      O36255   3.628   2.034   1.284
 8884WAT     H136256   3.630   1.962   1.333
 8884WAT     H236257   3.546   2.062   1.293
 8884WAT    EPW36258   3.616   2.027   1.293
 8885WAT      O36259   2.253   2.193   1.696
 8885WAT     H136260   2.216   2.142   1.635
 8885WAT     H236261   2.229   2.274   1.673
 8885WAT    EPW36262   2.244   2.198   1.683
 8886WAT      O36263   3.736   2.047   1.024
 8886WAT     H136264   3.710   2.046   1.107
 8886WAT     H236265   3.823   2.043   1.030
 8886WAT    EPW36266   3.745   2.047   1.037
 8887WAT      O36267   2.649   1.699   0.364
 8887WAT     H136268   2.664   1.779   0.396
 8887WAT     H236269   2.562   1.695   0.359
 8887WAT    EPW36270   2.639   1.710   0.368
 8888WAT      O36271   3.519   1.449   1.834
 8888WAT     H136272   3.447   1.453   1.883
 8888WAT     H236273   3.541   1.365   1.836
 8888WAT    EPW36274   3.511   1.437   1.842
 8889WAT      O36275   2.070   1.348   1.052
 8889WAT     H136276   2.051   1.380   0.973
 8889WAT     H236277   2.145   1.388   1.072
 8889WAT    EPW36278   2.078   1.358   1.043
 8890WAT      O36279   3.867   2.545   1.078
 8890WAT     H136280   3.906   2.601   1.022
 8890WAT     H236281   3.914   2.554   1.151
 8890WAT    EPW36282   3.880   2.555   1.080
 8891WAT      O36283   3.353   1.801   1.914
 8891WAT     H136284   3.398   1.808   1.988
 8891WAT     H236285   3.278   1.842   1.930
 8891WAT    EPW36286   3.349   1.808   1.927
 8892WAT      O36287   3.581   1.826   1.737
 8892WAT     H136288   3.609   1.904   1.763
 8892WAT     H236289   3.514   1.810   1.792
 8892WAT    EPW36290   3.575   1.835   1.749
 8893WAT      O36291   3.553   2.476   0.273
 8893WAT     H136292   3.593   2.398   0.280
 8893WAT     H236293   3.478   2.463   0.316
 8893WAT    EPW36294   3.548   2.462   0.281
 8894WAT      O36295   3.617   1.616   0.815
 8894WAT     H136296   3.548   1.571   0.844
 8894WAT     H236297   3.611   1.692   0.859
 8894WAT    EPW36298   3.606   1.621   0.826
 8895WAT      O36299   3.919   1.911   1.942
 8895WAT     H136300   3.923   1.852   1.878
 8895WAT     H236301   3.998   1.948   1.942
 8895WAT    EPW36302   3.931   1.908   1.933
 8896WAT      O36303   3.772   2.173   1.568
 8896WAT     H136304   3.843   2.131   1.540
 8896WAT     H236305   3.760   2.236   1.509
 8896WAT    EPW36306   3.780   2.176   1.555
 8897WAT      O36307   3.275   2.199   0.305
 8897WAT     H136308   3.306   2.260   0.359
 8897WAT     H236309   3.330   2.202   0.237
 8897WAT    EPW36310   3.288   2.208   0.303
 8898WAT      O36311   2.679   2.388   1.333
 8898WAT     H136312   2.690   2.439   1.402
 8898WAT     H236313   2.694   2.442   1.265
 8898WAT    EPW36314   2.682   2.404   1.333
 8899WAT      O36315   2.519   2.262   1.649
 8899WAT     H136316   2.439   2.234   1.670
 8899WAT     H236317   2.508   2.348   1.636
 8899WAT    EPW36318   2.506   2.271   1.650
 8900WAT      O36319   3.464   1.292   1.488
 8900WAT     H136320   3.523   1.353   1.505
 8900WAT     H236321   3.390   1.337   1.476
 8900WAT    EPW36322   3.461   1.307   1.489
 8901WAT      O36323   3.005   2.022   1.238
 8901WAT     H136324   3.057   2.041   1.305
 8901WAT     H236325   2.925   2.041   1.269
 8901WAT    EPW36326   3.001   2.028   1.252
 8902WAT      O36327   2.631   1.606   1.614
 8902WAT     H136328   2.643   1.530   1.655
 8902WAT     H236329   2.666   1.593   1.535
 8902WAT    EPW36330   2.638   1.593   1.608
 8903WAT      O36331   2.929   2.795   0.828
 8903WAT     H136332   2.940   2.879   0.850
 8903WAT     H236333   2.949   2.793   0.743
 8903WAT    EPW36334   2.934   2.807   0.819
 8904WAT      O36335   3.552   1.094   1.310
 8904WAT     H136336   3.520   1.164   1.350
 8904WAT     H236337   3.636   1.092   1.336
 8904WAT    EPW36338   3.560   1.104   1.320
 8905WAT      O36339   2.805   1.203   1.593
 8905WAT     H136340   2.886   1.221   1.566
 8905WAT     H236341   2.799   1.117   1.581
 8905WAT    EPW36342   2.816   1.193   1.587
 8906WAT      O36343   2.738   2.573   1.135
 8906WAT     H136344   2.693   2.630   1.086
 8906WAT     H236345   2.778   2.523   1.076
 8906WAT    EPW36346   2.738   2.574   1.119
 8907WAT      O36347   3.167   2.209   1.879
 8907WAT     H136348   3.246   2.232   1.849
 8907WAT     H236349   3.113   2.231   1.814
 8907WAT    EPW36350   3.170   2.216   1.865
 8908WAT      O36351   3.504   2.522   1.692
 8908WAT     H136352   3.540   2.551   1.765
 8908WAT     H236353   3.563   2.542   1.631
 8908WAT    EPW36354   3.518   2.529   1.693
 8909WAT      O36355   3.789   1.798   0.222
 8909WAT     H136356   3.816   1.862   0.169
 8909WAT     H236357   3.702   1.806   0.221
 8909WAT    EPW36358   3.780   1.809   0.214
 8910WAT      O36359   2.526   1.657   1.170
 8910WAT     H136360   2.561   1.630   1.095
 8910WAT     H236361   2.582   1.631   1.230
 8910WAT    EPW36362   2.539   1.649   1.168
 8911WAT      O36363   3.238   1.639   1.700
 8911WAT     H136364   3.156   1.663   1.720
 8911WAT     H236365   3.282   1.650   1.774
 8911WAT    EPW36366   3.232   1.644   1.714
 8912WAT      O36367   3.290   1.712   1.338
 8912WAT     H136368   3.299   1.765   1.407
 8912WAT     H236369   3.275   1.634   1.373
 8912WAT    EPW36370   3.289   1.708   1.353
 8913WAT      O36371   3.001   2.799   1.730
 8913WAT     H136372   3.026   2.782   1.648
 8913WAT     H236373   2.968   2.723   1.757
 8913WAT    EPW36374   3.000   2.785   1.722
 8914WAT      O36375   3.509   1.665   0.565
 8914WAT     H136376   3.536   1.644   0.645
 8914WAT     H236377   3.581   1.696   0.526
 8914WAT    EPW36378   3.524   1.666   0.571
 8915WAT      O36379   2.832   1.137   1.151
 8915WAT     H136380   2.747   1.132   1.170
 8915WAT     H236381   2.833   1.145   1.064
 8915WAT    EPW36382   2.819   1.137   1.141
 8916WAT      O36383   3.639   1.244   0.723
 8916WAT     H136384   3.566   1.204   0.748
 8916WAT     H236385   3.627   1.258   0.638
 8916WAT    EPW36386   3.627   1.240   0.714
 8917WAT      O36387   3.649   2.069   0.567
 8917WAT     H136388   3.698   1.998   0.552
 8917WAT     H236389   3.567   2.040   0.559
 8917WAT    EPW36390   3.644   2.054   0.563
 8918WAT      O36391   3.000   2.253   1.655
 8918WAT     H136392   2.922   2.257   1.694
 8918WAT     H236393   3.010   2.332   1.620
 8918WAT    EPW36394   2.990   2.265   1.656
 8919WAT      O36395   2.037   1.246   1.819
 8919WAT     H136396   2.034   1.316   1.767
 8919WAT     H236397   1.953   1.227   1.833
 8919WAT    EPW36398   2.024   1.254   1.814
 8920WAT      O36399   2.559   2.903   1.223
 8920WAT     H136400   2.550   2.888   1.309
 8920WAT     H236401   2.530   2.829   1.187
 8920WAT    EPW36402   2.553   2.890   1.231
 8921WAT      O36403   2.377   1.428   0.511
 8921WAT     H136404   2.376   1.398   0.429
 8921WAT     H236405   2.294   1.416   0.537
 8921WAT    EPW36406   2.364   1.422   0.502
 8922WAT      O36407   3.273   2.225   0.823
 8922WAT     H136408   3.269   2.240   0.908
 8922WAT     H236409   3.307   2.145   0.817
 8922WAT    EPW36410   3.278   2.216   0.834
 8923WAT      O36411   3.021   2.149   0.737
 8923WAT     H136412   2.981   2.141   0.815
 8923WAT     H236413   3.101   2.176   0.758
 8923WAT    EPW36414   3.027   2.152   0.752
 8924WAT      O36415   3.029   2.518   1.558
 8924WAT     H136416   3.087   2.525   1.624
 8924WAT     H236417   3.051   2.583   1.505
 8924WAT    EPW36418   3.041   2.529   1.560
 8925WAT      O36419   3.855   1.740   1.731
 8925WAT     H136420   3.768   1.748   1.735
 8925WAT     H236421   3.874   1.759   1.648
 8925WAT    EPW36422   3.845   1.744   1.720
 8926WAT      O36423   3.302   1.876   1.565
 8926WAT     H136424   3.290   1.807   1.617
 8926WAT     H236425   3.377   1.910   1.593
 8926WAT    EPW36426   3.311   1.871   1.577
 8927WAT      O36427   2.189   2.863   1.733
 8927WAT     H136428   2.132   2.797   1.722
 8927WAT     H236429   2.140   2.929   1.762
 8927WAT    EPW36430   2.174   2.863   1.736
 8928WAT      O36431   3.086   1.952   1.946
 8928WAT     H136432   3.113   2.030   1.918
 8928WAT     H236433   3.015   1.972   1.993
 8928WAT    EPW36434   3.079   1.967   1.949
 8929WAT      O36435   3.431   2.802   1.024
 8929WAT     H136436   3.394   2.864   1.072
 8929WAT     H236437   3.499   2.776   1.072
 8929WAT    EPW36438   3.436   2.807   1.038
 8930WAT      O36439   3.062   2.360   1.249
 8930WAT     H136440   2.995   2.320   1.288
 8930WAT     H236441   3.111   2.387   1.315
 8930WAT    EPW36442   3.059   2.358   1.265
 8931WAT      O36443   3.596   2.638   1.923
 8931WAT     H136444   3.679   2.648   1.949
 8931WAT     H236445   3.560   2.592   1.989
 8931WAT    EPW36446   3.603   2.632   1.937
 8932WAT      O36447   2.378   1.710   1.579
 8932WAT     H136448   2.393   1.771   1.518
 8932WAT     H236449   2.456   1.671   1.588
 8932WAT    EPW36450   2.392   1.713   1.571
 8933WAT      O36451   2.193   1.544   1.456
 8933WAT     H136452   2.210   1.547   1.371
 8933WAT     H236453   2.253   1.597   1.491
 8933WAT    EPW36454   2.204   1.552   1.449
 8934WAT      O36455   3.739   1.810   0.498
 8934WAT     H136456   3.763   1.811   0.414
 8934WAT     H236457   3.807   1.773   0.538
 8934WAT    EPW36458   3.753   1.805   0.492
 8935WAT      O36459   2.418   1.238   1.731
 8935WAT     H136460   2.401   1.153   1.728
 8935WAT     H236461   2.399   1.266   1.650
 8935WAT    EPW36462   2.413   1.230   1.718
 8936WAT      O36463   3.120   2.503   0.643
 8936WAT     H136464   3.100   2.585   0.620
 8936WAT     H236465   3.046   2.458   0.626
 8936WAT    EPW36466   3.106   2.508   0.637
 8937WAT      O36467   3.621   1.801   1.460
 8937WAT     H136468   3.612   1.715   1.451
 8937WAT     H236469   3.606   1.815   1.545
 8937WAT    EPW36470   3.618   1.790   1.471
 8938WAT      O36471   2.126   2.045   1.498
 8938WAT     H136472   2.167   2.062   1.423
 8938WAT     H236473   2.102   1.961   1.490
 8938WAT    EPW36474   2.129   2.035   1.486
 8939WAT      O36475   3.181   1.253   1.815
 8939WAT     H136476   3.208   1.321   1.863
 8939WAT     H236477   3.100   1.238   1.844
 8939WAT    EPW36478   3.173   1.261   1.826
 8940WAT      O36479   3.157   1.349   0.872
 8940WAT     H136480   3.077   1.384   0.869
 8940WAT     H236481   3.154   1.288   0.810
 8940WAT    EPW36482   3.144   1.345   0.863
 8941WAT      O36483   2.634   2.431   0.336
 8941WAT     H136484   2.659   2.472   0.409
 8941WAT     H236485   2.547   2.438   0.336
 8941WAT    EPW36486   2.625   2.438   0.347
 8942WAT      O36487   3.481   1.409   1.146
 8942WAT     H136488   3.559   1.375   1.168
 8942WAT     H236489   3.488   1.493   1.170
 8942WAT    EPW36490   3.494   1.416   1.153
 8943WAT      O36491   2.623   2.019   1.549
 8943WAT     H136492   2.584   2.092   1.577
 8943WAT     H236493   2.562   1.982   1.499
 8943WAT    EPW36494   2.608   2.024   1.546
 8944WAT      O36495   3.556   1.849   0.957
 8944WAT     H136496   3.616   1.909   0.973
 8944WAT     H236497   3.496   1.891   0.909
 8944WAT    EPW36498   3.556   1.864   0.952
 8945WAT      O36499   3.553   2.659   0.660
 8945WAT     H136500   3.526   2.581   0.687
 8945WAT     H236501   3.600   2.641   0.589
 8945WAT    EPW36502   3.556   2.645   0.653
 8946WAT      O36503   2.357   2.416   0.350
 8946WAT     H136504   2.353   2.398   0.436
 8946WAT     H236505   2.355   2.337   0.313
 8946WAT    EPW36506   2.356   2.401   0.358
 8947WAT      O36507   2.639   2.157   0.280
 8947WAT     H136508   2.555   2.158   0.257
 8947WAT     H236509   2.657   2.241   0.294
 8947WAT    EPW36510   2.629   2.170   0.278
 8948WAT      O36511   2.627   1.322   1.401
 8948WAT     H136512   2.543   1.308   1.419
 8948WAT     H236513   2.669   1.270   1.457
 8948WAT    EPW36514   2.621   1.312   1.412
 8949WAT      O36515   3.805   1.171   1.439
 8949WAT     H136516   3.800   1.188   1.524
 8949WAT     H236517   3.887   1.142   1.429
 8949WAT    EPW36518   3.816   1.169   1.450
 8950WAT      O36519   3.019   1.331   1.228
 8950WAT     H136520   2.962   1.267   1.213
 8950WAT     H236521   3.095   1.295   1.204
 8950WAT    EPW36522   3.022   1.316   1.222
 8951WAT      O36523   3.316   2.443   1.360
 8951WAT     H136524   3.338   2.512   1.409
 8951WAT     H236525   3.308   2.476   1.279
 8951WAT    EPW36526   3.318   2.458   1.355
 8952WAT      O36527   3.275   2.860   1.812
 8952WAT     H136528   3.207   2.819   1.776
 8952WAT     H236529   3.250   2.944   1.814
 8952WAT    EPW36530   3.261   2.867   1.807
 8953WAT      O36531   2.732   1.835   1.730
 8953WAT     H136532   2.699   1.762   1.695
 8953WAT     H236533   2.704   1.898   1.677
 8953WAT    EPW36534   2.723   1.833   1.717
 8954WAT      O36535   3.723   2.302   1.315
 8954WAT     H136536   3.711   2.216   1.305
 8954WAT     H236537   3.669   2.337   1.256
 8954WAT    EPW36538   3.713   2.294   1.305
 8955WAT      O36539   2.666   2.784   1.741
 8955WAT     H136540   2.645   2.798   1.824
 8955WAT     H236541   2.726   2.720   1.746
 8955WAT    EPW36542   2.672   2.776   1.754
 8956WAT      O36543   3.614   2.644   1.171
 8956WAT     H136544   3.695   2.633   1.143
 8956WAT     H236545   3.576   2.567   1.156
 8956WAT    EPW36546   3.620   2.631   1.165
 8957WAT      O36547   2.353   1.313   1.476
 8957WAT     H136548   2.301   1.246   1.454
 8957WAT     H236549   2.303   1.383   1.463
 8957WAT    EPW36550   2.338   1.313   1.471
 8958WAT      O36551   3.257   1.240   1.111
 8958WAT     H136552   3.323   1.294   1.132
 8958WAT     H236553   3.227   1.272   1.036
 8958WAT    EPW36554   3.263   1.253   1.103
 8959WAT      O36555   2.363   2.683   1.866
 8959WAT     H136556   2.426   2.726   1.908
 8959WAT     H236557   2.316   2.746   1.828
 8959WAT    EPW36558   2.365   2.699   1.867
 8960WAT      O36559   3.212   1.742   0.885
 8960WAT     H136560   3.266   1.674   0.896
 8960WAT     H236561   3.179   1.755   0.965
 8960WAT    EPW36562   3.215   1.734   0.898
 8961WAT      O36563   2.227   1.625   0.821
 8961WAT     H136564   2.184   1.649   0.893
 8961WAT     H236565   2.267   1.551   0.845
 8961WAT    EPW36566   2.227   1.618   0.835
 8962WAT      O36567   2.213   2.451   1.593
 8962WAT     H136568   2.159   2.511   1.625
 8962WAT     H236569   2.290   2.490   1.594
 8962WAT    EPW36570   2.216   2.466   1.598
 8963WAT      O36571   3.410   1.919   0.528
 8963WAT     H136572   3.428   1.834   0.539
 8963WAT     H236573   3.332   1.919   0.489
 8963WAT    EPW36574   3.401   1.906   0.524
 8964WAT      O36575   2.383   2.774   0.488
 8964WAT     H136576   2.340   2.751   0.416
 8964WAT     H236577   2.466   2.779   0.462
 8964WAT    EPW36578   2.389   2.771   0.474
 8965WAT      O36579   2.693   1.959   0.465
 8965WAT     H136580   2.692   2.018   0.401
 8965WAT     H236581   2.777   1.954   0.487
 8965WAT    EPW36582   2.705   1.967   0.459
 8966WAT      O36583   3.634   2.755   0.168
 8966WAT     H136584   3.716   2.761   0.198
 8966WAT     H236585   3.617   2.669   0.176
 8966WAT    EPW36586   3.644   2.743   0.174
 8967WAT      O36587   3.719   2.055   1.821
 8967WAT     H136588   3.791   2.018   1.854
 8967WAT     H236589   3.749   2.100   1.752
 8967WAT    EPW36590   3.734   2.056   1.816
 8968WAT      O36591   3.339   2.424   0.468
 8968WAT     H136592   3.390   2.410   0.537
 8968WAT     H236593   3.260   2.437   0.502
 8968WAT    EPW36594   3.335   2.424   0.483
 8969WAT      O36595   3.760   1.500   1.965
 8969WAT     H136596   3.753   1.579   2.002
 8969WAT     H236597   3.683   1.489   1.925
 8969WAT    EPW36598   3.748   1.510   1.964
 8970WAT      O36599   3.788   1.646   1.233
 8970WAT     H136600   3.705   1.667   1.218
 8970WAT     H236601   3.787   1.559   1.241
 8970WAT    EPW36602   3.776   1.637   1.232
 8971WAT      O36603   2.659   1.369   1.761
 8971WAT     H136604   2.711   1.323   1.707
 8971WAT     H236605   2.583   1.327   1.756
 8971WAT    EPW36606   2.656   1.356   1.752
 8972WAT      O36607   3.542   2.135   2.010
 8972WAT     H136608   3.601   2.105   1.954
 8972WAT     H236609   3.492   2.188   1.962
 8972WAT    EPW36610   3.543   2.138   1.995
 8973WAT      O36611   2.416   2.678   1.122
 8973WAT     H136612   2.404   2.600   1.085
 8973WAT     H236613   2.375   2.733   1.069
 8973WAT    EPW36614   2.408   2.675   1.109
 8974WAT      O36615   3.034   2.337   0.353
 8974WAT     H136616   3.101   2.291   0.321
 8974WAT     H236617   3.039   2.413   0.310
 8974WAT    EPW36618   3.045   2.342   0.342
 8975WAT      O36619   2.181   2.925   1.460
 8975WAT     H136620   2.188   2.905   1.544
 8975WAT     H236621   2.212   2.854   1.419
 8975WAT    EPW36622   2.187   2.912   1.466
 8976WAT      O36623   2.069   0.399   6.404
 8976WAT     H136624   2.083   0.445   6.477
 8976WAT     H236625   2.021   0.331   6.432
 8976WAT    EPW36626   2.064   0.396   6.419
 8977WAT      O36627   3.725   0.751   6.161
 8977WAT     H136628   3.785   0.693   6.185
 8977WAT     H236629   3.676   0.708   6.104
 8977WAT    EPW36630   3.727   0.736   6.156
 8978WAT      O36631   2.361   0.342   5.869
 8978WAT     H136632   2.323   0.334   5.791
 8978WAT     H236633   2.367   0.260   5.897
 8978WAT    EPW36634   2.356   0.329   5.861
 8979WAT      O36635   2.325   0.472   6.296
 8979WAT     H136636   2.391   0.425   6.330
 8979WAT     H236637   2.254   0.431   6.325
 8979WAT    EPW36638   2.324   0.459   6.306
 8980WAT      O36639   2.195   0.759   5.898
 8980WAT     H136640   2.246   0.776   5.829
 8980WAT     H236641   2.242   0.702   5.944
 8980WAT    EPW36642   2.210   0.753   5.895
 8981WAT      O36643   2.109   0.677   7.054
 8981WAT     H136644   2.134   0.657   7.135
 8981WAT     H236645   2.047   0.619   7.036
 8981WAT    EPW36646   2.104   0.666   7.063
 8982WAT      O36647   2.758   0.453   7.449
 8982WAT     H136648   2.754   0.406   7.523
 8982WAT     H236649   2.685   0.430   7.407
 8982WAT    EPW36650   2.747   0.443   7.454
 8983WAT      O36651   2.720   0.713   7.227
 8983WAT     H136652   2.697   0.792   7.197
 8983WAT     H236653   2.806   0.720   7.241
 8983WAT    EPW36654   2.729   0.726   7.225
 8984WAT      O36655   2.873   0.562   6.643
 8984WAT     H136656   2.893   0.484   6.676
 8984WAT     H236657   2.950   0.603   6.639
 8984WAT    EPW36658   2.887   0.556   6.647
 8985WAT      O36659   2.961   0.521   6.283
 8985WAT     H136660   2.965   0.449   6.331
 8985WAT     H236661   2.977   0.493   6.202
 8985WAT    EPW36662   2.964   0.506   6.278
 8986WAT      O36663   2.094   0.858   6.563
 8986WAT     H136664   2.030   0.903   6.523
 8986WAT     H236665   2.133   0.817   6.497
 8986WAT    EPW36666   2.090   0.859   6.547
 8987WAT      O36667   2.707   0.627   6.249
 8987WAT     H136668   2.671   0.606   6.326
 8987WAT     H236669   2.788   0.595   6.254
 8987WAT    EPW36670   2.713   0.619   6.261
 8988WAT      O36671   3.287   0.877   6.070
 8988WAT     H136672   3.355   0.932   6.071
 8988WAT     H236673   3.323   0.799   6.085
 8988WAT    EPW36674   3.302   0.874   6.072
 8989WAT      O36675   3.093   0.911   6.258
 8989WAT     H136676   3.114   0.985   6.300
 8989WAT     H236677   3.153   0.906   6.195
 8989WAT    EPW36678   3.105   0.921   6.255
 8990WAT      O36679   2.234   0.737   6.345
 8990WAT     H136680   2.279   0.663   6.347
 8990WAT     H236681   2.283   0.790   6.296
 8990WAT    EPW36682   2.248   0.734   6.338
 8991WAT      O36683   3.340   0.915   7.054
 8991WAT     H136684   3.409   0.967   7.048
 8991WAT     H236685   3.328   0.887   6.972
 8991WAT    EPW36686   3.348   0.919   7.041
 8992WAT      O36687   2.398   0.596   6.673
 8992WAT     H136688   2.467   0.588   6.620
 8992WAT     H236689   2.416   0.542   6.739
 8992WAT    EPW36690   2.411   0.587   6.675
 8993WAT      O36691   2.655   0.860   6.563
 8993WAT     H136692   2.734   0.887   6.538
 8993WAT     H236693   2.601   0.918   6.527
 8993WAT    EPW36694   2.658   0.873   6.554
 8994WAT      O36695   3.487   1.072   6.048
 8994WAT     H136696   3.536   1.038   5.984
 8994WAT     H236697   3.543   1.124   6.090
 8994WAT    EPW36698   3.503   1.075   6.045
 8995WAT      O36699   2.576   0.942   7.158
 8995WAT     H136700   2.582   0.963   7.243
 8995WAT     H236701   2.494   0.913   7.150
 8995WAT    EPW36702   2.565   0.941   7.169
 8996WAT      O36703   3.207   0.737   7.447
 8996WAT     H136704   3.188   0.664   7.492
 8996WAT     H236705   3.291   0.726   7.425
 8996WAT    EPW36706   3.217   0.724   7.450
 8997WAT      O36707   2.962   0.693   5.865
 8997WAT     H136708   2.934   0.753   5.921
 8997WAT     H236709   3.041   0.722   5.842
 8997WAT    EPW36710   2.970   0.707   5.870
 8998WAT      O36711   2.322   0.859   7.059
 8998WAT     H136712   2.258   0.800   7.060
 8998WAT     H236713   2.355   0.852   6.979
 8998WAT    EPW36714   2.317   0.850   7.047
 8999WAT      O36715   3.091   0.960   7.162
 8999WAT     H136716   3.171   0.950   7.129
 8999WAT     H236717   3.039   0.959   7.092
 8999WAT    EPW36718   3.095   0.958   7.147
 9000WAT      O36719   3.781   1.005   6.427
 9000WAT     H136720   3.742   1.082   6.442
 9000WAT     H236721   3.714   0.951   6.411
 9000WAT    EPW36722   3.765   1.008   6.427
 9001WAT      O36723   3.457   0.615   6.470
 9001WAT     H136724   3.491   0.535   6.470
 9001WAT     H236725   3.373   0.602   6.453
 9001WAT    EPW36726   3.450   0.602   6.467
 9002WAT      O36727   2.474   0.653   7.354
 9002WAT     H136728   2.549   0.678   7.318
 9002WAT     H236729   2.461   0.711   7.418
 9002WAT    EPW36730   2.483   0.665   7.358
 9003WAT      O36731   2.639   0.224   6.826
 9003WAT     H136732   2.660   0.227   6.911
 9003WAT     H236733   2.601   0.146   6.817
 9003WAT    EPW36734   2.637   0.213   6.837
 9004WAT      O36735   2.705   0.302   7.090
 9004WAT     H136736   2.703   0.385   7.063
 9004WAT     H236737   2.650   0.302   7.158
 9004WAT    EPW36738   2.697   0.315   7.096
 9005WAT      O36739   3.375   0.375   7.028
 9005WAT     H136740   3.316   0.327   7.071
 9005WAT     H236741   3.349   0.457   7.043
 9005WAT    EPW36742   3.362   0.380   7.037
 9006WAT      O36743   3.695   0.346   5.977
 9006WAT     H136744   3.691   0.308   6.056
 9006WAT     H236745   3.779   0.366   5.969
 9006WAT    EPW36746   3.707   0.343   5.988
 9007WAT      O36747   2.332   0.148   6.530
 9007WAT     H136748   2.398   0.190   6.492
 9007WAT     H236749   2.324   0.074   6.483
 9007WAT    EPW36750   2.341   0.143   6.518
 9008WAT      O36751   2.295   1.024   6.653
 9008WAT     H136752   2.222   0.984   6.625
 9008WAT     H236753   2.344   1.029   6.580
 9008WAT    EPW36754   2.292   1.019   6.638
 9009WAT      O36755   3.897   0.845   7.391
 9009WAT     H136756   3.838   0.828   7.329
 9009WAT     H236757   3.854   0.896   7.446
 9009WAT    EPW36758   3.882   0.850   7.390
 9010WAT      O36759   2.531   0.331   6.418
 9010WAT     H136760   2.567   0.399   6.459
 9010WAT     H236761   2.598   0.294   6.376
 9010WAT    EPW36762   2.546   0.335   6.418
 9011WAT      O36763   2.132   0.524   6.642
 9011WAT     H136764   2.083   0.581   6.686
 9011WAT     H236765   2.212   0.557   6.647
 9011WAT    EPW36766   2.136   0.537   6.649
 9012WAT      O36767   3.092   0.736   6.612
 9012WAT     H136768   3.041   0.802   6.587
 9012WAT     H236769   3.129   0.710   6.537
 9012WAT    EPW36770   3.090   0.742   6.597
 9013WAT      O36771   2.038   0.595   6.210
 9013WAT     H136772   2.098   0.648   6.245
 9013WAT     H236773   2.031   0.530   6.268
 9013WAT    EPW36774   2.046   0.593   6.223
 9014WAT      O36775   2.461   0.433   6.882
 9014WAT     H136776   2.517   0.480   6.929
 9014WAT     H236777   2.509   0.365   6.854
 9014WAT    EPW36778   2.477   0.430   6.885
 9015WAT      O36779   2.062   0.447   5.974
 9015WAT     H136780   2.147   0.429   5.960
 9015WAT     H236781   2.063   0.499   6.043
 9015WAT    EPW36782   2.075   0.452   5.982
 9016WAT      O36783   2.147   0.255   6.711
 9016WAT     H136784   2.207   0.218   6.659
 9016WAT     H236785   2.152   0.340   6.691
 9016WAT    EPW36786   2.157   0.262   6.700
 9017WAT      O36787   3.656   0.820   7.235
 9017WAT     H136788   3.622   0.899   7.242
 9017WAT     H236789   3.657   0.805   7.149
 9017WAT    EPW36790   3.651   0.829   7.224
 9018WAT      O36791   2.629   0.590   6.515
 9018WAT     H136792   2.627   0.677   6.523
 9018WAT     H236793   2.705   0.568   6.551
 9018WAT    EPW36794   2.640   0.600   6.522
 9019WAT      O36795   2.885   0.948   6.980
 9019WAT     H136796   2.850   0.879   6.939
 9019WAT     H236797   2.878   1.012   6.921
 9019WAT    EPW36798   2.879   0.947   6.965
 9020WAT      O36799   3.400   0.404   7.433
 9020WAT     H136800   3.432   0.484   7.420
 9020WAT     H236801   3.443   0.355   7.375
 9020WAT    EPW36802   3.411   0.408   7.423
 9021WAT      O36803   2.820   0.736   7.520
 9021WAT     H136804   2.842   0.720   7.603
 9021WAT     H236805   2.800   0.658   7.489
 9021WAT    EPW36806   2.821   0.722   7.527
 9022WAT      O36807   3.558   0.350   6.465
 9022WAT     H136808   3.619   0.320   6.520
 9022WAT     H236809   3.587   0.325   6.387
 9022WAT    EPW36810   3.572   0.342   6.462
 9023WAT      O36811   3.292   0.784   6.805
 9023WAT     H136812   3.229   0.768   6.748
 9023WAT     H236813   3.338   0.848   6.766
 9023WAT    EPW36814   3.290   0.791   6.791
 9024WAT      O36815   3.257   0.412   6.771
 9024WAT     H136816   3.187   0.456   6.799
 9024WAT     H236817   3.292   0.381   6.845
 9024WAT    EPW36818   3.252   0.414   6.786
 9025WAT      O36819   2.674   0.897   6.201
 9025WAT     H136820   2.683   0.816   6.233
 9025WAT     H236821   2.741   0.905   6.146
 9025WAT    EPW36822   2.685   0.886   6.198
 9026WAT      O36823   2.902   0.896   6.048
 9026WAT     H136824   2.962   0.903   6.111
 9026WAT     H236825   2.905   0.973   6.008
 9026WAT    EPW36826   2.912   0.908   6.051
 9027WAT      O36827   3.537   0.264   7.238
 9027WAT     H136828   3.513   0.299   7.162
 9027WAT     H236829   3.624   0.269   7.237
 9027WAT    EPW36830   3.546   0.270   7.227
 9028WAT      O36831   3.175   0.252   7.182
 9028WAT     H136832   3.125   0.308   7.227
 9028WAT     H236833   3.215   0.207   7.244
 9028WAT    EPW36834   3.173   0.254   7.198
 9029WAT      O36835   3.577   0.496   6.866
 9029WAT     H136836   3.537   0.514   6.791
 9029WAT     H236837   3.518   0.451   6.911
 9029WAT    EPW36838   3.563   0.492   6.862
 9030WAT      O36839   2.893   0.289   6.711
 9030WAT     H136840   2.811   0.267   6.730
 9030WAT     H236841   2.936   0.276   6.785
 9030WAT    EPW36842   2.887   0.284   6.725
 9031WAT      O36843   2.579   0.904   5.824
 9031WAT     H136844   2.603   0.834   5.870
 9031WAT     H236845   2.588   0.970   5.880
 9031WAT    EPW36846   2.584   0.903   5.839
 9032WAT      O36847   2.211   0.341   6.970
 9032WAT     H136848   2.287   0.378   6.950
 9032WAT     H236849   2.193   0.291   6.901
 9032WAT    EPW36850   2.220   0.339   6.957
 9033WAT      O36851   3.892   0.922   6.025
 9033WAT     H136852   3.954   0.872   5.989
 9033WAT     H236853   3.844   0.866   6.071
 9033WAT    EPW36854   3.894   0.907   6.027
 9034WAT      O36855   2.225   0.343   7.252
 9034WAT     H136856   2.223   0.340   7.165
 9034WAT     H236857   2.212   0.428   7.270
 9034WAT    EPW36858   2.223   0.355   7.242
 9035WAT      O36859   3.754   0.221   6.626
 9035WAT     H136860   3.720   0.177   6.693
 9035WAT     H236861   3.838   0.228   6.647
 9035WAT    EPW36862   3.761   0.215   6.639
 9036WAT      O36863   3.887   0.722   6.786
 9036WAT     H136864   3.912   0.777   6.723
 9036WAT     H236865   3.943   0.739   6.851
 9036WAT    EPW36866   3.899   0.732   6.787
 9037WAT      O36867   3.579   0.597   5.989
 9037WAT     H136868   3.610   0.516   5.989
 9037WAT     H236869   3.503   0.591   6.031
 9037WAT    EPW36870   3.572   0.584   5.995
 9038WAT      O36871   3.823   0.319   7.249
 9038WAT     H136872   3.909   0.307   7.257
 9038WAT     H236873   3.816   0.372   7.180
 9038WAT    EPW36874   3.835   0.325   7.240
 9039WAT      O36875   3.259   0.418   5.920
 9039WAT     H136876   3.323   0.362   5.901
 9039WAT     H236877   3.234   0.448   5.842
 9039WAT    EPW36878   3.265   0.414   5.905
 9040WAT      O36879   2.674   0.563   7.003
 9040WAT     H136880   2.685   0.608   7.077
 9040WAT     H236881   2.702   0.618   6.942
 9040WAT    EPW36882   2.680   0.578   7.005
 9041WAT      O36883   2.517   0.382   7.304
 9041WAT     H136884   2.439   0.343   7.297
 9041WAT     H236885   2.497   0.466   7.317
 9041WAT    EPW36886   2.503   0.388   7.305
 9042WAT      O36887   2.969   0.271   6.987
 9042WAT     H136888   3.030   0.246   7.044
 9042WAT     H236889   2.896   0.270   7.034
 9042WAT    EPW36890   2.967   0.267   7.003
 9043WAT      O36891   2.918   0.932   6.498
 9043WAT     H136892   2.921   1.018   6.513
 9043WAT     H236893   2.947   0.925   6.416
 9043WAT    EPW36894   2.923   0.944   6.488
 9044WAT      O36895   2.760   0.750   6.817
 9044WAT     H136896   2.713   0.793   6.757
 9044WAT     H236897   2.807   0.694   6.769
 9044WAT    EPW36898   2.760   0.748   6.801
 9045WAT      O36899   3.148   0.480   7.532
 9045WAT     H136900   3.226   0.444   7.513
 9045WAT     H236901   3.098   0.457   7.464
 9045WAT    EPW36902   3.152   0.471   7.519
 9046WAT      O36903   3.483   0.674   7.404
 9046WAT     H136904   3.524   0.693   7.478
 9046WAT     H236905   3.533   0.711   7.343
 9046WAT    EPW36906   3.496   0.682   7.406
 9047WAT      O36907   2.795   0.281   6.016
 9047WAT     H136908   2.743   0.314   5.955
 9047WAT     H236909   2.866   0.331   6.012
 9047WAT    EPW36910   2.798   0.293   6.006
 9048WAT      O36911   2.962   0.975   7.424
 9048WAT     H136912   3.003   0.965   7.348
 9048WAT     H236913   2.943   0.893   7.448
 9048WAT    EPW36914   2.965   0.961   7.416
 9049WAT      O36915   3.643   0.218   6.227
 9049WAT     H136916   3.700   0.166   6.267
 9049WAT     H236917   3.573   0.167   6.218
 9049WAT    EPW36918   3.641   0.203   6.232
 9050WAT      O36919   2.997   0.433   7.301
 9050WAT     H136920   2.918   0.429   7.339
 9050WAT     H236921   3.000   0.515   7.271
 9050WAT    EPW36922   2.986   0.444   7.302
 9051WAT      O36923   2.585   1.047   6.895
 9051WAT     H136924   2.590   1.024   6.979
 9051WAT     H236925   2.546   0.977   6.858
 9051WAT    EPW36926   2.580   1.033   6.902
 9052WAT      O36927   3.271   0.347   6.501
 9052WAT     H136928   3.266   0.367   6.586
 9052WAT     H236929   3.357   0.335   6.488
 9052WAT    EPW36930   3.283   0.348   6.512
 9053WAT      O36931   2.998   0.294   6.441
 9053WAT     H136932   2.966   0.287   6.522
 9053WAT     H236933   3.084   0.299   6.453
 9053WAT    EPW36934   3.006   0.294   6.455
 9054WAT      O36935   3.009   0.708   7.253
 9054WAT     H136936   3.067   0.714   7.319
 9054WAT     H236937   3.032   0.774   7.200
 9054WAT    EPW36938   3.021   0.719   7.255
 9055WAT      O36939   2.223   1.027   7.410
 9055WAT     H136940   2.163   0.964   7.403
 9055WAT     H236941   2.177   1.095   7.440
 9055WAT    EPW36942   2.207   1.028   7.414
 9056WAT      O36943   3.421   1.030   6.748
 9056WAT     H136944   3.362   1.089   6.772
 9056WAT     H236945   3.485   1.039   6.807
 9056WAT    EPW36946   3.422   1.040   6.760
 9057WAT      O36947   3.044   0.530   6.909
 9057WAT     H136948   3.015   0.456   6.945
 9057WAT     H236949   3.094   0.565   6.971
 9057WAT    EPW36950   3.047   0.524   6.923
 9058WAT      O36951   3.183   0.663   6.356
 9058WAT     H136952   3.161   0.742   6.327
 9058WAT     H236953   3.113   0.614   6.338
 9058WAT    EPW36954   3.169   0.668   6.349
 9059WAT      O36955   2.607   0.664   5.980
 9059WAT     H136956   2.650   0.655   6.055
 9059WAT     H236957   2.525   0.645   6.002
 9059WAT    EPW36958   2.601   0.660   5.995
 9060WAT      O36959   3.557   0.850   6.362
 9060WAT     H136960   3.528   0.778   6.401
 9060WAT     H236961   3.601   0.820   6.292
 9060WAT    EPW36962   3.559   0.835   6.357
 9061WAT      O36963   2.352   0.567   6.034
 9061WAT     H136964   2.345   0.540   6.116
 9061WAT     H236965   2.362   0.494   5.988
 9061WAT    EPW36966   2.352   0.552   6.039
 9062WAT      O36967   2.636   0.427   5.831
 9062WAT     H136968   2.553   0.403   5.836
 9062WAT     H236969   2.638   0.504   5.872
 9062WAT    EPW36970   2.624   0.435   5.838
 9063WAT      O36971   3.279   0.632   7.038
 9063WAT     H136972   3.304   0.697   7.091
 9063WAT     H236973   3.287   0.666   6.959
 9063WAT    EPW36974   3.284   0.647   7.034
 9064WAT      O36975   3.307   1.017   7.462
 9064WAT     H136976   3.251   0.951   7.471
 9064WAT     H236977   3.259   1.088   7.480
 9064WAT    EPW36978   3.292   1.018   7.466
 9065WAT      O36979   3.826   0.463   7.011
 9065WAT     H136980   3.893   0.424   6.970
 9065WAT     H236981   3.766   0.470   6.949
 9065WAT    EPW36982   3.827   0.459   6.996
 9066WAT      O36983   2.657   0.956   7.432
 9066WAT     H136984   2.714   1.022   7.435
 9066WAT     H236985   2.705   0.887   7.454
 9066WAT    EPW36986   2.673   0.956   7.436
 9067WAT      O36987   3.658   0.753   6.959
 9067WAT     H136988   3.724   0.760   6.903
 9067WAT     H236989   3.620   0.678   6.938
 9067WAT    EPW36990   3.662   0.743   6.948
 9068WAT      O36991   2.416   0.859   7.530
 9068WAT     H136992   2.490   0.903   7.516
 9068WAT     H236993   2.354   0.913   7.502
 9068WAT    EPW36994   2.418   0.873   7.524
 9069WAT      O36995   2.196   0.620   7.307
 9069WAT     H136996   2.150   0.675   7.357
 9069WAT     H236997   2.279   0.641   7.324
 9069WAT    EPW36998   2.202   0.631   7.317
 9070WAT      O36999   2.398   0.903   6.189
 9070WAT     H137000   2.371   0.937   6.114
 9070WAT     H237001   2.484   0.897   6.180
 9070WAT    EPW37002   2.407   0.907   6.177
 9071WAT      O37003   2.756   0.231   6.291
 9071WAT     H137004   2.769   0.240   6.205
 9071WAT     H237005   2.836   0.237   6.324
 9071WAT    EPW37006   2.770   0.233   6.283
 9072WAT      O37007   3.667   0.965   5.867
 9072WAT     H137008   3.742   0.950   5.910
 9072WAT     H237009   3.651   0.889   5.827
 9072WAT    EPW37010   3.676   0.951   5.868
 9073WAT      O37011   3.768   0.267   7.523
 9073WAT     H137012   3.850   0.253   7.549
 9073WAT     H237013   3.776   0.287   7.438
 9073WAT    EPW37014   3.781   0.268   7.514
 9074WAT      O37015   3.337   0.606   6.118
 9074WAT     H137016   3.293   0.601   6.194
 9074WAT     H237017   3.296   0.548   6.067
 9074WAT    EPW37018   3.324   0.596   6.122
 9075WAT      O37019   3.510   0.234   7.635
 9075WAT     H137020   3.593   0.239   7.607
 9075WAT     H237021   3.468   0.289   7.582
 9075WAT    EPW37022   3.516   0.243   7.623
 9076WAT      O37023   2.422   0.838   6.805
 9076WAT     H137024   2.418   0.763   6.761
 9076WAT     H237025   2.379   0.894   6.754
 9076WAT    EPW37026   2.415   0.835   6.791
 9077WAT      O37027   3.004   0.462   6.016
 9077WAT     H137028   3.082   0.434   5.987
 9077WAT     H237029   2.987   0.531   5.966
 9077WAT    EPW37030   3.013   0.468   6.004
 9078WAT      O37031   2.182   1.085   7.141
 9078WAT     H137032   2.193   1.068   7.225
 9078WAT     H237033   2.220   1.018   7.100
 9078WAT    EPW37034   2.189   1.073   7.147
 9079WAT      O37035   2.069   0.400   4.505
 9079WAT     H137036   2.086   0.446   4.576
 9079WAT     H237037   2.022   0.333   4.534
 9079WAT    EPW37038   2.064   0.397   4.520
 9080WAT      O37039   3.734   0.758   4.244
 9080WAT     H137040   3.792   0.700   4.272
 9080WAT     H237041   3.683   0.713   4.190
 9080WAT    EPW37042   3.735   0.743   4.240
 9081WAT      O37043   2.361   0.334   3.971
 9081WAT     H137044   2.323   0.323   3.893
 9081WAT     H237045   2.371   0.253   4.001
 9081WAT    EPW37046   2.357   0.321   3.964
 9082WAT      O37047   2.324   0.470   4.394
 9082WAT     H137048   2.390   0.423   4.428
 9082WAT     H237049   2.253   0.429   4.423
 9082WAT    EPW37050   2.323   0.457   4.403
 9083WAT      O37051   2.205   0.768   4.008
 9083WAT     H137052   2.249   0.780   3.934
 9083WAT     H237053   2.249   0.704   4.048
 9083WAT    EPW37054   2.218   0.760   4.003
 9084WAT      O37055   2.113   0.679   5.142
 9084WAT     H137056   2.150   0.655   5.218
 9084WAT     H237057   2.046   0.624   5.134
 9084WAT    EPW37058   2.108   0.667   5.152
 9085WAT      O37059   2.746   0.455   5.572
 9085WAT     H137060   2.719   0.440   5.653
 9085WAT     H237061   2.678   0.433   5.523
 9085WAT    EPW37062   2.732   0.450   5.577
 9086WAT      O37063   2.750   0.764   5.310
 9086WAT     H137064   2.768   0.828   5.254
 9086WAT     H237065   2.829   0.733   5.332
 9086WAT    EPW37066   2.764   0.769   5.305
 9087WAT      O37067   2.866   0.552   4.733
 9087WAT     H137068   2.892   0.479   4.771
 9087WAT     H237069   2.940   0.598   4.722
 9087WAT    EPW37070   2.881   0.548   4.737
 9088WAT      O37071   2.953   0.524   4.381
 9088WAT     H137072   2.960   0.453   4.432
 9088WAT     H237073   2.970   0.494   4.301
 9088WAT    EPW37074   2.957   0.509   4.377
 9089WAT      O37075   2.095   0.856   4.662
 9089WAT     H137076   2.031   0.901   4.623
 9089WAT     H237077   2.133   0.814   4.596
 9089WAT    EPW37078   2.091   0.857   4.647
 9090WAT      O37079   2.702   0.636   4.346
 9090WAT     H137080   2.665   0.614   4.422
 9090WAT     H237081   2.783   0.604   4.352
 9090WAT    EPW37082   2.708   0.628   4.358
 9091WAT      O37083   3.294   0.864   4.145
 9091WAT     H137084   3.363   0.917   4.149
 9091WAT     H237085   3.327   0.787   4.169
 9091WAT    EPW37086   3.309   0.861   4.149
 9092WAT      O37087   3.101   0.915   4.331
 9092WAT     H137088   3.132   0.981   4.379
 9092WAT     H237089   3.160   0.905   4.268
 9092WAT    EPW37090   3.114   0.923   4.329
 9093WAT      O37091   2.233   0.735   4.444
 9093WAT     H137092   2.278   0.660   4.446
 9093WAT     H237093   2.282   0.786   4.393
 9093WAT    EPW37094   2.247   0.731   4.437
 9094WAT      O37095   3.346   0.903   5.158
 9094WAT     H137096   3.418   0.950   5.167
 9094WAT     H237097   3.338   0.893   5.071
 9094WAT    EPW37098   3.355   0.908   5.146
 9095WAT      O37099   2.400   0.607   4.785
 9095WAT     H137100   2.467   0.595   4.729
 9095WAT     H237101   2.418   0.552   4.850
 9095WAT    EPW37102   2.413   0.597   4.786
 9096WAT      O37103   2.661   0.863   4.653
 9096WAT     H137104   2.738   0.894   4.628
 9096WAT     H237105   2.604   0.918   4.616
 9096WAT    EPW37106   2.664   0.875   4.644
 9097WAT      O37107   3.495   1.063   4.137
 9097WAT     H137108   3.542   1.047   4.065
 9097WAT     H237109   3.548   1.114   4.185
 9097WAT    EPW37110   3.510   1.068   4.134
 9098WAT      O37111   2.530   1.014   5.287
 9098WAT     H137112   2.563   0.989   5.364
 9098WAT     H237113   2.466   0.957   5.272
 9098WAT    EPW37114   2.526   1.002   5.296
 9099WAT      O37115   3.222   0.741   5.516
 9099WAT     H137116   3.204   0.699   5.590
 9099WAT     H237117   3.307   0.727   5.504
 9099WAT    EPW37118   3.232   0.733   5.525
 9100WAT      O37119   2.970   0.689   3.960
 9100WAT     H137120   2.943   0.753   4.013
 9100WAT     H237121   3.049   0.716   3.934
 9100WAT    EPW37122   2.978   0.702   3.964
 9101WAT      O37123   2.311   0.875   5.163
 9101WAT     H137124   2.246   0.816   5.158
 9101WAT     H237125   2.351   0.868   5.086
 9101WAT    EPW37126   2.308   0.865   5.151
 9102WAT      O37127   3.100   0.981   5.261
 9102WAT     H137128   3.177   0.960   5.227
 9102WAT     H237129   3.043   0.955   5.200
 9102WAT    EPW37130   3.103   0.974   5.247
 9103WAT      O37131   3.797   1.004   4.520
 9103WAT     H137132   3.756   1.078   4.543
 9103WAT     H237133   3.732   0.948   4.505
 9103WAT    EPW37134   3.781   1.007   4.521
 9104WAT      O37135   3.461   0.609   4.554
 9104WAT     H137136   3.495   0.529   4.560
 9104WAT     H237137   3.375   0.595   4.547
 9104WAT    EPW37138   3.453   0.595   4.554
 9105WAT      O37139   2.489   0.685   5.446
 9105WAT     H137140   2.561   0.724   5.415
 9105WAT     H237141   2.472   0.729   5.519
 9105WAT    EPW37142   2.497   0.697   5.452
 9106WAT      O37143   2.640   0.238   4.935
 9106WAT     H137144   2.662   0.243   5.019
 9106WAT     H237145   2.603   0.159   4.928
 9106WAT    EPW37146   2.638   0.227   4.947
 9107WAT      O37147   2.706   0.320   5.198
 9107WAT     H137148   2.704   0.404   5.173
 9107WAT     H237149   2.652   0.318   5.267
 9107WAT    EPW37150   2.698   0.332   5.204
 9108WAT      O37151   3.365   0.393   5.153
 9108WAT     H137152   3.308   0.343   5.196
 9108WAT     H237153   3.332   0.473   5.161
 9108WAT    EPW37154   3.352   0.397   5.161
 9109WAT      O37155   1.991   0.662   5.720
 9109WAT     H137156   2.048   0.667   5.785
 9109WAT     H237157   1.983   0.576   5.707
 9109WAT    EPW37158   1.998   0.650   5.727
 9110WAT      O37159   3.696   0.352   4.076
 9110WAT     H137160   3.692   0.315   4.155
 9110WAT     H237161   3.780   0.373   4.067
 9110WAT    EPW37162   3.708   0.350   4.086
 9111WAT      O37163   2.331   0.148   4.629
 9111WAT     H137164   2.398   0.190   4.591
 9111WAT     H237165   2.324   0.074   4.583
 9111WAT    EPW37166   2.340   0.143   4.616
 9112WAT      O37167   2.300   1.020   4.743
 9112WAT     H137168   2.228   0.977   4.719
 9112WAT     H237169   2.348   1.022   4.670
 9112WAT    EPW37170   2.296   1.014   4.729
 9113WAT      O37171   3.924   0.801   5.499
 9113WAT     H137172   3.846   0.821   5.465
 9113WAT     H237173   3.904   0.759   5.573
 9113WAT    EPW37174   3.910   0.798   5.505
 9114WAT      O37175   2.530   0.331   4.517
 9114WAT     H137176   2.564   0.401   4.556
 9114WAT     H237177   2.598   0.295   4.476
 9114WAT    EPW37178   2.545   0.336   4.517
 9115WAT      O37179   2.138   0.526   4.741
 9115WAT     H137180   2.086   0.582   4.784
 9115WAT     H237181   2.218   0.561   4.750
 9115WAT    EPW37182   2.142   0.539   4.748
 9116WAT      O37183   3.073   0.736   4.692
 9116WAT     H137184   3.029   0.808   4.669
 9116WAT     H237185   3.114   0.714   4.618
 9116WAT    EPW37186   3.072   0.743   4.678
 9117WAT      O37187   2.037   0.593   4.309
 9117WAT     H137188   2.097   0.646   4.343
 9117WAT     H237189   2.030   0.529   4.367
 9117WAT    EPW37190   2.045   0.591   4.322
 9118WAT      O37191   2.457   0.442   4.995
 9118WAT     H137192   2.510   0.490   5.045
 9118WAT     H237193   2.508   0.377   4.967
 9118WAT    EPW37194   2.473   0.439   4.998
 9119WAT      O37195   2.062   0.452   4.069
 9119WAT     H137196   2.144   0.426   4.061
 9119WAT     H237197   2.062   0.501   4.141
 9119WAT    EPW37198   2.074   0.455   4.079
 9120WAT      O37199   2.148   0.257   4.810
 9120WAT     H137200   2.208   0.220   4.759
 9120WAT     H237201   2.155   0.342   4.790
 9120WAT    EPW37202   2.158   0.264   4.800
 9121WAT      O37203   3.666   0.872   5.389
 9121WAT     H137204   3.627   0.940   5.427
 9121WAT     H237205   3.663   0.892   5.304
 9121WAT    EPW37206   3.660   0.885   5.382
 9122WAT      O37207   2.622   0.592   4.612
 9122WAT     H137208   2.624   0.679   4.619
 9122WAT     H237209   2.698   0.567   4.646
 9122WAT    EPW37210   2.633   0.601   4.618
 9123WAT      O37211   2.882   0.911   5.091
 9123WAT     H137212   2.856   0.850   5.034
 9123WAT     H237213   2.869   0.985   5.047
 9123WAT    EPW37214   2.876   0.913   5.076
 9124WAT      O37215   3.443   0.408   5.569
 9124WAT     H137216   3.468   0.489   5.546
 9124WAT     H237217   3.471   0.359   5.503
 9124WAT    EPW37218   3.451   0.413   5.556
 9125WAT      O37219   2.846   0.721   5.611
 9125WAT     H137220   2.877   0.712   5.692
 9125WAT     H237221   2.812   0.643   5.594
 9125WAT    EPW37222   2.845   0.708   5.621
 9126WAT      O37223   3.558   0.344   4.561
 9126WAT     H137224   3.618   0.314   4.618
 9126WAT     H237225   3.589   0.318   4.484
 9126WAT    EPW37226   3.571   0.336   4.558
 9127WAT      O37227   3.264   0.750   4.897
 9127WAT     H137228   3.202   0.744   4.836
 9127WAT     H237229   3.319   0.808   4.864
 9127WAT    EPW37230   3.263   0.757   4.883
 9128WAT      O37231   3.270   0.393   4.881
 9128WAT     H137232   3.196   0.437   4.899
 9128WAT     H237233   3.299   0.370   4.959
 9128WAT    EPW37234   3.263   0.396   4.895
 9129WAT      O37235   2.670   0.904   4.278
 9129WAT     H137236   2.679   0.827   4.317
 9129WAT     H237237   2.740   0.908   4.226
 9129WAT    EPW37238   2.682   0.893   4.276
 9130WAT      O37239   2.903   0.899   4.130
 9130WAT     H137240   2.964   0.911   4.192
 9130WAT     H237241   2.904   0.974   4.085
 9130WAT    EPW37242   2.912   0.912   4.133
 9131WAT      O37243   3.544   0.269   5.353
 9131WAT     H137244   3.514   0.309   5.281
 9131WAT     H237245   3.630   0.283   5.351
 9131WAT    EPW37246   3.552   0.277   5.342
 9132WAT      O37247   3.206   0.813   5.812
 9132WAT     H137248   3.233   0.838   5.891
 9132WAT     H237249   3.235   0.875   5.759
 9132WAT    EPW37250   3.214   0.826   5.816
 9133WAT      O37251   3.165   0.257   5.299
 9133WAT     H137252   3.117   0.305   5.353
 9133WAT     H237253   3.199   0.196   5.352
 9133WAT    EPW37254   3.163   0.255   5.315
 9134WAT      O37255   3.566   0.501   4.975
 9134WAT     H137256   3.525   0.497   4.898
 9134WAT     H237257   3.509   0.465   5.031
 9134WAT    EPW37258   3.551   0.495   4.972
 9135WAT      O37259   2.895   0.280   4.812
 9135WAT     H137260   2.812   0.265   4.834
 9135WAT     H237261   2.939   0.264   4.885
 9135WAT    EPW37262   2.889   0.275   4.826
 9136WAT      O37263   2.582   0.893   3.907
 9136WAT     H137264   2.606   0.825   3.956
 9136WAT     H237265   2.589   0.961   3.961
 9136WAT    EPW37266   2.587   0.893   3.922
 9137WAT      O37267   2.205   0.342   5.072
 9137WAT     H137268   2.281   0.382   5.053
 9137WAT     H237269   2.189   0.294   5.001
 9137WAT    EPW37270   2.214   0.341   5.059
 9138WAT      O37271   3.894   0.936   4.108
 9138WAT     H137272   3.955   0.885   4.072
 9138WAT     H237273   3.845   0.880   4.152
 9138WAT    EPW37274   3.896   0.920   4.109
 9139WAT      O37275   2.235   0.348   5.354
 9139WAT     H137276   2.229   0.338   5.267
 9139WAT     H237277   2.224   0.433   5.366
 9139WAT    EPW37278   2.233   0.359   5.343
 9140WAT      O37279   3.752   0.222   4.728
 9140WAT     H137280   3.724   0.160   4.782
 9140WAT     H237281   3.837   0.231   4.749
 9140WAT    EPW37282   3.761   0.214   4.739
 9141WAT      O37283   3.888   0.720   4.873
 9141WAT     H137284   3.918   0.775   4.813
 9141WAT     H237285   3.937   0.736   4.943
 9141WAT    EPW37286   3.900   0.730   4.874
 9142WAT      O37287   3.579   0.603   4.081
 9142WAT     H137288   3.612   0.522   4.080
 9142WAT     H237289   3.504   0.594   4.124
 9142WAT    EPW37290   3.573   0.590   4.087
 9143WAT      O37291   3.821   0.347   5.368
 9143WAT     H137292   3.905   0.324   5.371
 9143WAT     H237293   3.816   0.395   5.296
 9143WAT    EPW37294   3.833   0.351   5.358
 9144WAT      O37295   3.257   0.394   4.032
 9144WAT     H137296   3.324   0.339   4.022
 9144WAT     H237297   3.228   0.407   3.951
 9144WAT    EPW37298   3.263   0.388   4.019
 9145WAT      O37299   2.666   0.583   5.118
 9145WAT     H137300   2.683   0.636   5.185
 9145WAT     H237301   2.693   0.628   5.048
 9145WAT    EPW37302   2.672   0.597   5.117
 9146WAT      O37303   2.517   0.405   5.406
 9146WAT     H137304   2.437   0.372   5.396
 9146WAT     H237305   2.503   0.491   5.413
 9146WAT    EPW37306   2.503   0.413   5.406
 9147WAT      O37307   2.965   0.265   5.098
 9147WAT     H137308   3.025   0.247   5.159
 9147WAT     H237309   2.891   0.272   5.143
 9147WAT    EPW37310   2.963   0.263   5.113
 9148WAT      O37311   2.920   0.955   4.586
 9148WAT     H137312   2.930   1.039   4.610
 9148WAT     H237313   2.949   0.954   4.503
 9148WAT    EPW37314   2.926   0.968   4.577
 9149WAT      O37315   2.755   0.738   4.906
 9149WAT     H137316   2.713   0.787   4.847
 9149WAT     H237317   2.798   0.681   4.857
 9149WAT    EPW37318   2.755   0.737   4.890
 9150WAT      O37319   3.188   0.485   5.660
 9150WAT     H137320   3.262   0.456   5.624
 9150WAT     H237321   3.126   0.459   5.604
 9150WAT    EPW37322   3.190   0.477   5.646
 9151WAT      O37323   3.496   0.679   5.506
 9151WAT     H137324   3.528   0.695   5.586
 9151WAT     H237325   3.545   0.728   5.454
 9151WAT    EPW37326   3.508   0.689   5.510
 9152WAT      O37327   2.793   0.278   4.116
 9152WAT     H137328   2.742   0.310   4.053
 9152WAT     H237329   2.864   0.328   4.112
 9152WAT    EPW37330   2.796   0.290   4.106
 9153WAT      O37331   2.945   0.959   5.495
 9153WAT     H137332   3.001   0.949   5.429
 9153WAT     H237333   2.933   0.878   5.524
 9153WAT    EPW37334   2.952   0.945   5.489
 9154WAT      O37335   3.652   0.220   4.323
 9154WAT     H137336   3.717   0.173   4.359
 9154WAT     H237337   3.588   0.161   4.312
 9154WAT    EPW37338   3.652   0.204   4.327
 9155WAT      O37339   3.003   0.420   5.457
 9155WAT     H137340   2.924   0.417   5.493
 9155WAT     H237341   3.004   0.498   5.417
 9155WAT    EPW37342   2.991   0.431   5.457
 9156WAT      O37343   2.568   1.077   5.010
 9156WAT     H137344   2.565   1.069   5.097
 9156WAT     H237345   2.539   1.000   4.981
 9156WAT    EPW37346   2.563   1.064   5.019
 9157WAT      O37347   3.273   0.350   4.604
 9157WAT     H137348   3.272   0.362   4.691
 9157WAT     H237349   3.357   0.334   4.586
 9157WAT    EPW37350   3.285   0.350   4.614
 9158WAT      O37351   2.999   0.298   4.541
 9158WAT     H137352   2.968   0.287   4.622
 9158WAT     H237353   3.085   0.305   4.553
 9158WAT    EPW37354   3.007   0.298   4.555
 9159WAT      O37355   3.022   0.670   5.338
 9159WAT     H137356   3.078   0.699   5.399
 9159WAT     H237357   3.068   0.672   5.265
 9159WAT    EPW37358   3.037   0.675   5.337
 9160WAT      O37359   2.205   1.027   5.542
 9160WAT     H137360   2.148   0.963   5.529
 9160WAT     H237361   2.156   1.093   5.573
 9160WAT    EPW37362   2.189   1.028   5.545
 9161WAT      O37363   3.435   0.965   4.854
 9161WAT     H137364   3.415   1.036   4.900
 9161WAT     H237365   3.505   0.933   4.895
 9161WAT    EPW37366   3.443   0.971   4.867
 9162WAT      O37367   3.039   0.508   4.989
 9162WAT     H137368   3.011   0.437   5.030
 9162WAT     H237369   3.081   0.552   5.051
 9162WAT    EPW37370   3.041   0.504   5.004
 9163WAT      O37371   3.621   0.721   5.749
 9163WAT     H137372   3.704   0.697   5.739
 9163WAT     H237373   3.595   0.679   5.821
 9163WAT    EPW37374   3.629   0.711   5.758
 9164WAT      O37375   3.177   0.668   4.442
 9164WAT     H137376   3.157   0.746   4.408
 9164WAT     H237377   3.107   0.620   4.425
 9164WAT    EPW37378   3.164   0.672   4.435
 9165WAT      O37379   2.607   0.660   4.074
 9165WAT     H137380   2.651   0.655   4.149
 9165WAT     H237381   2.525   0.639   4.096
 9165WAT    EPW37382   2.601   0.656   4.088
 9166WAT      O37383   3.578   0.841   4.460
 9166WAT     H137384   3.545   0.768   4.493
 9166WAT     H237385   3.617   0.814   4.386
 9166WAT    EPW37386   3.579   0.826   4.454
 9167WAT      O37387   2.353   0.563   4.131
 9167WAT     H137388   2.347   0.536   4.214
 9167WAT     H237389   2.362   0.489   4.086
 9167WAT    EPW37390   2.353   0.548   4.137
 9168WAT      O37391   2.635   0.421   3.927
 9168WAT     H137392   2.552   0.396   3.934
 9168WAT     H237393   2.637   0.498   3.968
 9168WAT    EPW37394   2.623   0.429   3.934
 9169WAT      O37395   3.238   0.642   5.147
 9169WAT     H137396   3.279   0.704   5.191
 9169WAT     H237397   3.247   0.667   5.064
 9169WAT    EPW37398   3.246   0.655   5.141
 9170WAT      O37399   3.285   1.002   5.620
 9170WAT     H137400   3.247   0.945   5.566
 9170WAT     H237401   3.236   1.073   5.613
 9170WAT    EPW37402   3.272   1.004   5.611
 9171WAT      O37403   3.817   0.469   5.116
 9171WAT     H137404   3.878   0.424   5.073
 9171WAT     H237405   3.752   0.476   5.058
 9171WAT    EPW37406   3.816   0.464   5.101
 9172WAT      O37407   2.636   0.935   5.545
 9172WAT     H137408   2.628   0.934   5.632
 9172WAT     H237409   2.705   0.884   5.530
 9172WAT    EPW37410   2.645   0.927   5.556
 9173WAT      O37411   3.626   0.782   4.962
 9173WAT     H137412   3.706   0.772   4.931
 9173WAT     H237413   3.598   0.700   4.974
 9173WAT    EPW37414   3.633   0.769   4.960
 9174WAT      O37415   2.357   0.822   5.677
 9174WAT     H137416   2.425   0.855   5.720
 9174WAT     H237417   2.321   0.891   5.639
 9174WAT    EPW37418   2.362   0.837   5.677
 9175WAT      O37419   2.222   0.623   5.386
 9175WAT     H137420   2.170   0.680   5.427
 9175WAT     H237421   2.302   0.654   5.401
 9175WAT    EPW37422   2.226   0.636   5.394
 9176WAT      O37423   2.391   0.894   4.277
 9176WAT     H137424   2.358   0.908   4.198
 9176WAT     H237425   2.477   0.891   4.262
 9176WAT    EPW37426   2.399   0.896   4.263
 9177WAT      O37427   2.757   0.232   4.392
 9177WAT     H137428   2.769   0.240   4.306
 9177WAT     H237429   2.837   0.239   4.425
 9177WAT    EPW37430   2.770   0.234   4.384
 9178WAT      O37431   3.681   0.999   3.937
 9178WAT     H137432   3.751   0.983   3.986
 9178WAT     H237433   3.658   0.920   3.908
 9178WAT    EPW37434   3.688   0.985   3.940
 9179WAT      O37435   3.820   0.396   5.648
 9179WAT     H137436   3.778   0.327   5.679
 9179WAT     H237437   3.813   0.387   5.561
 9179WAT    EPW37438   3.813   0.385   5.639
 9180WAT      O37439   3.338   0.597   4.214
 9180WAT     H137440   3.296   0.596   4.290
 9180WAT     H237441   3.299   0.535   4.167
 9180WAT    EPW37442   3.326   0.588   4.218
 9181WAT      O37443   3.475   0.272   5.818
 9181WAT     H137444   3.549   0.297   5.858
 9181WAT     H237445   3.477   0.316   5.742
 9181WAT    EPW37446   3.486   0.283   5.813
 9182WAT      O37447   2.430   0.852   4.914
 9182WAT     H137448   2.426   0.774   4.876
 9182WAT     H237449   2.387   0.904   4.859
 9182WAT    EPW37450   2.423   0.848   4.901
 9183WAT      O37451   3.002   0.459   4.118
 9183WAT     H137452   3.080   0.427   4.093
 9183WAT     H237453   2.990   0.527   4.065
 9183WAT    EPW37454   3.012   0.465   4.106
 9184WAT      O37455   2.181   1.096   5.270
 9184WAT     H137456   2.192   1.073   5.354
 9184WAT     H237457   2.219   1.030   5.226
 9184WAT    EPW37458   2.189   1.083   5.276
 9185WAT      O37459   2.072   0.405   2.604
 9185WAT     H137460   2.089   0.450   2.676
 9185WAT     H237461   2.024   0.337   2.632
 9185WAT    EPW37462   2.068   0.401   2.618
 9186WAT      O37463   3.732   0.769   2.336
 9186WAT     H137464   3.792   0.711   2.364
 9186WAT     H237465   3.682   0.722   2.282
 9186WAT    EPW37466   3.733   0.753   2.332
 9187WAT      O37467   2.355   0.344   2.065
 9187WAT     H137468   2.319   0.338   1.986
 9187WAT     H237469   2.361   0.261   2.091
 9187WAT    EPW37470   2.351   0.331   2.057
 9188WAT      O37471   2.328   0.475   2.495
 9188WAT     H137472   2.393   0.427   2.529
 9188WAT     H237473   2.256   0.434   2.523
 9188WAT    EPW37474   2.327   0.462   2.504
 9189WAT      O37475   2.195   0.759   2.095
 9189WAT     H137476   2.246   0.775   2.026
 9189WAT     H237477   2.242   0.703   2.143
 9189WAT    EPW37478   2.210   0.753   2.092
 9190WAT      O37479   2.115   0.676   3.236
 9190WAT     H137480   2.151   0.652   3.311
 9190WAT     H237481   2.048   0.621   3.226
 9190WAT    EPW37482   2.110   0.665   3.245
 9191WAT      O37483   2.746   0.450   3.669
 9191WAT     H137484   2.719   0.433   3.750
 9191WAT     H237485   2.677   0.427   3.620
 9191WAT    EPW37486   2.732   0.444   3.673
 9192WAT      O37487   2.761   0.765   3.411
 9192WAT     H137488   2.783   0.825   3.352
 9192WAT     H237489   2.838   0.731   3.435
 9192WAT    EPW37490   2.776   0.769   3.405
 9193WAT      O37491   2.868   0.558   2.838
 9193WAT     H137492   2.891   0.481   2.872
 9193WAT     H237493   2.945   0.600   2.829
 9193WAT    EPW37494   2.883   0.553   2.842
 9194WAT      O37495   2.961   0.529   2.481
 9194WAT     H137496   2.967   0.457   2.530
 9194WAT     H237497   2.975   0.500   2.400
 9194WAT    EPW37498   2.964   0.514   2.477
 9195WAT      O37499   2.101   0.862   2.761
 9195WAT     H137500   2.036   0.905   2.721
 9195WAT     H237501   2.140   0.820   2.696
 9195WAT    EPW37502   2.097   0.862   2.746
 9196WAT      O37503   2.705   0.630   2.446
 9196WAT     H137504   2.669   0.609   2.523
 9196WAT     H237505   2.786   0.600   2.453
 9196WAT    EPW37506   2.712   0.622   2.459
 9197WAT      O37507   3.287   0.879   2.251
 9197WAT     H137508   3.354   0.935   2.256
 9197WAT     H237509   3.323   0.802   2.271
 9197WAT    EPW37510   3.302   0.876   2.254
 9198WAT      O37511   3.105   0.925   2.449
 9198WAT     H137512   3.130   1.001   2.483
 9198WAT     H237513   3.161   0.913   2.382
 9198WAT    EPW37514   3.117   0.935   2.444
 9199WAT      O37515   2.240   0.741   2.542
 9199WAT     H137516   2.285   0.666   2.544
 9199WAT     H237517   2.289   0.794   2.494
 9199WAT    EPW37518   2.254   0.738   2.535
 9200WAT      O37519   3.328   0.925   3.257
 9200WAT     H137520   3.397   0.978   3.256
 9200WAT     H237521   3.318   0.903   3.173
 9200WAT    EPW37522   3.336   0.930   3.244
 9201WAT      O37523   2.401   0.616   2.884
 9201WAT     H137524   2.467   0.603   2.829
 9201WAT     H237525   2.418   0.561   2.950
 9201WAT    EPW37526   2.413   0.606   2.886
 9202WAT      O37527   2.662   0.868   2.755
 9202WAT     H137528   2.740   0.890   2.723
 9202WAT     H237529   2.608   0.926   2.719
 9202WAT    EPW37530   2.666   0.879   2.745
 9203WAT      O37531   3.478   1.084   2.244
 9203WAT     H137532   3.535   1.065   2.181
 9203WAT     H237533   3.521   1.140   2.294
 9203WAT    EPW37534   3.493   1.089   2.242
 9204WAT      O37535   2.522   1.018   3.397
 9204WAT     H137536   2.559   0.980   3.467
 9204WAT     H237537   2.458   0.963   3.376
 9204WAT    EPW37538   2.518   1.004   3.404
 9205WAT      O37539   3.235   0.683   3.623
 9205WAT     H137540   3.225   0.695   3.709
 9205WAT     H237541   3.322   0.684   3.612
 9205WAT    EPW37542   3.247   0.685   3.634
 9206WAT      O37543   2.970   0.696   2.061
 9206WAT     H137544   2.946   0.759   2.117
 9206WAT     H237545   3.049   0.722   2.034
 9206WAT    EPW37546   2.978   0.709   2.065
 9207WAT      O37547   2.308   0.879   3.261
 9207WAT     H137548   2.244   0.819   3.257
 9207WAT     H237549   2.347   0.873   3.183
 9207WAT    EPW37550   2.304   0.869   3.249
 9208WAT      O37551   3.081   0.992   3.368
 9208WAT     H137552   3.160   0.973   3.334
 9208WAT     H237553   3.026   0.967   3.305
 9208WAT    EPW37554   3.085   0.985   3.353
 9209WAT      O37555   3.795   1.018   2.600
 9209WAT     H137556   3.753   1.087   2.634
 9209WAT     H237557   3.731   0.960   2.586
 9209WAT    EPW37558   3.779   1.020   2.603
 9210WAT      O37559   3.464   0.615   2.658
 9210WAT     H137560   3.496   0.534   2.660
 9210WAT     H237561   3.379   0.603   2.643
 9210WAT    EPW37562   3.456   0.601   2.656
 9211WAT      O37563   2.481   0.680   3.555
 9211WAT     H137564   2.552   0.724   3.533
 9211WAT     H237565   2.454   0.719   3.628
 9211WAT    EPW37566   2.487   0.692   3.563
 9212WAT      O37567   2.639   0.243   3.032
 9212WAT     H137568   2.661   0.247   3.117
 9212WAT     H237569   2.600   0.165   3.025
 9212WAT    EPW37570   2.636   0.232   3.044
 9213WAT      O37571   2.705   0.325   3.294
 9213WAT     H137572   2.703   0.409   3.270
 9213WAT     H237573   2.651   0.322   3.363
 9213WAT    EPW37574   2.697   0.337   3.301
 9214WAT      O37575   3.368   0.395   3.260
 9214WAT     H137576   3.310   0.343   3.301
 9214WAT     H237577   3.335   0.475   3.272
 9214WAT    EPW37578   3.354   0.399   3.268
 9215WAT      O37579   1.995   0.660   3.825
 9215WAT     H137580   2.049   0.661   3.893
 9215WAT     H237581   1.984   0.575   3.809
 9215WAT    EPW37582   2.001   0.648   3.833
 9216WAT      O37583   3.689   0.354   2.175
 9216WAT     H137584   3.686   0.316   2.253
 9216WAT     H237585   3.774   0.374   2.166
 9216WAT    EPW37586   3.701   0.351   2.185
 9217WAT      O37587   2.335   0.151   2.733
 9217WAT     H137588   2.401   0.193   2.694
 9217WAT     H237589   2.328   0.077   2.686
 9217WAT    EPW37590   2.343   0.146   2.720
 9218WAT      O37591   2.297   1.036   2.848
 9218WAT     H137592   2.226   0.991   2.822
 9218WAT     H237593   2.346   1.039   2.776
 9218WAT    EPW37594   2.294   1.030   2.833
 9219WAT      O37595   3.923   0.828   3.590
 9219WAT     H137596   3.847   0.833   3.547
 9219WAT     H237597   3.903   0.780   3.661
 9219WAT    EPW37598   3.909   0.821   3.594
 9220WAT      O37599   2.532   0.334   2.619
 9220WAT     H137600   2.567   0.403   2.659
 9220WAT     H237601   2.600   0.299   2.576
 9220WAT    EPW37602   2.547   0.339   2.618
 9221WAT      O37603   2.139   0.530   2.841
 9221WAT     H137604   2.087   0.586   2.882
 9221WAT     H237605   2.218   0.566   2.849
 9221WAT    EPW37606   2.143   0.544   2.848
 9222WAT      O37607   3.085   0.733   2.801
 9222WAT     H137608   3.037   0.802   2.775
 9222WAT     H237609   3.126   0.709   2.728
 9222WAT    EPW37610   3.084   0.740   2.786
 9223WAT      O37611   2.043   0.599   2.407
 9223WAT     H137612   2.103   0.651   2.442
 9223WAT     H237613   2.035   0.534   2.466
 9223WAT    EPW37614   2.050   0.597   2.421
 9224WAT      O37615   2.458   0.448   3.093
 9224WAT     H137616   2.511   0.496   3.143
 9224WAT     H237617   2.509   0.383   3.065
 9224WAT    EPW37618   2.474   0.446   3.096
 9225WAT      O37619   2.063   0.446   2.173
 9225WAT     H137620   2.146   0.426   2.157
 9225WAT     H237621   2.067   0.500   2.241
 9225WAT    EPW37622   2.075   0.451   2.180
 9226WAT      O37623   2.150   0.261   2.911
 9226WAT     H137624   2.209   0.223   2.860
 9226WAT     H237625   2.156   0.346   2.891
 9226WAT    EPW37626   2.160   0.268   2.900
 9227WAT      O37627   3.663   0.841   3.444
 9227WAT     H137628   3.612   0.909   3.463
 9227WAT     H237629   3.660   0.837   3.356
 9227WAT    EPW37630   3.655   0.851   3.434
 9228WAT      O37631   2.625   0.596   2.714
 9228WAT     H137632   2.626   0.683   2.719
 9228WAT     H237633   2.701   0.572   2.749
 9228WAT    EPW37634   2.636   0.605   2.720
 9229WAT      O37635   2.866   0.922   3.195
 9229WAT     H137636   2.846   0.860   3.137
 9229WAT     H237637   2.850   0.996   3.154
 9229WAT    EPW37638   2.861   0.924   3.180
 9230WAT      O37639   3.456   0.398   3.687
 9230WAT     H137640   3.478   0.479   3.666
 9230WAT     H237641   3.481   0.351   3.618
 9230WAT    EPW37642   3.463   0.403   3.674
 9231WAT      O37643   2.846   0.713   3.711
 9231WAT     H137644   2.879   0.704   3.791
 9231WAT     H237645   2.813   0.634   3.693
 9231WAT    EPW37646   2.846   0.700   3.720
 9232WAT      O37647   3.560   0.348   2.658
 9232WAT     H137648   3.625   0.323   2.711
 9232WAT     H237649   3.586   0.320   2.580
 9232WAT    EPW37650   3.574   0.340   2.654
 9233WAT      O37651   3.268   0.766   3.012
 9233WAT     H137652   3.210   0.754   2.948
 9233WAT     H237653   3.329   0.816   2.975
 9233WAT    EPW37654   3.268   0.772   2.997
 9234WAT      O37655   3.277   0.408   2.984
 9234WAT     H137656   3.203   0.450   3.003
 9234WAT     H237657   3.304   0.378   3.062
 9234WAT    EPW37658   3.270   0.410   2.999
 9235WAT      O37659   2.681   0.900   2.396
 9235WAT     H137660   2.689   0.819   2.427
 9235WAT     H237661   2.749   0.909   2.342
 9235WAT    EPW37662   2.693   0.890   2.393
 9236WAT      O37663   2.908   0.902   2.241
 9236WAT     H137664   2.969   0.921   2.300
 9236WAT     H237665   2.901   0.975   2.194
 9236WAT    EPW37666   2.916   0.915   2.242
 9237WAT      O37667   3.547   0.271   3.459
 9237WAT     H137668   3.516   0.313   3.390
 9237WAT     H237669   3.633   0.285   3.454
 9237WAT    EPW37670   3.555   0.279   3.448
 9238WAT      O37671   3.218   0.793   3.887
 9238WAT     H137672   3.247   0.815   3.966
 9238WAT     H237673   3.239   0.861   3.837
 9238WAT    EPW37674   3.225   0.806   3.891
 9239WAT      O37675   3.166   0.252   3.397
 9239WAT     H137676   3.117   0.301   3.451
 9239WAT     H237677   3.198   0.190   3.448
 9239WAT    EPW37678   3.163   0.250   3.412
 9240WAT      O37679   3.562   0.515   3.086
 9240WAT     H137680   3.517   0.516   3.011
 9240WAT     H237681   3.510   0.473   3.141
 9240WAT    EPW37682   3.548   0.509   3.083
 9241WAT      O37683   2.894   0.287   2.913
 9241WAT     H137684   2.811   0.270   2.933
 9241WAT     H237685   2.937   0.272   2.987
 9241WAT    EPW37686   2.888   0.282   2.927
 9242WAT      O37687   2.578   0.902   2.021
 9242WAT     H137688   2.602   0.833   2.068
 9242WAT     H237689   2.581   0.968   2.079
 9242WAT    EPW37690   2.582   0.902   2.037
 9243WAT      O37691   2.212   0.339   3.173
 9243WAT     H137692   2.286   0.381   3.153
 9243WAT     H237693   2.195   0.293   3.101
 9243WAT    EPW37694   2.220   0.338   3.159
 9244WAT      O37695   3.892   0.945   2.197
 9244WAT     H137696   3.953   0.894   2.162
 9244WAT     H237697   3.843   0.890   2.243
 9244WAT    EPW37698   3.894   0.930   2.198
 9245WAT      O37699   2.235   0.344   3.454
 9245WAT     H137700   2.230   0.333   3.367
 9245WAT     H237701   2.223   0.430   3.464
 9245WAT    EPW37702   2.232   0.355   3.443
 9246WAT      O37703   3.777   0.223   2.798
 9246WAT     H137704   3.741   0.156   2.841
 9246WAT     H237705   3.854   0.234   2.838
 9246WAT    EPW37706   3.783   0.215   2.810
 9247WAT      O37707   3.881   0.729   2.974
 9247WAT     H137708   3.907   0.783   2.910
 9247WAT     H237709   3.937   0.746   3.039
 9247WAT    EPW37710   3.893   0.740   2.974
 9248WAT      O37711   3.578   0.608   2.177
 9248WAT     H137712   3.609   0.527   2.176
 9248WAT     H237713   3.504   0.602   2.222
 9248WAT    EPW37714   3.572   0.595   2.183
 9249WAT      O37715   3.825   0.350   3.465
 9249WAT     H137716   3.910   0.329   3.469
 9249WAT     H237717   3.819   0.400   3.393
 9249WAT    EPW37718   3.837   0.354   3.455
 9250WAT      O37719   3.258   0.420   2.127
 9250WAT     H137720   3.319   0.361   2.110
 9250WAT     H237721   3.235   0.449   2.048
 9250WAT    EPW37722   3.264   0.416   2.113
 9251WAT      O37723   2.665   0.590   3.218
 9251WAT     H137724   2.686   0.640   3.286
 9251WAT     H237725   2.692   0.636   3.149
 9251WAT    EPW37726   2.672   0.604   3.218
 9252WAT      O37727   2.516   0.402   3.504
 9252WAT     H137728   2.436   0.368   3.495
 9252WAT     H237729   2.501   0.488   3.514
 9252WAT    EPW37730   2.502   0.410   3.504
 9253WAT      O37731   2.966   0.272   3.196
 9253WAT     H137732   3.025   0.250   3.257
 9253WAT     H237733   2.892   0.278   3.242
 9253WAT    EPW37734   2.964   0.270   3.212
 9254WAT      O37735   2.926   0.937   2.681
 9254WAT     H137736   2.921   1.023   2.696
 9254WAT     H237737   2.963   0.933   2.602
 9254WAT    EPW37738   2.931   0.949   2.671
 9255WAT      O37739   2.755   0.747   3.006
 9255WAT     H137740   2.713   0.793   2.944
 9255WAT     H237741   2.800   0.688   2.960
 9255WAT    EPW37742   2.756   0.745   2.990
 9256WAT      O37743   3.183   0.409   3.769
 9256WAT     H137744   3.261   0.412   3.730
 9256WAT     H237745   3.127   0.418   3.703
 9256WAT    EPW37746   3.186   0.410   3.753
 9257WAT      O37747   3.514   0.664   3.609
 9257WAT     H137748   3.544   0.695   3.686
 9257WAT     H237749   3.560   0.709   3.550
 9257WAT    EPW37750   3.525   0.675   3.612
 9258WAT      O37751   2.795   0.280   2.214
 9258WAT     H137752   2.741   0.313   2.154
 9258WAT     H237753   2.865   0.332   2.210
 9258WAT    EPW37754   2.798   0.293   2.205
 9259WAT      O37755   2.997   0.939   3.628
 9259WAT     H137756   3.017   0.937   3.543
 9259WAT     H237757   2.961   0.861   3.643
 9259WAT    EPW37758   2.995   0.927   3.618
 9260WAT      O37759   3.642   0.217   2.419
 9260WAT     H137760   3.702   0.160   2.447
 9260WAT     H237761   3.572   0.167   2.403
 9260WAT    EPW37762   3.640   0.201   2.421
 9261WAT      O37763   3.001   0.415   3.551
 9261WAT     H137764   2.922   0.412   3.589
 9261WAT     H237765   3.004   0.495   3.516
 9261WAT    EPW37766   2.990   0.426   3.551
 9262WAT      O37767   2.568   1.077   3.123
 9262WAT     H137768   2.560   1.066   3.209
 9262WAT     H237769   2.534   1.004   3.090
 9262WAT    EPW37770   2.562   1.065   3.131
 9263WAT      O37771   3.275   0.352   2.710
 9263WAT     H137772   3.275   0.368   2.795
 9263WAT     H237773   3.359   0.337   2.691
 9263WAT    EPW37774   3.287   0.352   2.719
 9264WAT      O37775   3.002   0.302   2.642
 9264WAT     H137776   2.969   0.291   2.722
 9264WAT     H237777   3.088   0.308   2.656
 9264WAT    EPW37778   3.009   0.301   2.656
 9265WAT      O37779   3.027   0.670   3.445
 9265WAT     H137780   3.084   0.683   3.509
 9265WAT     H237781   3.076   0.672   3.372
 9265WAT    EPW37782   3.043   0.672   3.443
 9266WAT      O37783   2.198   1.020   3.637
 9266WAT     H137784   2.140   0.956   3.625
 9266WAT     H237785   2.150   1.085   3.669
 9266WAT    EPW37786   2.182   1.020   3.640
 9267WAT      O37787   3.462   0.959   2.963
 9267WAT     H137788   3.436   1.034   2.999
 9267WAT     H237789   3.525   0.932   3.016
 9267WAT    EPW37790   3.467   0.966   2.976
 9268WAT      O37791   3.046   0.517   3.097
 9268WAT     H137792   3.016   0.445   3.135
 9268WAT     H237793   3.090   0.557   3.161
 9268WAT    EPW37794   3.048   0.512   3.112
 9269WAT      O37795   3.625   0.744   3.849
 9269WAT     H137796   3.707   0.717   3.837
 9269WAT     H237797   3.599   0.699   3.919
 9269WAT    EPW37798   3.634   0.734   3.858
 9270WAT      O37799   3.186   0.671   2.548
 9270WAT     H137800   3.166   0.751   2.520
 9270WAT     H237801   3.114   0.625   2.529
 9270WAT    EPW37802   3.172   0.676   2.541
 9271WAT      O37803   2.607   0.664   2.177
 9271WAT     H137804   2.650   0.656   2.252
 9271WAT     H237805   2.524   0.645   2.199
 9271WAT    EPW37806   2.601   0.660   2.192
 9272WAT      O37807   3.578   0.845   2.555
 9272WAT     H137808   3.547   0.772   2.589
 9272WAT     H237809   3.615   0.819   2.480
 9272WAT    EPW37810   3.579   0.831   2.549
 9273WAT      O37811   2.352   0.569   2.232
 9273WAT     H137812   2.346   0.540   2.315
 9273WAT     H237813   2.360   0.495   2.186
 9273WAT    EPW37814   2.352   0.554   2.238
 9274WAT      O37815   2.633   0.425   2.031
 9274WAT     H137816   2.549   0.402   2.035
 9274WAT     H237817   2.635   0.503   2.071
 9274WAT    EPW37818   2.621   0.433   2.037
 9275WAT      O37819   3.246   0.647   3.259
 9275WAT     H137820   3.283   0.709   3.307
 9275WAT     H237821   3.255   0.677   3.177
 9275WAT    EPW37822   3.253   0.661   3.254
 9276WAT      O37823   3.266   0.997   3.704
 9276WAT     H137824   3.189   0.973   3.671
 9276WAT     H237825   3.252   1.078   3.733
 9276WAT    EPW37826   3.252   1.005   3.704
 9277WAT      O37827   3.820   0.480   3.217
 9277WAT     H137828   3.882   0.435   3.176
 9277WAT     H237829   3.755   0.484   3.159
 9277WAT    EPW37830   3.820   0.474   3.202
 9278WAT      O37831   2.644   0.925   3.632
 9278WAT     H137832   2.637   0.922   3.719
 9278WAT     H237833   2.712   0.873   3.615
 9278WAT    EPW37834   2.653   0.917   3.642
 9279WAT      O37835   3.643   0.788   3.124
 9279WAT     H137836   3.715   0.781   3.076
 9279WAT     H237837   3.607   0.709   3.119
 9279WAT    EPW37838   3.648   0.775   3.116
 9280WAT      O37839   2.352   0.818   3.773
 9280WAT     H137840   2.423   0.851   3.813
 9280WAT     H237841   2.316   0.888   3.736
 9280WAT    EPW37842   2.357   0.833   3.773
 9281WAT      O37843   2.218   0.619   3.481
 9281WAT     H137844   2.165   0.674   3.522
 9281WAT     H237845   2.298   0.650   3.500
 9281WAT    EPW37846   2.222   0.632   3.490
 9282WAT      O37847   2.405   0.912   2.391
 9282WAT     H137848   2.378   0.950   2.318
 9282WAT     H237849   2.491   0.904   2.380
 9282WAT    EPW37850   2.414   0.916   2.379
 9283WAT      O37851   2.759   0.239   2.490
 9283WAT     H137852   2.771   0.245   2.404
 9283WAT     H237853   2.840   0.243   2.523
 9283WAT    EPW37854   2.772   0.240   2.482
 9284WAT      O37855   3.664   1.014   2.049
 9284WAT     H137856   3.741   0.999   2.087
 9284WAT     H237857   3.643   0.936   2.014
 9284WAT    EPW37858   3.672   1.000   2.049
 9285WAT      O37859   3.824   0.403   3.742
 9285WAT     H137860   3.762   0.352   3.775
 9285WAT     H237861   3.818   0.390   3.656
 9285WAT    EPW37862   3.814   0.394   3.734
 9286WAT      O37863   3.341   0.613   2.315
 9286WAT     H137864   3.297   0.610   2.390
 9286WAT     H237865   3.300   0.553   2.266
 9286WAT    EPW37866   3.329   0.603   2.319
 9287WAT      O37867   3.478   0.253   3.933
 9287WAT     H137868   3.551   0.284   3.970
 9287WAT     H237869   3.474   0.296   3.858
 9287WAT    EPW37870   3.488   0.264   3.928
 9288WAT      O37871   2.428   0.863   3.013
 9288WAT     H137872   2.424   0.785   2.974
 9288WAT     H237873   2.384   0.915   2.958
 9288WAT    EPW37874   2.421   0.859   2.999
 9289WAT      O37875   3.001   0.466   2.215
 9289WAT     H137876   3.079   0.438   2.190
 9289WAT     H237877   2.986   0.535   2.164
 9289WAT    EPW37878   3.010   0.472   2.204
 9290WAT      O37879   2.179   1.099   3.369
 9290WAT     H137880   2.187   1.075   3.453
 9290WAT     H237881   2.215   1.034   3.325
 9290WAT    EPW37882   2.185   1.086   3.375
 9291WAT      O37883   2.073   0.397   0.716
 9291WAT     H137884   2.086   0.444   0.787
 9291WAT     H237885   2.026   0.329   0.745
 9291WAT    EPW37886   2.068   0.394   0.731
 9292WAT      O37887   3.726   0.762   0.465
 9292WAT     H137888   3.783   0.700   0.488
 9292WAT     H237889   3.676   0.723   0.404
 9292WAT    EPW37890   3.727   0.747   0.459
 9293WAT      O37891   2.317   0.317   0.228
 9293WAT     H137892   2.300   0.288   0.147
 9293WAT     H237893   2.323   0.243   0.275
 9293WAT    EPW37894   2.315   0.302   0.223
 9294WAT      O37895   2.330   0.476   0.616
 9294WAT     H137896   2.400   0.428   0.637
 9294WAT     H237897   2.263   0.429   0.646
 9294WAT    EPW37898   2.330   0.462   0.624
 9295WAT      O37899   2.246   0.818   0.270
 9295WAT     H137900   2.281   0.825   0.191
 9295WAT     H237901   2.267   0.737   0.294
 9295WAT    EPW37902   2.254   0.807   0.262
 9296WAT      O37903   2.112   0.682   1.347
 9296WAT     H137904   2.149   0.655   1.422
 9296WAT     H237905   2.046   0.627   1.337
 9296WAT    EPW37906   2.108   0.670   1.357
 9297WAT      O37907   2.748   0.449   1.774
 9297WAT     H137908   2.719   0.435   1.855
 9297WAT     H237909   2.679   0.427   1.724
 9297WAT    EPW37910   2.733   0.443   1.778
 9298WAT      O37911   2.745   0.755   1.514
 9298WAT     H137912   2.765   0.818   1.456
 9298WAT     H237913   2.823   0.723   1.537
 9298WAT    EPW37914   2.759   0.760   1.509
 9299WAT      O37915   2.875   0.552   0.948
 9299WAT     H137916   2.896   0.474   0.982
 9299WAT     H237917   2.951   0.593   0.942
 9299WAT    EPW37918   2.889   0.546   0.952
 9300WAT      O37919   2.960   0.529   0.612
 9300WAT     H137920   2.968   0.461   0.665
 9300WAT     H237921   2.972   0.495   0.532
 9300WAT    EPW37922   2.963   0.514   0.608
 9301WAT      O37923   2.090   0.864   0.869
 9301WAT     H137924   2.029   0.912   0.827
 9301WAT     H237925   2.129   0.820   0.804
 9301WAT    EPW37926   2.086   0.865   0.853
 9302WAT      O37927   2.720   0.667   0.566
 9302WAT     H137928   2.679   0.640   0.639
 9302WAT     H237929   2.799   0.631   0.573
 9302WAT    EPW37930   2.725   0.658   0.578
 9303WAT      O37931   3.261   0.865   0.358
 9303WAT     H137932   3.325   0.923   0.346
 9303WAT     H237933   3.303   0.792   0.381
 9303WAT    EPW37934   3.277   0.862   0.359
 9304WAT      O37935   3.092   0.915   0.568
 9304WAT     H137936   3.122   0.987   0.606
 9304WAT     H237937   3.143   0.905   0.499
 9304WAT    EPW37938   3.104   0.924   0.564
 9305WAT      O37939   2.228   0.737   0.657
 9305WAT     H137940   2.277   0.665   0.663
 9305WAT     H237941   2.279   0.792   0.612
 9305WAT    EPW37942   2.243   0.735   0.651
 9306WAT      O37943   3.335   0.917   1.364
 9306WAT     H137944   3.408   0.964   1.360
 9306WAT     H237945   3.324   0.889   1.282
 9306WAT    EPW37946   3.344   0.920   1.351
 9307WAT      O37947   2.403   0.604   0.986
 9307WAT     H137948   2.469   0.590   0.930
 9307WAT     H237949   2.419   0.549   1.051
 9307WAT    EPW37950   2.415   0.594   0.987
 9308WAT      O37951   2.662   0.856   0.875
 9308WAT     H137952   2.740   0.885   0.849
 9308WAT     H237953   2.606   0.913   0.838
 9308WAT    EPW37954   2.665   0.869   0.866
 9309WAT      O37955   3.469   1.060   0.331
 9309WAT     H137956   3.516   1.018   0.271
 9309WAT     H237957   3.527   1.113   0.369
 9309WAT    EPW37958   3.485   1.062   0.328
 9310WAT      O37959   2.538   1.007   1.500
 9310WAT     H137960   2.570   0.976   1.575
 9310WAT     H237961   2.473   0.952   1.482
 9310WAT    EPW37962   2.533   0.994   1.508
 9311WAT      O37963   3.236   0.700   1.691
 9311WAT     H137964   3.217   0.658   1.765
 9311WAT     H237965   3.323   0.703   1.691
 9311WAT    EPW37966   3.246   0.694   1.702
 9312WAT      O37967   3.041   0.704   0.259
 9312WAT     H137968   2.978   0.765   0.264
 9312WAT     H237969   3.114   0.750   0.271
 9312WAT    EPW37970   3.042   0.720   0.261
 9313WAT      O37971   2.316   0.872   1.372
 9313WAT     H137972   2.250   0.816   1.367
 9313WAT     H237973   2.355   0.865   1.294
 9313WAT    EPW37974   2.312   0.863   1.360
 9314WAT      O37975   3.088   0.985   1.466
 9314WAT     H137976   3.166   0.965   1.432
 9314WAT     H237977   3.032   0.958   1.405
 9314WAT    EPW37978   3.091   0.978   1.452
 9315WAT      O37979   3.788   1.008   0.727
 9315WAT     H137980   3.747   1.084   0.743
 9315WAT     H237981   3.722   0.952   0.714
 9315WAT    EPW37982   3.772   1.011   0.727
 9316WAT      O37983   3.470   0.612   0.781
 9316WAT     H137984   3.510   0.535   0.778
 9316WAT     H237985   3.386   0.593   0.771
 9316WAT    EPW37986   3.464   0.598   0.779
 9317WAT      O37987   2.490   0.681   1.649
 9317WAT     H137988   2.563   0.718   1.619
 9317WAT     H237989   2.473   0.725   1.722
 9317WAT    EPW37990   2.498   0.693   1.655
 9318WAT      O37991   2.639   0.233   1.142
 9318WAT     H137992   2.661   0.239   1.226
 9318WAT     H237993   2.603   0.154   1.135
 9318WAT    EPW37994   2.637   0.222   1.154
 9319WAT      O37995   2.706   0.315   1.404
 9319WAT     H137996   2.701   0.398   1.377
 9319WAT     H237997   2.652   0.313   1.472
 9319WAT    EPW37998   2.697   0.327   1.410
 9320WAT      O37999   3.374   0.379   1.364
 9320WAT     H138000   3.315   0.331   1.407
 9320WAT     H238001   3.347   0.461   1.376
 9320WAT    EPW38002   3.361   0.384   1.372
 9321WAT      O38003   1.989   0.660   1.921
 9321WAT     H138004   2.047   0.666   1.985
 9321WAT     H238005   1.981   0.574   1.908
 9321WAT    EPW38006   1.997   0.648   1.928
 9322WAT      O38007   3.657   0.384   0.299
 9322WAT     H138008   3.644   0.339   0.372
 9322WAT     H238009   3.743   0.381   0.288
 9322WAT    EPW38010   3.668   0.377   0.308
 9323WAT      O38011   2.348   0.161   0.805
 9323WAT     H138012   2.420   0.193   0.766
 9323WAT     H238013   2.337   0.084   0.766
 9323WAT    EPW38014   2.357   0.154   0.794
 9324WAT      O38015   2.296   1.022   0.961
 9324WAT     H138016   2.223   0.982   0.934
 9324WAT     H238017   2.346   1.024   0.889
 9324WAT    EPW38018   2.293   1.016   0.946
 9325WAT      O38019   3.929   0.794   1.683
 9325WAT     H138020   3.854   0.803   1.638
 9325WAT     H238021   3.904   0.755   1.757
 9325WAT    EPW38022   3.914   0.790   1.687
 9326WAT      O38023   2.560   0.335   0.679
 9326WAT     H138024   2.596   0.399   0.726
 9326WAT     H238025   2.616   0.322   0.614
 9326WAT    EPW38026   2.573   0.342   0.676
 9327WAT      O38027   2.138   0.525   0.951
 9327WAT     H138028   2.087   0.581   0.993
 9327WAT     H238029   2.218   0.561   0.957
 9327WAT    EPW38030   2.143   0.538   0.959
 9328WAT      O38031   3.094   0.728   0.920
 9328WAT     H138032   3.043   0.795   0.898
 9328WAT     H238033   3.132   0.705   0.845
 9328WAT    EPW38034   3.092   0.735   0.906
 9329WAT      O38035   2.042   0.585   0.516
 9329WAT     H138036   2.100   0.640   0.551
 9329WAT     H238037   2.036   0.522   0.577
 9329WAT    EPW38038   2.049   0.584   0.530
 9330WAT      O38039   2.454   0.438   1.196
 9330WAT     H138040   2.507   0.486   1.246
 9330WAT     H238041   2.505   0.372   1.169
 9330WAT    EPW38042   2.470   0.435   1.200
 9331WAT      O38043   2.047   0.396   0.308
 9331WAT     H138044   2.130   0.380   0.283
 9331WAT     H238045   2.055   0.461   0.366
 9331WAT    EPW38046   2.061   0.403   0.313
 9332WAT      O38047   2.168   0.252   1.003
 9332WAT     H138048   2.227   0.221   0.947
 9332WAT     H238049   2.168   0.338   0.988
 9332WAT    EPW38050   2.176   0.260   0.993
 9333WAT      O38051   3.679   0.824   1.550
 9333WAT     H138052   3.633   0.897   1.561
 9333WAT     H238053   3.674   0.809   1.464
 9333WAT    EPW38054   3.671   0.832   1.539
 9334WAT      O38055   2.632   0.589   0.820
 9334WAT     H138056   2.631   0.676   0.833
 9334WAT     H238057   2.707   0.564   0.855
 9334WAT    EPW38058   2.643   0.598   0.827
 9335WAT      O38059   2.874   0.906   1.303
 9335WAT     H138060   2.850   0.846   1.245
 9335WAT     H238061   2.864   0.981   1.259
 9335WAT    EPW38062   2.869   0.909   1.288
 9336WAT      O38063   3.453   0.403   1.785
 9336WAT     H138064   3.479   0.484   1.764
 9336WAT     H238065   3.480   0.355   1.718
 9336WAT    EPW38066   3.461   0.408   1.772
 9337WAT      O38067   2.845   0.714   1.810
 9337WAT     H138068   2.878   0.708   1.891
 9337WAT     H238069   2.814   0.634   1.794
 9337WAT    EPW38070   2.846   0.702   1.820
 9338WAT      O38071   3.577   0.350   0.770
 9338WAT     H138072   3.645   0.322   0.818
 9338WAT     H238073   3.593   0.318   0.691
 9338WAT    EPW38074   3.589   0.341   0.766
 9339WAT      O38075   3.290   0.775   1.117
 9339WAT     H138076   3.228   0.759   1.059
 9339WAT     H238077   3.338   0.838   1.080
 9339WAT    EPW38078   3.288   0.782   1.103
 9340WAT      O38079   3.277   0.409   1.096
 9340WAT     H138080   3.202   0.449   1.114
 9340WAT     H238081   3.302   0.376   1.173
 9340WAT    EPW38082   3.270   0.410   1.110
 9341WAT      O38083   2.655   0.921   0.463
 9341WAT     H138084   2.671   0.847   0.506
 9341WAT     H238085   2.726   0.933   0.413
 9341WAT    EPW38086   2.668   0.912   0.462
 9342WAT      O38087   2.906   0.937   0.352
 9342WAT     H138088   2.950   0.920   0.425
 9342WAT     H238089   2.924   1.021   0.336
 9342WAT    EPW38090   2.915   0.947   0.361
 9343WAT      O38091   3.551   0.266   1.568
 9343WAT     H138092   3.520   0.302   1.495
 9343WAT     H238093   3.637   0.278   1.561
 9343WAT    EPW38094   3.559   0.273   1.556
 9344WAT      O38095   3.217   0.803   1.993
 9344WAT     H138096   3.243   0.835   2.070
 9344WAT     H238097   3.249   0.860   1.936
 9344WAT    EPW38098   3.226   0.816   1.996
 9345WAT      O38099   3.169   0.249   1.508
 9345WAT     H138100   3.121   0.298   1.563
 9345WAT     H238101   3.198   0.185   1.559
 9345WAT    EPW38102   3.166   0.247   1.524
 9346WAT      O38103   3.572   0.497   1.191
 9346WAT     H138104   3.526   0.512   1.118
 9346WAT     H238105   3.517   0.451   1.241
 9346WAT    EPW38106   3.557   0.493   1.187
 9347WAT      O38107   2.899   0.284   1.032
 9347WAT     H138108   2.816   0.265   1.048
 9347WAT     H238109   2.938   0.272   1.110
 9347WAT    EPW38110   2.893   0.279   1.046
 9348WAT      O38111   2.202   0.339   1.269
 9348WAT     H138112   2.277   0.380   1.252
 9348WAT     H238113   2.190   0.288   1.200
 9348WAT    EPW38114   2.211   0.338   1.256
 9349WAT      O38115   3.878   0.932   0.312
 9349WAT     H138116   3.954   0.892   0.296
 9349WAT     H238117   3.836   0.877   0.365
 9349WAT    EPW38118   3.883   0.918   0.318
 9350WAT      O38119   2.237   0.343   1.551
 9350WAT     H138120   2.229   0.334   1.465
 9350WAT     H238121   2.225   0.429   1.563
 9350WAT    EPW38122   2.234   0.355   1.540
 9351WAT      O38123   3.806   0.213   0.880
 9351WAT     H138124   3.774   0.135   0.903
 9351WAT     H238125   3.879   0.221   0.926
 9351WAT    EPW38126   3.812   0.203   0.890
 9352WAT      O38127   3.881   0.722   1.089
 9352WAT     H138128   3.906   0.779   1.027
 9352WAT     H238129   3.938   0.735   1.153
 9352WAT    EPW38130   3.893   0.733   1.089
 9353WAT      O38131   3.571   0.646   0.271
 9353WAT     H138132   3.602   0.565   0.266
 9353WAT     H238133   3.499   0.639   0.320
 9353WAT    EPW38134   3.565   0.633   0.277
 9354WAT      O38135   3.831   0.337   1.573
 9354WAT     H138136   3.915   0.312   1.575
 9354WAT     H238137   3.826   0.384   1.500
 9354WAT    EPW38138   3.843   0.341   1.562
 9355WAT      O38139   3.255   0.421   0.246
 9355WAT     H138140   3.325   0.374   0.221
 9355WAT     H238141   3.233   0.465   0.175
 9355WAT    EPW38142   3.262   0.420   0.232
 9356WAT      O38143   2.661   0.576   1.322
 9356WAT     H138144   2.677   0.628   1.390
 9356WAT     H238145   2.689   0.621   1.254
 9356WAT    EPW38146   2.667   0.590   1.322
 9357WAT      O38147   2.517   0.400   1.611
 9357WAT     H138148   2.437   0.367   1.598
 9357WAT     H238149   2.503   0.486   1.616
 9357WAT    EPW38150   2.503   0.408   1.610
 9358WAT      O38151   2.970   0.275   1.310
 9358WAT     H138152   3.028   0.251   1.370
 9358WAT     H238153   2.895   0.278   1.354
 9358WAT    EPW38154   2.968   0.272   1.325
 9359WAT      O38155   2.926   0.932   0.814
 9359WAT     H138156   2.928   1.016   0.836
 9359WAT     H238157   2.957   0.932   0.732
 9359WAT    EPW38158   2.931   0.944   0.805
 9360WAT      O38159   2.756   0.734   1.118
 9360WAT     H138160   2.714   0.781   1.058
 9360WAT     H238161   2.802   0.677   1.070
 9360WAT    EPW38162   2.756   0.733   1.102
 9361WAT      O38163   3.193   0.477   1.864
 9361WAT     H138164   3.268   0.448   1.829
 9361WAT     H238165   3.133   0.450   1.807
 9361WAT    EPW38166   3.195   0.469   1.850
 9362WAT      O38167   3.513   0.669   1.714
 9362WAT     H138168   3.539   0.703   1.790
 9362WAT     H238169   3.565   0.708   1.655
 9362WAT    EPW38170   3.525   0.680   1.716
 9363WAT      O38171   3.015   0.929   1.727
 9363WAT     H138172   3.032   0.929   1.642
 9363WAT     H238173   2.975   0.852   1.740
 9363WAT    EPW38174   3.012   0.918   1.717
 9364WAT      O38175   3.633   0.216   0.528
 9364WAT     H138176   3.710   0.175   0.529
 9364WAT     H238177   3.575   0.152   0.518
 9364WAT    EPW38178   3.636   0.200   0.527
 9365WAT      O38179   3.006   0.415   1.662
 9365WAT     H138180   2.927   0.410   1.699
 9365WAT     H238181   3.004   0.491   1.619
 9365WAT    EPW38182   2.994   0.426   1.661
 9366WAT      O38183   2.572   1.068   1.221
 9366WAT     H138184   2.567   1.060   1.308
 9366WAT     H238185   2.542   0.992   1.191
 9366WAT    EPW38186   2.567   1.056   1.230
 9367WAT      O38187   3.296   0.359   0.824
 9367WAT     H138188   3.294   0.373   0.910
 9367WAT     H238189   3.380   0.342   0.808
 9367WAT    EPW38190   3.308   0.358   0.834
 9368WAT      O38191   3.023   0.313   0.772
 9368WAT     H138192   2.991   0.292   0.850
 9368WAT     H238193   3.109   0.318   0.787
 9368WAT    EPW38194   3.031   0.311   0.786
 9369WAT      O38195   3.013   0.663   1.533
 9369WAT     H138196   3.082   0.683   1.581
 9369WAT     H238197   3.040   0.674   1.451
 9369WAT    EPW38198   3.027   0.667   1.528
 9370WAT      O38199   2.202   1.023   1.743
 9370WAT     H138200   2.146   0.958   1.729
 9370WAT     H238201   2.151   1.088   1.773
 9370WAT    EPW38202   2.186   1.023   1.745
 9371WAT      O38203   3.421   1.020   1.065
 9371WAT     H138204   3.362   1.083   1.081
 9371WAT     H238205   3.482   1.033   1.126
 9371WAT    EPW38206   3.421   1.031   1.076
 9372WAT      O38207   3.051   0.524   1.217
 9372WAT     H138208   3.022   0.451   1.254
 9372WAT     H238209   3.112   0.553   1.273
 9372WAT    EPW38210   3.056   0.517   1.231
 9373WAT      O38211   3.620   0.760   1.951
 9373WAT     H138212   3.702   0.732   1.939
 9373WAT     H238213   3.592   0.712   2.019
 9373WAT    EPW38214   3.628   0.749   1.959
 9374WAT      O38215   3.189   0.668   0.664
 9374WAT     H138216   3.165   0.747   0.637
 9374WAT     H238217   3.119   0.619   0.649
 9374WAT    EPW38218   3.175   0.673   0.658
 9375WAT      O38219   2.613   0.614   0.308
 9375WAT     H138220   2.653   0.627   0.384
 9375WAT     H238221   2.528   0.615   0.329
 9375WAT    EPW38222   2.606   0.616   0.322
 9376WAT      O38223   3.565   0.848   0.674
 9376WAT     H138224   3.537   0.775   0.712
 9376WAT     H238225   3.605   0.820   0.602
 9376WAT    EPW38226   3.567   0.833   0.669
 9377WAT      O38227   2.340   0.570   0.354
 9377WAT     H138228   2.334   0.544   0.437
 9377WAT     H238229   2.334   0.495   0.309
 9377WAT    EPW38230   2.338   0.555   0.360
 9378WAT      O38231   2.603   0.354   0.213
 9378WAT     H138232   2.516   0.349   0.212
 9378WAT     H238233   2.618   0.438   0.229
 9378WAT    EPW38234   2.592   0.365   0.215
 9379WAT      O38235   3.267   0.634   1.356
 9379WAT     H138236   3.293   0.695   1.412
 9379WAT     H238237   3.283   0.669   1.278
 9379WAT    EPW38238   3.273   0.648   1.353
 9380WAT      O38239   3.288   0.995   1.792
 9380WAT     H138240   3.217   0.957   1.760
 9380WAT     H238241   3.262   1.076   1.808
 9380WAT    EPW38242   3.273   1.001   1.790
 9381WAT      O38243   3.827   0.460   1.324
 9381WAT     H138244   3.891   0.419   1.281
 9381WAT     H238245   3.763   0.466   1.264
 9381WAT    EPW38246   3.827   0.455   1.308
 9382WAT      O38247   2.657   0.928   1.749
 9382WAT     H138248   2.641   0.934   1.834
 9382WAT     H238249   2.718   0.866   1.744
 9382WAT    EPW38250   2.664   0.920   1.761
 9383WAT      O38251   3.662   0.754   1.275
 9383WAT     H138252   3.723   0.761   1.214
 9383WAT     H238253   3.623   0.678   1.256
 9383WAT    EPW38254   3.665   0.744   1.263
 9384WAT      O38255   2.359   0.820   1.873
 9384WAT     H138256   2.426   0.853   1.917
 9384WAT     H238257   2.320   0.889   1.837
 9384WAT    EPW38258   2.363   0.835   1.874
 9385WAT      O38259   2.223   0.618   1.589
 9385WAT     H138260   2.171   0.675   1.629
 9385WAT     H238261   2.303   0.650   1.603
 9385WAT    EPW38262   2.227   0.631   1.597
 9386WAT      O38263   2.382   0.908   0.499
 9386WAT     H138264   2.340   0.896   0.424
 9386WAT     H238265   2.466   0.912   0.476
 9386WAT    EPW38266   2.389   0.907   0.485
 9387WAT      O38267   2.735   0.313   0.455
 9387WAT     H138268   2.693   0.313   0.378
 9387WAT     H238269   2.815   0.341   0.435
 9387WAT    EPW38270   2.741   0.317   0.441
 9388WAT      O38271   3.634   0.908   0.166
 9388WAT     H138272   3.715   0.917   0.197
 9388WAT     H238273   3.616   0.824   0.181
 9388WAT    EPW38274   3.643   0.897   0.173
 9389WAT      O38275   3.825   0.400   1.847
 9389WAT     H138276   3.765   0.346   1.879
 9389WAT     H238277   3.822   0.386   1.761
 9389WAT    EPW38278   3.816   0.390   1.839
 9390WAT      O38279   3.347   0.614   0.432
 9390WAT     H138280   3.310   0.613   0.511
 9390WAT     H238281   3.307   0.548   0.390
 9390WAT    EPW38282   3.336   0.604   0.437
 9391WAT      O38283   3.468   0.263   2.031
 9391WAT     H138284   3.542   0.291   2.069
 9391WAT     H238285   3.468   0.304   1.954
 9391WAT    EPW38286   3.479   0.273   2.025
 9392WAT      O38287   2.429   0.847   1.122
 9392WAT     H138288   2.427   0.771   1.080
 9392WAT     H238289   2.385   0.901   1.070
 9392WAT    EPW38290   2.423   0.844   1.108
 9393WAT      O38291   2.988   0.443   0.354
 9393WAT     H138292   3.064   0.408   0.328
 9393WAT     H238293   2.988   0.522   0.317
 9393WAT    EPW38294   2.999   0.449   0.345
 9394WAT      O38295   2.181   1.093   1.471
 9394WAT     H138296   2.190   1.071   1.555
 9394WAT     H238297   2.220   1.028   1.428
 9394WAT    EPW38298   2.188   1.080   1.477
 9395WAT      O38299   1.279   6.670   6.389
 9395WAT     H138300   1.282   6.714   6.314
 9395WAT     H238301   1.363   6.651   6.405
 9395WAT    EPW38302   1.292   6.673   6.380
 9396WAT      O38303   1.221   7.313   6.808
 9396WAT     H138304   1.189   7.389   6.837
 9396WAT     H238305   1.274   7.288   6.873
 9396WAT    EPW38306   1.224   7.321   6.822
 9397WAT      O38307   1.501   7.478   6.476
 9397WAT     H138308   1.503   7.477   6.389
 9397WAT     H238309   1.441   7.417   6.496
 9397WAT    EPW38310   1.493   7.469   6.466
 9398WAT      O38311   0.935   6.773   6.257
 9398WAT     H138312   0.926   6.843   6.206
 9398WAT     H238313   1.014   6.743   6.237
 9398WAT    EPW38314   0.945   6.779   6.247
 9399WAT      O38315   0.386   7.520   6.470
 9399WAT     H138316   0.340   7.468   6.418
 9399WAT     H238317   0.457   7.473   6.488
 9399WAT    EPW38318   0.390   7.505   6.465
 9400WAT      O38319   0.839   7.090   7.012
 9400WAT     H138320   0.906   7.095   6.956
 9400WAT     H238321   0.820   7.005   7.014
 9400WAT    EPW38322   0.846   7.078   7.004
 9401WAT      O38323   0.567   7.319   6.554
 9401WAT     H138324   0.644   7.279   6.557
 9401WAT     H238325   0.510   7.252   6.549
 9401WAT    EPW38326   0.570   7.303   6.554
 9402WAT      O38327   1.198   7.327   7.477
 9402WAT     H138328   1.111   7.327   7.486
 9402WAT     H238329   1.211   7.375   7.405
 9402WAT    EPW38330   1.187   7.334   7.467
 9403WAT      O38331   0.656   6.769   6.313
 9403WAT     H138332   0.623   6.835   6.267
 9403WAT     H238333   0.740   6.768   6.290
 9403WAT    EPW38334   0.663   6.779   6.302
 9404WAT      O38335   1.645   6.580   7.340
 9404WAT     H138336   1.631   6.649   7.288
 9404WAT     H238337   1.566   6.563   7.374
 9404WAT    EPW38338   1.631   6.588   7.337
 9405WAT      O38339   0.959   6.740   6.533
 9405WAT     H138340   0.976   6.823   6.553
 9405WAT     H238341   0.937   6.744   6.448
 9405WAT    EPW38342   0.958   6.753   6.524
 9406WAT      O38343   1.383   6.992   5.799
 9406WAT     H138344   1.340   7.060   5.833
 9406WAT     H238345   1.397   6.939   5.867
 9406WAT    EPW38346   1.379   6.994   5.814
 9407WAT      O38347   0.477   6.754   6.753
 9407WAT     H138348   0.433   6.685   6.723
 9407WAT     H238349   0.536   6.719   6.807
 9407WAT    EPW38350   0.479   6.739   6.756
 9408WAT      O38351   1.950   6.968   6.489
 9408WAT     H138352   1.899   7.038   6.502
 9408WAT     H238353   1.893   6.903   6.480
 9408WAT    EPW38354   1.934   6.969   6.490
 9409WAT      O38355   0.376   6.816   7.528
 9409WAT     H138356   0.346   6.884   7.483
 9409WAT     H238357   0.459   6.809   7.503
 9409WAT    EPW38358   0.384   6.825   7.518
 9410WAT      O38359   1.067   6.761   7.548
 9410WAT     H138360   1.065   6.679   7.518
 9410WAT     H238361   1.002   6.800   7.506
 9410WAT    EPW38362   1.057   6.755   7.538
 9411WAT      O38363   1.120   7.206   6.405
 9411WAT     H138364   1.147   7.164   6.333
 9411WAT     H238365   1.194   7.227   6.446
 9411WAT    EPW38366   1.135   7.202   6.400
 9412WAT      O38367   1.226   7.198   5.924
 9412WAT     H138368   1.235   7.277   5.962
 9412WAT     H238369   1.147   7.202   5.888
 9412WAT    EPW38370   1.216   7.210   5.924
 9413WAT      O38371   1.864   6.899   6.918
 9413WAT     H138372   1.924   6.882   6.856
 9413WAT     H238373   1.885   6.844   6.982
 9413WAT    EPW38374   1.876   6.888   6.918
 9414WAT      O38375   1.434   6.820   6.009
 9414WAT     H138376   1.486   6.750   6.014
 9414WAT     H238377   1.453   6.865   6.081
 9414WAT    EPW38378   1.444   6.816   6.021
 9415WAT      O38379   0.267   7.009   6.234
 9415WAT     H138380   0.237   6.972   6.306
 9415WAT     H238381   0.260   7.094   6.250
 9415WAT    EPW38382   0.262   7.016   6.247
 9416WAT      O38383   1.195   7.074   6.171
 9416WAT     H138384   1.126   7.023   6.154
 9416WAT     H238385   1.209   7.116   6.095
 9416WAT    EPW38386   1.187   7.073   6.157
 9417WAT      O38387   1.192   6.748   6.126
 9417WAT     H138388   1.134   6.739   6.062
 9417WAT     H238389   1.265   6.771   6.084
 9417WAT    EPW38390   1.195   6.750   6.110
 9418WAT      O38391   1.027   7.008   6.575
 9418WAT     H138392   1.052   7.073   6.522
 9418WAT     H238393   1.033   7.042   6.655
 9418WAT    EPW38394   1.031   7.023   6.579
 9419WAT      O38395   0.592   6.538   6.460
 9419WAT     H138396   0.609   6.602   6.404
 9419WAT     H238397   0.543   6.482   6.413
 9419WAT    EPW38398   0.587   6.539   6.445
 9420WAT      O38399   1.348   6.974   7.151
 9420WAT     H138400   1.341   7.010   7.230
 9420WAT     H238401   1.285   6.915   7.150
 9420WAT    EPW38402   1.338   6.971   7.163
 9421WAT      O38403   1.536   6.596   6.477
 9421WAT     H138404   1.537   6.582   6.563
 9421WAT     H238405   1.570   6.523   6.444
 9421WAT    EPW38406   1.541   6.583   6.485
 9422WAT      O38407   1.735   7.043   7.251
 9422WAT     H138408   1.821   7.030   7.251
 9422WAT     H238409   1.714   7.041   7.336
 9422WAT    EPW38410   1.744   7.041   7.264
 9423WAT      O38411   0.592   6.907   6.547
 9423WAT     H138412   0.611   6.852   6.482
 9423WAT     H238413   0.561   6.855   6.610
 9423WAT    EPW38414   0.590   6.891   6.547
 9424WAT      O38415   0.373   7.165   6.880
 9424WAT     H138416   0.459   7.158   6.867
 9424WAT     H238417   0.355   7.247   6.856
 9424WAT    EPW38418   0.383   7.176   6.874
 9425WAT      O38419   1.621   7.448   5.943
 9425WAT     H138420   1.627   7.535   5.932
 9425WAT     H238421   1.589   7.440   6.023
 9425WAT    EPW38422   1.617   7.460   5.953
 9426WAT      O38423   1.914   6.865   5.924
 9426WAT     H138424   1.967   6.814   5.878
 9426WAT     H238425   1.896   6.931   5.870
 9426WAT    EPW38426   1.919   6.867   5.909
 9427WAT      O38427   2.021   7.249   7.180
 9427WAT     H138428   2.092   7.201   7.167
 9427WAT     H238429   1.975   7.240   7.107
 9427WAT    EPW38430   2.025   7.241   7.168
 9428WAT      O38431   1.791   6.769   6.156
 9428WAT     H138432   1.866   6.734   6.183
 9428WAT     H238433   1.813   6.814   6.085
 9428WAT    EPW38434   1.805   6.770   6.150
 9429WAT      O38435   1.489   7.035   6.617
 9429WAT     H138436   1.520   7.002   6.692
 9429WAT     H238437   1.429   6.977   6.593
 9429WAT    EPW38438   1.485   7.022   6.625
 9430WAT      O38439   0.939   6.982   6.080
 9430WAT     H138440   0.916   6.966   5.997
 9430WAT     H238441   0.904   7.060   6.097
 9430WAT    EPW38442   0.930   6.991   6.070
 9431WAT      O38443   0.632   7.346   7.507
 9431WAT     H138444   0.559   7.344   7.555
 9431WAT     H238445   0.606   7.322   7.428
 9431WAT    EPW38446   0.617   7.342   7.503
 9432WAT      O38447   0.556   7.234   6.051
 9432WAT     H138448   0.558   7.157   6.093
 9432WAT     H238449   0.506   7.218   5.981
 9432WAT    EPW38450   0.549   7.220   6.047
 9433WAT      O38451   0.411   7.428   6.764
 9433WAT     H138452   0.367   7.481   6.711
 9433WAT     H238453   0.474   7.395   6.714
 9433WAT    EPW38454   0.414   7.431   6.749
 9434WAT      O38455   0.570   7.392   7.011
 9434WAT     H138456   0.605   7.333   6.957
 9434WAT     H238457   0.510   7.432   6.962
 9434WAT    EPW38458   0.566   7.389   6.996
 9435WAT      O38459   1.628   7.214   6.886
 9435WAT     H138460   1.555   7.234   6.930
 9435WAT     H238461   1.628   7.272   6.820
 9435WAT    EPW38462   1.617   7.226   6.883
 9436WAT      O38463   1.201   6.750   7.239
 9436WAT     H138464   1.228   6.669   7.218
 9436WAT     H238465   1.236   6.763   7.318
 9436WAT    EPW38466   1.210   6.740   7.248
 9437WAT      O38467   1.447   6.967   6.239
 9437WAT     H138468   1.501   7.035   6.249
 9437WAT     H238469   1.369   7.006   6.227
 9437WAT    EPW38470   1.443   6.983   6.239
 9438WAT      O38471   1.046   7.098   6.830
 9438WAT     H138472   1.105   7.162   6.833
 9438WAT     H238473   1.086   7.031   6.869
 9438WAT    EPW38474   1.060   7.097   6.836
 9439WAT      O38475   1.233   7.431   6.082
 9439WAT     H138476   1.219   7.506   6.040
 9439WAT     H238477   1.165   7.424   6.135
 9439WAT    EPW38478   1.221   7.441   6.083
 9440WAT      O38479   0.724   6.665   5.976
 9440WAT     H138480   0.702   6.637   6.055
 9440WAT     H238481   0.669   6.732   5.962
 9440WAT    EPW38482   0.712   6.671   5.986
 9441WAT      O38483   1.830   6.642   7.542
 9441WAT     H138484   1.774   6.621   7.479
 9441WAT     H238485   1.784   6.628   7.615
 9441WAT    EPW38486   1.815   6.637   7.544
 9442WAT      O38487   1.015   7.415   6.256
 9442WAT     H138488   0.986   7.481   6.306
 9442WAT     H238489   1.039   7.354   6.313
 9442WAT    EPW38490   1.014   7.416   6.272
 9443WAT      O38491   0.581   6.895   5.914
 9443WAT     H138492   0.525   6.897   5.847
 9443WAT     H238493   0.652   6.934   5.882
 9443WAT    EPW38494   0.583   6.901   5.899
 9444WAT      O38495   0.763   7.117   6.593
 9444WAT     H138496   0.844   7.087   6.582
 9444WAT     H238497   0.712   7.048   6.577
 9444WAT    EPW38498   0.767   7.102   6.589
 9445WAT      O38499   0.324   7.277   6.312
 9445WAT     H138500   0.348   7.226   6.379
 9445WAT     H238501   0.396   7.282   6.263
 9445WAT    EPW38502   0.338   7.270   6.315
 9446WAT      O38503   0.733   7.365   5.858
 9446WAT     H138504   0.678   7.335   5.919
 9446WAT     H238505   0.683   7.368   5.786
 9446WAT    EPW38506   0.717   7.361   5.856
 9447WAT      O38507   0.838   7.230   6.133
 9447WAT     H138508   0.881   7.300   6.164
 9447WAT     H238509   0.757   7.259   6.121
 9447WAT    EPW38510   0.832   7.245   6.136
 9448WAT      O38511   1.614   6.955   7.502
 9448WAT     H138512   1.570   6.939   7.576
 9448WAT     H238513   1.587   6.891   7.449
 9448WAT    EPW38514   1.603   6.943   7.505
 9449WAT      O38515   0.275   6.958   6.723
 9449WAT     H138516   0.293   7.018   6.784
 9449WAT     H238517   0.330   6.892   6.742
 9449WAT    EPW38518   0.286   6.957   6.735
 9450WAT      O38519   1.463   7.309   7.585
 9450WAT     H138520   1.459   7.311   7.673
 9450WAT     H238521   1.384   7.334   7.560
 9450WAT    EPW38522   1.451   7.313   7.595
 9451WAT      O38523   1.713   7.393   7.479
 9451WAT     H138524   1.717   7.478   7.494
 9451WAT     H238525   1.637   7.369   7.513
 9451WAT    EPW38526   1.702   7.402   7.486
 9452WAT      O38527   1.728   7.145   6.528
 9452WAT     H138528   1.660   7.098   6.557
 9452WAT     H238529   1.723   7.220   6.572
 9452WAT    EPW38530   1.718   7.149   6.539
 9453WAT      O38531   1.578   6.821   7.200
 9453WAT     H138532   1.635   6.887   7.201
 9453WAT     H238533   1.503   6.859   7.177
 9453WAT    EPW38534   1.575   6.837   7.197
 9454WAT      O38535   0.818   7.135   7.281
 9454WAT     H138536   0.835   7.056   7.315
 9454WAT     H238537   0.834   7.124   7.196
 9454WAT    EPW38538   0.823   7.122   7.274
 9455WAT      O38539   1.669   6.629   7.013
 9455WAT     H138540   1.634   6.697   7.054
 9455WAT     H238541   1.754   6.634   7.035
 9455WAT    EPW38542   1.677   6.640   7.023
 9456WAT      O38543   0.938   6.667   7.198
 9456WAT     H138544   1.019   6.698   7.204
 9456WAT     H238545   0.945   6.606   7.136
 9456WAT    EPW38546   0.951   6.662   7.190
 9457WAT      O38547   1.865   7.297   5.917
 9457WAT     H138548   1.924   7.342   5.869
 9457WAT     H238549   1.793   7.346   5.910
 9457WAT    EPW38550   1.863   7.311   5.909
 9458WAT      O38551   0.648   7.181   6.841
 9458WAT     H138552   0.685   7.166   6.764
 9458WAT     H238553   0.706   7.148   6.898
 9458WAT    EPW38554   0.662   7.174   6.838
 9459WAT      O38555   1.347   7.100   7.409
 9459WAT     H138556   1.283   7.151   7.439
 9459WAT     H238557   1.416   7.123   7.459
 9459WAT    EPW38558   1.348   7.111   7.421
 9460WAT      O38559   1.376   7.213   7.008
 9460WAT     H138560   1.376   7.262   7.081
 9460WAT     H238561   1.366   7.132   7.037
 9460WAT    EPW38562   1.374   7.209   7.023
 9461WAT      O38563   1.619   7.193   6.277
 9461WAT     H138564   1.644   7.175   6.359
 9461WAT     H238565   1.690   7.228   6.241
 9461WAT    EPW38566   1.633   7.195   6.284
 9462WAT      O38567   0.931   6.687   6.810
 9462WAT     H138568   0.846   6.678   6.830
 9462WAT     H238569   0.930   6.693   6.723
 9462WAT    EPW38570   0.918   6.687   6.800
 9463WAT      O38571   1.747   6.778   6.434
 9463WAT     H138572   1.672   6.739   6.452
 9463WAT     H238573   1.743   6.793   6.348
 9463WAT    EPW38574   1.735   6.775   6.424
 9464WAT      O38575   0.536   6.981   6.172
 9464WAT     H138576   0.540   6.948   6.091
 9464WAT     H238577   0.451   6.981   6.190
 9464WAT    EPW38578   0.524   6.976   6.162
 9465WAT      O38579   1.925   7.208   7.438
 9465WAT     H138580   1.866   7.269   7.459
 9465WAT     H238581   1.959   7.238   7.363
 9465WAT    EPW38582   1.921   7.221   7.430
 9466WAT      O38583   1.389   7.335   7.252
 9466WAT     H138584   1.381   7.262   7.298
 9466WAT     H238585   1.475   7.343   7.240
 9466WAT    EPW38586   1.401   7.325   7.257
 9467WAT      O38587   0.561   7.247   7.253
 9467WAT     H138588   0.565   7.301   7.186
 9467WAT     H238589   0.641   7.211   7.255
 9467WAT    EPW38590   0.574   7.249   7.244
 9468WAT      O38591   0.401   7.047   7.137
 9468WAT     H138592   0.378   7.083   7.061
 9468WAT     H238593   0.444   7.112   7.178
 9468WAT    EPW38594   0.404   7.062   7.132
 9469WAT      O38595   1.847   7.329   6.195
 9469WAT     H138596   1.863   7.326   6.109
 9469WAT     H238597   1.926   7.334   6.230
 9469WAT    EPW38598   1.861   7.329   6.187
 9470WAT      O38599   0.622   6.759   7.412
 9470WAT     H138600   0.663   6.682   7.409
 9470WAT     H238601   0.591   6.769   7.331
 9470WAT    EPW38602   0.624   6.749   7.400
 9471WAT      O38603   1.659   7.313   7.214
 9471WAT     H138604   1.690   7.231   7.211
 9471WAT     H238605   1.693   7.344   7.288
 9471WAT    EPW38606   1.669   7.305   7.225
 9472WAT      O38607   0.409   7.176   5.810
 9472WAT     H138608   0.322   7.187   5.819
 9472WAT     H238609   0.416   7.097   5.774
 9472WAT    EPW38610   0.397   7.166   5.806
 9473WAT      O38611   1.323   6.829   7.484
 9473WAT     H138612   1.325   6.914   7.466
 9473WAT     H238613   1.245   6.817   7.521
 9473WAT    EPW38614   1.312   6.840   7.487
 9474WAT      O38615   1.271   6.863   6.588
 9474WAT     H138616   1.195   6.905   6.582
 9474WAT     H238617   1.266   6.802   6.526
 9474WAT    EPW38618   1.259   6.860   6.578
 9475WAT      O38619   1.590   6.940   6.860
 9475WAT     H138620   1.671   6.909   6.870
 9475WAT     H238621   1.598   7.025   6.880
 9475WAT    EPW38622   1.603   6.948   6.864
 9476WAT      O38623   1.677   7.384   6.666
 9476WAT     H138624   1.741   7.442   6.674
 9476WAT     H238625   1.623   7.420   6.608
 9476WAT    EPW38626   1.678   7.398   6.659
 9477WAT      O38627   0.769   6.829   7.042
 9477WAT     H138628   0.688   6.814   7.070
 9477WAT     H238629   0.818   6.773   7.088
 9477WAT    EPW38630   0.764   6.819   7.053
 9478WAT      O38631   1.924   6.728   7.130
 9478WAT     H138632   1.939   6.785   7.195
 9478WAT     H238633   1.999   6.684   7.124
 9478WAT    EPW38634   1.937   6.730   7.139
 9479WAT      O38635   1.124   6.856   6.934
 9479WAT     H138636   1.063   6.804   6.899
 9479WAT     H238637   1.199   6.818   6.910
 9479WAT    EPW38638   1.126   6.843   6.925
 9480WAT      O38639   0.918   7.318   7.465
 9480WAT     H138640   0.895   7.261   7.403
 9480WAT     H238641   0.842   7.344   7.499
 9480WAT    EPW38642   0.903   7.313   7.461
 9481WAT      O38643   0.997   6.694   5.937
 9481WAT     H138644   1.007   6.699   5.850
 9481WAT     H238645   0.911   6.700   5.948
 9481WAT    EPW38646   0.986   6.695   5.925
 9482WAT      O38647   0.520   6.798   7.160
 9482WAT     H138648   0.457   6.737   7.156
 9482WAT     H238649   0.477   6.873   7.148
 9482WAT    EPW38650   0.504   6.800   7.158
 9483WAT      O38651   1.368   6.766   6.830
 9483WAT     H138652   1.433   6.822   6.850
 9483WAT     H238653   1.339   6.795   6.753
 9483WAT    EPW38654   1.374   6.779   6.822
 9484WAT      O38655   1.340   7.266   6.561
 9484WAT     H138656   1.391   7.197   6.579
 9484WAT     H238657   1.304   7.285   6.638
 9484WAT    EPW38658   1.342   7.258   6.575
 9485WAT      O38659   0.396   7.102   6.519
 9485WAT     H138660   0.343   7.071   6.580
 9485WAT     H238661   0.458   7.041   6.512
 9485WAT    EPW38662   0.397   7.088   6.527
 9486WAT      O38663   1.495   7.430   6.193
 9486WAT     H138664   1.519   7.350   6.219
 9486WAT     H238665   1.412   7.418   6.169
 9486WAT    EPW38666   1.486   7.416   6.194
 9487WAT      O38667   1.847   7.037   7.653
 9487WAT     H138668   1.888   7.094   7.601
 9487WAT     H238669   1.783   7.005   7.603
 9487WAT    EPW38670   1.844   7.041   7.638
 9488WAT      O38671   1.899   7.176   6.938
 9488WAT     H138672   1.816   7.201   6.930
 9488WAT     H238673   1.895   7.089   6.935
 9488WAT    EPW38674   1.886   7.167   6.936
 9489WAT      O38675   0.870   6.878   7.382
 9489WAT     H138676   0.887   6.828   7.312
 9489WAT     H238677   0.789   6.854   7.404
 9489WAT    EPW38678   0.860   6.867   7.375
 9490WAT      O38679   1.278   6.671   4.488
 9490WAT     H138680   1.281   6.714   4.412
 9490WAT     H238681   1.362   6.652   4.504
 9490WAT    EPW38682   1.291   6.674   4.479
 9491WAT      O38683   1.225   7.301   4.918
 9491WAT     H138684   1.192   7.378   4.944
 9491WAT     H238685   1.280   7.280   4.982
 9491WAT    EPW38686   1.228   7.310   4.931
 9492WAT      O38687   1.497   7.477   4.578
 9492WAT     H138688   1.499   7.475   4.491
 9492WAT     H238689   1.439   7.416   4.599
 9492WAT    EPW38690   1.489   7.468   4.568
 9493WAT      O38691   0.943   6.778   4.372
 9493WAT     H138692   0.932   6.846   4.319
 9493WAT     H238693   1.022   6.747   4.350
 9493WAT    EPW38694   0.953   6.784   4.361
 9494WAT      O38695   0.426   7.561   4.579
 9494WAT     H138696   0.374   7.514   4.526
 9494WAT     H238697   0.489   7.505   4.601
 9494WAT    EPW38698   0.428   7.546   4.574
 9495WAT      O38699   0.843   7.085   5.142
 9495WAT     H138700   0.909   7.088   5.085
 9495WAT     H238701   0.825   7.000   5.148
 9495WAT    EPW38702   0.850   7.073   5.134
 9496WAT      O38703   0.555   7.314   4.665
 9496WAT     H138704   0.627   7.267   4.674
 9496WAT     H238705   0.496   7.257   4.636
 9496WAT    EPW38706   0.557   7.299   4.662
 9497WAT      O38707   1.252   7.328   5.595
 9497WAT     H138708   1.166   7.331   5.583
 9497WAT     H238709   1.285   7.363   5.523
 9497WAT    EPW38710   1.244   7.333   5.583
 9498WAT      O38711   0.663   6.777   4.418
 9498WAT     H138712   0.633   6.842   4.368
 9498WAT     H238713   0.748   6.774   4.399
 9498WAT    EPW38714   0.671   6.786   4.408
 9499WAT      O38715   1.635   6.580   5.436
 9499WAT     H138716   1.607   6.643   5.383
 9499WAT     H238717   1.564   6.556   5.480
 9499WAT    EPW38718   1.621   6.585   5.435
 9500WAT      O38719   0.957   6.736   4.651
 9500WAT     H138720   0.970   6.819   4.676
 9500WAT     H238721   0.939   6.743   4.566
 9500WAT    EPW38722   0.956   6.749   4.642
 9501WAT      O38723   1.380   6.993   3.900
 9501WAT     H138724   1.337   7.060   3.935
 9501WAT     H238725   1.394   6.940   3.968
 9501WAT    EPW38726   1.376   6.995   3.915
 9502WAT      O38727   0.463   6.762   4.851
 9502WAT     H138728   0.424   6.690   4.821
 9502WAT     H238729   0.522   6.731   4.908
 9502WAT    EPW38730   0.466   6.746   4.855
 9503WAT      O38731   0.824   6.987   5.811
 9503WAT     H138732   0.818   6.967   5.726
 9503WAT     H238733   0.866   7.063   5.811
 9503WAT    EPW38734   0.829   6.995   5.798
 9504WAT      O38735   1.953   6.967   4.590
 9504WAT     H138736   1.902   7.037   4.603
 9504WAT     H238737   1.896   6.902   4.581
 9504WAT    EPW38738   1.937   6.968   4.591
 9505WAT      O38739   0.417   6.916   5.683
 9505WAT     H138740   0.340   6.919   5.641
 9505WAT     H238741   0.467   6.870   5.629
 9505WAT    EPW38742   0.413   6.910   5.669
 9506WAT      O38743   1.038   6.693   5.664
 9506WAT     H138744   1.065   6.616   5.635
 9506WAT     H238745   0.985   6.722   5.601
 9506WAT    EPW38746   1.034   6.686   5.651
 9507WAT      O38747   1.118   7.200   4.514
 9507WAT     H138748   1.145   7.159   4.442
 9507WAT     H238749   1.192   7.221   4.555
 9507WAT    EPW38750   1.133   7.197   4.510
 9508WAT      O38751   1.225   7.198   4.027
 9508WAT     H138752   1.233   7.276   4.065
 9508WAT     H238753   1.146   7.201   3.991
 9508WAT    EPW38754   1.215   7.210   4.027
 9509WAT      O38755   1.863   6.887   5.016
 9509WAT     H138756   1.925   6.874   4.956
 9509WAT     H238757   1.882   6.828   5.078
 9509WAT    EPW38758   1.875   6.876   5.016
 9510WAT      O38759   1.434   6.819   4.108
 9510WAT     H138760   1.486   6.750   4.113
 9510WAT     H238761   1.453   6.865   4.179
 9510WAT    EPW38762   1.444   6.816   4.119
 9511WAT      O38763   0.291   6.962   4.363
 9511WAT     H138764   0.228   6.904   4.381
 9511WAT     H238765   0.302   7.005   4.438
 9511WAT    EPW38766   0.283   6.960   4.377
 9512WAT      O38767   1.193   7.076   4.275
 9512WAT     H138768   1.125   7.024   4.258
 9512WAT     H238769   1.207   7.117   4.200
 9512WAT    EPW38770   1.185   7.074   4.261
 9513WAT      O38771   1.193   6.749   4.227
 9513WAT     H138772   1.134   6.740   4.163
 9513WAT     H238773   1.266   6.771   4.184
 9513WAT    EPW38774   1.195   6.751   4.211
 9514WAT      O38775   1.017   7.009   4.689
 9514WAT     H138776   1.044   7.073   4.636
 9514WAT     H238777   1.026   7.042   4.769
 9514WAT    EPW38778   1.022   7.023   4.693
 9515WAT      O38779   0.598   6.542   4.561
 9515WAT     H138780   0.615   6.607   4.506
 9515WAT     H238781   0.550   6.487   4.514
 9515WAT    EPW38782   0.594   6.543   4.546
 9516WAT      O38783   1.349   6.968   5.244
 9516WAT     H138784   1.353   7.000   5.325
 9516WAT     H238785   1.279   6.915   5.247
 9516WAT    EPW38786   1.339   6.965   5.257
 9517WAT      O38787   1.536   6.595   4.571
 9517WAT     H138788   1.535   6.580   4.657
 9517WAT     H238789   1.572   6.522   4.538
 9517WAT    EPW38790   1.541   6.582   4.579
 9518WAT      O38791   1.742   7.006   5.384
 9518WAT     H138792   1.828   7.004   5.399
 9518WAT     H238793   1.707   7.006   5.464
 9518WAT    EPW38794   1.749   7.006   5.398
 9519WAT      O38795   0.575   6.917   4.645
 9519WAT     H138796   0.602   6.862   4.583
 9519WAT     H238797   0.545   6.864   4.707
 9519WAT    EPW38798   0.574   6.901   4.645
 9520WAT      O38799   0.373   7.166   4.986
 9520WAT     H138800   0.460   7.158   4.979
 9520WAT     H238801   0.359   7.248   4.961
 9520WAT    EPW38802   0.384   7.177   4.981
 9521WAT      O38803   1.621   7.450   4.047
 9521WAT     H138804   1.626   7.537   4.037
 9521WAT     H238805   1.587   7.441   4.127
 9521WAT    EPW38806   1.617   7.461   4.057
 9522WAT      O38807   1.916   6.869   4.028
 9522WAT     H138808   1.969   6.816   3.984
 9522WAT     H238809   1.897   6.932   3.971
 9522WAT    EPW38810   1.921   6.870   4.013
 9523WAT      O38811   0.968   7.223   5.813
 9523WAT     H138812   0.903   7.271   5.846
 9523WAT     H238813   0.974   7.251   5.730
 9523WAT    EPW38814   0.959   7.234   5.806
 9524WAT      O38815   2.032   7.279   5.247
 9524WAT     H138816   2.094   7.217   5.247
 9524WAT     H238817   1.979   7.254   5.183
 9524WAT    EPW38818   2.034   7.266   5.238
 9525WAT      O38819   1.791   6.769   4.258
 9525WAT     H138820   1.866   6.734   4.284
 9525WAT     H238821   1.814   6.815   4.187
 9525WAT    EPW38822   1.806   6.771   4.251
 9526WAT      O38823   1.491   7.030   4.708
 9526WAT     H138824   1.522   6.995   4.782
 9526WAT     H238825   1.428   6.974   4.684
 9526WAT    EPW38826   1.487   7.016   4.716
 9527WAT      O38827   0.938   6.978   4.184
 9527WAT     H138828   0.918   6.960   4.102
 9527WAT     H238829   0.904   7.057   4.198
 9527WAT    EPW38830   0.930   6.987   4.174
 9528WAT      O38831   0.561   7.346   5.639
 9528WAT     H138832   0.503   7.294   5.680
 9528WAT     H238833   0.546   7.332   5.555
 9528WAT    EPW38834   0.550   7.336   5.633
 9529WAT      O38835   0.559   7.236   4.142
 9529WAT     H138836   0.559   7.162   4.187
 9529WAT     H238837   0.509   7.217   4.072
 9529WAT    EPW38838   0.551   7.222   4.138
 9530WAT      O38839   0.405   7.428   4.871
 9530WAT     H138840   0.366   7.492   4.826
 9530WAT     H238841   0.459   7.392   4.813
 9530WAT    EPW38842   0.407   7.432   4.856
 9531WAT      O38843   0.563   7.400   5.114
 9531WAT     H138844   0.602   7.337   5.068
 9531WAT     H238845   0.506   7.434   5.057
 9531WAT    EPW38846   0.560   7.396   5.098
 9532WAT      O38847   1.626   7.204   4.974
 9532WAT     H138848   1.563   7.229   5.029
 9532WAT     H238849   1.627   7.267   4.914
 9532WAT    EPW38850   1.617   7.217   4.973
 9533WAT      O38851   1.185   6.758   5.357
 9533WAT     H138852   1.210   6.680   5.327
 9533WAT     H238853   1.231   6.767   5.431
 9533WAT    EPW38854   1.195   6.748   5.364
 9534WAT      O38855   1.446   6.968   4.337
 9534WAT     H138856   1.501   7.035   4.348
 9534WAT     H238857   1.369   7.007   4.327
 9534WAT    EPW38858   1.443   6.984   4.337
 9535WAT      O38859   1.043   7.092   4.948
 9535WAT     H138860   1.105   7.153   4.948
 9535WAT     H238861   1.082   7.022   4.981
 9535WAT    EPW38862   1.058   7.091   4.953
 9536WAT      O38863   1.231   7.430   4.186
 9536WAT     H138864   1.215   7.505   4.144
 9536WAT     H238865   1.163   7.422   4.240
 9536WAT    EPW38866   1.218   7.440   4.187
 9537WAT      O38867   0.725   6.664   4.076
 9537WAT     H138868   0.702   6.636   4.156
 9537WAT     H238869   0.670   6.730   4.061
 9537WAT    EPW38870   0.713   6.669   4.086
 9538WAT      O38871   1.751   6.731   5.639
 9538WAT     H138872   1.718   6.682   5.575
 9538WAT     H238873   1.753   6.677   5.708
 9538WAT    EPW38874   1.747   6.716   5.640
 9539WAT      O38875   1.015   7.409   4.362
 9539WAT     H138876   0.984   7.474   4.412
 9539WAT     H238877   1.039   7.348   4.419
 9539WAT    EPW38878   1.014   7.410   4.378
 9540WAT      O38879   0.583   6.892   4.008
 9540WAT     H138880   0.527   6.896   3.942
 9540WAT     H238881   0.655   6.931   3.977
 9540WAT    EPW38882   0.586   6.898   3.994
 9541WAT      O38883   0.751   7.116   4.713
 9541WAT     H138884   0.832   7.085   4.700
 9541WAT     H238885   0.700   7.049   4.692
 9541WAT    EPW38886   0.756   7.101   4.708
 9542WAT      O38887   0.321   7.340   4.426
 9542WAT     H138888   0.320   7.265   4.471
 9542WAT     H238889   0.363   7.319   4.353
 9542WAT    EPW38890   0.327   7.325   4.422
 9543WAT      O38891   0.735   7.368   3.953
 9543WAT     H138892   0.682   7.338   4.015
 9543WAT     H238893   0.685   7.370   3.882
 9543WAT    EPW38894   0.720   7.364   3.951
 9544WAT      O38895   0.841   7.230   4.227
 9544WAT     H138896   0.882   7.298   4.263
 9544WAT     H238897   0.759   7.259   4.217
 9544WAT    EPW38898   0.835   7.244   4.230
 9545WAT      O38899   1.615   6.980   5.640
 9545WAT     H138900   1.554   6.985   5.702
 9545WAT     H238901   1.645   6.898   5.648
 9545WAT    EPW38902   1.610   6.968   5.650
 9546WAT      O38903   0.268   6.975   4.814
 9546WAT     H138904   0.316   6.905   4.834
 9546WAT     H238905   0.289   7.033   4.876
 9546WAT    EPW38906   0.278   6.973   4.826
 9547WAT      O38907   1.518   7.322   5.709
 9547WAT     H138908   1.532   7.354   5.789
 9547WAT     H238909   1.431   7.328   5.699
 9547WAT    EPW38910   1.507   7.328   5.719
 9548WAT      O38911   1.720   7.395   5.534
 9548WAT     H138912   1.712   7.482   5.535
 9548WAT     H238913   1.655   7.368   5.586
 9548WAT    EPW38914   1.709   7.404   5.542
 9549WAT      O38915   1.731   7.145   4.627
 9549WAT     H138916   1.664   7.097   4.655
 9549WAT     H238917   1.724   7.219   4.672
 9549WAT    EPW38918   1.720   7.149   4.638
 9550WAT      O38919   2.061   7.403   5.746
 9550WAT     H138920   2.039   7.363   5.671
 9550WAT     H238921   2.147   7.412   5.740
 9550WAT    EPW38922   2.070   7.398   5.734
 9551WAT      O38923   1.576   6.807   5.276
 9551WAT     H138924   1.632   6.869   5.299
 9551WAT     H238925   1.503   6.851   5.256
 9551WAT    EPW38926   1.573   6.822   5.276
 9552WAT      O38927   0.801   7.174   5.400
 9552WAT     H138928   0.790   7.099   5.443
 9552WAT     H238929   0.821   7.150   5.319
 9552WAT    EPW38930   0.802   7.160   5.394
 9553WAT      O38931   1.665   6.613   5.094
 9553WAT     H138932   1.633   6.683   5.136
 9553WAT     H238933   1.749   6.614   5.115
 9553WAT    EPW38934   1.672   6.624   5.103
 9554WAT      O38935   0.914   6.728   5.409
 9554WAT     H138936   0.997   6.735   5.381
 9554WAT     H238937   0.904   6.642   5.420
 9554WAT    EPW38938   0.925   6.716   5.407
 9555WAT      O38939   1.861   7.295   4.020
 9555WAT     H138940   1.919   7.341   3.974
 9555WAT     H238941   1.789   7.345   4.017
 9555WAT    EPW38942   1.859   7.310   4.013
 9556WAT      O38943   0.652   7.176   4.968
 9556WAT     H138944   0.688   7.160   4.890
 9556WAT     H238945   0.709   7.144   5.024
 9556WAT    EPW38946   0.665   7.169   4.965
 9557WAT      O38947   1.391   7.093   5.491
 9557WAT     H138948   1.341   7.132   5.550
 9557WAT     H238949   1.459   7.064   5.537
 9557WAT    EPW38950   1.394   7.094   5.506
 9558WAT      O38951   1.384   7.218   5.122
 9558WAT     H138952   1.392   7.263   5.196
 9558WAT     H238953   1.373   7.136   5.149
 9558WAT    EPW38954   1.384   7.212   5.137
 9559WAT      O38955   1.619   7.194   4.377
 9559WAT     H138956   1.644   7.175   4.459
 9559WAT     H238957   1.690   7.229   4.342
 9559WAT    EPW38958   1.633   7.196   4.384
 9560WAT      O38959   0.926   6.671   4.936
 9560WAT     H138960   0.841   6.670   4.957
 9560WAT     H238961   0.925   6.676   4.849
 9560WAT    EPW38962   0.913   6.672   4.926
 9561WAT      O38963   1.749   6.777   4.535
 9561WAT     H138964   1.674   6.738   4.553
 9561WAT     H238965   1.745   6.793   4.450
 9561WAT    EPW38966   1.738   6.774   4.525
 9562WAT      O38967   0.548   6.983   4.265
 9562WAT     H138968   0.552   6.949   4.185
 9562WAT     H238969   0.465   6.972   4.289
 9562WAT    EPW38970   0.537   6.977   4.257
 9563WAT      O38971   1.970   7.277   5.516
 9563WAT     H138972   1.890   7.310   5.525
 9563WAT     H238973   1.990   7.292   5.432
 9563WAT    EPW38974   1.961   7.284   5.505
 9564WAT      O38975   1.425   7.336   5.365
 9564WAT     H138976   1.418   7.259   5.405
 9564WAT     H238977   1.509   7.338   5.340
 9564WAT    EPW38978   1.437   7.325   5.368
 9565WAT      O38979   0.542   7.274   5.365
 9565WAT     H138980   0.544   7.326   5.295
 9565WAT     H238981   0.624   7.245   5.371
 9565WAT    EPW38982   0.554   7.277   5.355
 9566WAT      O38983   0.384   7.070   5.251
 9566WAT     H138984   0.367   7.101   5.172
 9566WAT     H238985   0.427   7.135   5.290
 9566WAT    EPW38986   0.388   7.084   5.245
 9567WAT      O38987   1.848   7.331   4.298
 9567WAT     H138988   1.864   7.325   4.212
 9567WAT     H238989   1.927   7.334   4.333
 9567WAT    EPW38990   1.862   7.330   4.290
 9568WAT      O38991   0.571   6.743   5.512
 9568WAT     H138992   0.631   6.681   5.498
 9568WAT     H238993   0.545   6.766   5.432
 9568WAT    EPW38994   0.576   6.737   5.498
 9569WAT      O38995   1.683   7.268   5.288
 9569WAT     H138996   1.702   7.184   5.302
 9569WAT     H238997   1.713   7.308   5.359
 9569WAT    EPW38998   1.690   7.261   5.300
 9570WAT      O38999   0.409   7.173   3.905
 9570WAT     H139000   0.323   7.186   3.912
 9570WAT     H239001   0.415   7.095   3.868
 9570WAT    EPW39002   0.397   7.164   3.900
 9571WAT      O39003   1.292   6.793   5.618
 9571WAT     H139004   1.317   6.861   5.667
 9571WAT     H239005   1.212   6.775   5.647
 9571WAT    EPW39006   1.284   6.800   5.630
 9572WAT      O39007   1.266   6.867   4.684
 9572WAT     H139008   1.187   6.905   4.681
 9572WAT     H239009   1.260   6.805   4.622
 9572WAT    EPW39010   1.253   6.863   4.675
 9573WAT      O39011   1.590   6.931   4.950
 9573WAT     H139012   1.670   6.899   4.963
 9573WAT     H239013   1.597   7.015   4.970
 9573WAT    EPW39014   1.603   6.939   4.955
 9574WAT      O39015   1.678   7.384   4.764
 9574WAT     H139016   1.743   7.442   4.769
 9574WAT     H239017   1.623   7.420   4.707
 9574WAT    EPW39018   1.679   7.398   4.757
 9575WAT      O39019   0.767   6.826   5.184
 9575WAT     H139020   0.682   6.817   5.201
 9575WAT     H239021   0.805   6.781   5.248
 9575WAT    EPW39022   0.760   6.818   5.196
 9576WAT      O39023   1.916   6.691   5.212
 9576WAT     H139024   1.899   6.717   5.294
 9576WAT     H239025   1.998   6.662   5.216
 9576WAT    EPW39026   1.925   6.691   5.225
 9577WAT      O39027   1.125   6.848   5.040
 9577WAT     H139028   1.063   6.792   5.015
 9577WAT     H239029   1.198   6.811   5.011
 9577WAT    EPW39030   1.126   6.834   5.032
 9578WAT      O39031   0.969   7.332   5.556
 9578WAT     H139032   0.923   7.282   5.502
 9578WAT     H239033   0.918   7.401   5.569
 9578WAT    EPW39034   0.955   7.335   5.550
 9579WAT      O39035   0.997   6.696   4.037
 9579WAT     H139036   1.007   6.701   3.950
 9579WAT     H239037   0.911   6.700   4.048
 9579WAT    EPW39038   0.986   6.698   4.026
 9580WAT      O39039   0.496   6.818   5.263
 9580WAT     H139040   0.432   6.759   5.251
 9580WAT     H239041   0.455   6.894   5.253
 9580WAT    EPW39042   0.480   6.820   5.259
 9581WAT      O39043   1.363   6.764   4.923
 9581WAT     H139044   1.429   6.817   4.943
 9581WAT     H239045   1.333   6.795   4.847
 9581WAT    EPW39046   1.369   6.776   4.915
 9582WAT      O39047   1.341   7.262   4.666
 9582WAT     H139048   1.393   7.193   4.680
 9582WAT     H239049   1.307   7.278   4.745
 9582WAT    EPW39050   1.343   7.254   4.680
 9583WAT      O39051   0.374   7.102   4.591
 9583WAT     H139052   0.323   7.077   4.658
 9583WAT     H239053   0.442   7.047   4.596
 9583WAT    EPW39054   0.376   7.090   4.602
 9584WAT      O39055   1.493   7.429   4.296
 9584WAT     H139056   1.518   7.349   4.321
 9584WAT     H239057   1.410   7.418   4.271
 9584WAT    EPW39058   1.484   7.416   4.296
 9585WAT      O39059   1.856   7.070   5.752
 9585WAT     H139060   1.851   7.145   5.796
 9585WAT     H239061   1.776   7.060   5.720
 9585WAT    EPW39062   1.843   7.079   5.754
 9586WAT      O39063   1.898   7.166   5.028
 9586WAT     H139064   1.814   7.190   5.021
 9586WAT     H239065   1.894   7.079   5.030
 9586WAT    EPW39066   1.885   7.156   5.027
 9587WAT      O39067   0.780   6.932   5.538
 9587WAT     H139068   0.834   6.881   5.492
 9587WAT     H239069   0.703   6.889   5.534
 9587WAT    EPW39070   0.776   6.918   5.531
 9588WAT      O39071   1.280   6.668   2.589
 9588WAT     H139072   1.284   6.713   2.514
 9588WAT     H239073   1.363   6.648   2.605
 9588WAT    EPW39074   1.293   6.672   2.580
 9589WAT      O39075   1.233   7.300   3.025
 9589WAT     H139076   1.197   7.375   3.048
 9589WAT     H239077   1.289   7.283   3.089
 9589WAT    EPW39078   1.236   7.308   3.038
 9590WAT      O39079   1.498   7.475   2.678
 9590WAT     H139080   1.499   7.473   2.591
 9590WAT     H239081   1.440   7.413   2.699
 9590WAT    EPW39082   1.489   7.466   2.669
 9591WAT      O39083   0.941   6.777   2.472
 9591WAT     H139084   0.931   6.846   2.419
 9591WAT     H239085   1.019   6.746   2.451
 9591WAT    EPW39086   0.951   6.783   2.461
 9592WAT      O39087   0.387   7.513   2.668
 9592WAT     H139088   0.344   7.461   2.613
 9592WAT     H239089   0.457   7.465   2.690
 9592WAT    EPW39090   0.391   7.498   2.663
 9593WAT      O39091   0.843   7.086   3.239
 9593WAT     H139092   0.911   7.087   3.184
 9593WAT     H239093   0.824   7.001   3.246
 9593WAT    EPW39094   0.850   7.073   3.232
 9594WAT      O39095   0.562   7.311   2.765
 9594WAT     H139096   0.640   7.271   2.772
 9594WAT     H239097   0.507   7.245   2.752
 9594WAT    EPW39098   0.566   7.295   2.764
 9595WAT      O39099   1.250   7.321   3.698
 9595WAT     H139100   1.164   7.327   3.685
 9595WAT     H239101   1.285   7.355   3.626
 9595WAT    EPW39102   1.243   7.327   3.686
 9596WAT      O39103   0.660   6.769   2.515
 9596WAT     H139104   0.627   6.834   2.468
 9596WAT     H239105   0.745   6.769   2.495
 9596WAT    EPW39106   0.668   6.779   2.505
 9597WAT      O39107   1.632   6.586   3.546
 9597WAT     H139108   1.603   6.649   3.492
 9597WAT     H239109   1.560   6.562   3.589
 9597WAT    EPW39110   1.617   6.592   3.544
 9598WAT      O39111   0.957   6.735   2.751
 9598WAT     H139112   0.973   6.818   2.775
 9598WAT     H239113   0.938   6.742   2.666
 9598WAT    EPW39114   0.957   6.748   2.742
 9599WAT      O39115   1.381   6.992   2.000
 9599WAT     H139116   1.338   7.058   2.035
 9599WAT     H239117   1.396   6.938   2.067
 9599WAT    EPW39118   1.377   6.993   2.015
 9600WAT      O39119   0.471   6.755   2.952
 9600WAT     H139120   0.429   6.685   2.921
 9600WAT     H239121   0.528   6.721   3.008
 9600WAT    EPW39122   0.473   6.740   2.956
 9601WAT      O39123   0.828   6.983   3.909
 9601WAT     H139124   0.822   6.964   3.824
 9601WAT     H239125   0.869   7.060   3.911
 9601WAT    EPW39126   0.833   6.991   3.897
 9602WAT      O39127   1.952   6.964   2.691
 9602WAT     H139128   1.900   7.034   2.703
 9602WAT     H239129   1.895   6.899   2.681
 9602WAT    EPW39130   1.936   6.965   2.691
 9603WAT      O39131   0.417   6.914   3.778
 9603WAT     H139132   0.342   6.919   3.734
 9603WAT     H239133   0.469   6.867   3.725
 9603WAT    EPW39134   0.413   6.908   3.764
 9604WAT      O39135   1.035   6.694   3.764
 9604WAT     H139136   1.062   6.617   3.734
 9604WAT     H239137   0.983   6.724   3.700
 9604WAT    EPW39138   1.031   6.687   3.750
 9605WAT      O39139   1.121   7.199   2.616
 9605WAT     H139140   1.148   7.158   2.545
 9605WAT     H239141   1.195   7.220   2.657
 9605WAT    EPW39142   1.136   7.196   2.612
 9606WAT      O39143   1.224   7.195   2.127
 9606WAT     H139144   1.234   7.274   2.164
 9606WAT     H239145   1.144   7.199   2.091
 9606WAT    EPW39146   1.213   7.207   2.127
 9607WAT      O39147   1.865   6.876   3.106
 9607WAT     H139148   1.928   6.862   3.047
 9607WAT     H239149   1.884   6.819   3.170
 9607WAT    EPW39150   1.877   6.865   3.107
 9608WAT      O39151   1.433   6.817   2.208
 9608WAT     H139152   1.486   6.748   2.213
 9608WAT     H239153   1.453   6.864   2.279
 9608WAT    EPW39154   1.444   6.814   2.219
 9609WAT      O39155   0.267   7.009   2.422
 9609WAT     H139156   0.234   6.972   2.494
 9609WAT     H239157   0.262   7.095   2.439
 9609WAT    EPW39158   0.262   7.017   2.435
 9610WAT      O39159   1.193   7.075   2.377
 9610WAT     H139160   1.126   7.022   2.360
 9610WAT     H239161   1.207   7.115   2.301
 9610WAT    EPW39162   1.186   7.073   2.363
 9611WAT      O39163   1.192   6.750   2.328
 9611WAT     H139164   1.133   6.741   2.264
 9611WAT     H239165   1.265   6.771   2.285
 9611WAT    EPW39166   1.194   6.751   2.312
 9612WAT      O39167   1.025   7.006   2.792
 9612WAT     H139168   1.052   7.070   2.739
 9612WAT     H239169   1.035   7.039   2.872
 9612WAT    EPW39170   1.030   7.020   2.796
 9613WAT      O39171   0.598   6.535   2.659
 9613WAT     H139172   0.615   6.600   2.603
 9613WAT     H239173   0.548   6.481   2.612
 9613WAT    EPW39174   0.593   6.536   2.643
 9614WAT      O39175   1.348   6.980   3.342
 9614WAT     H139176   1.353   7.008   3.424
 9614WAT     H239177   1.280   6.925   3.343
 9614WAT    EPW39178   1.339   6.976   3.354
 9615WAT      O39179   1.537   6.590   2.674
 9615WAT     H139180   1.537   6.574   2.760
 9615WAT     H239181   1.573   6.519   2.640
 9615WAT    EPW39182   1.542   6.577   2.682
 9616WAT      O39183   1.744   7.007   3.492
 9616WAT     H139184   1.830   7.005   3.507
 9616WAT     H239185   1.709   7.009   3.571
 9616WAT    EPW39186   1.752   7.007   3.506
 9617WAT      O39187   0.593   6.906   2.749
 9617WAT     H139188   0.614   6.851   2.685
 9617WAT     H239189   0.560   6.853   2.811
 9617WAT    EPW39190   0.591   6.890   2.749
 9618WAT      O39191   0.377   7.166   3.087
 9618WAT     H139192   0.464   7.159   3.080
 9618WAT     H239193   0.360   7.247   3.060
 9618WAT    EPW39194   0.387   7.177   3.082
 9619WAT      O39195   1.622   7.451   2.144
 9619WAT     H139196   1.624   7.538   2.133
 9619WAT     H239197   1.590   7.442   2.225
 9619WAT    EPW39198   1.617   7.463   2.154
 9620WAT      O39199   1.915   6.868   2.129
 9620WAT     H139200   1.970   6.817   2.084
 9620WAT     H239201   1.896   6.932   2.072
 9620WAT    EPW39202   1.920   6.870   2.114
 9621WAT      O39203   0.969   7.221   3.913
 9621WAT     H139204   0.904   7.269   3.946
 9621WAT     H239205   0.974   7.249   3.830
 9621WAT    EPW39206   0.960   7.232   3.905
 9622WAT      O39207   2.026   7.298   3.357
 9622WAT     H139208   2.074   7.230   3.332
 9622WAT     H239209   1.949   7.284   3.318
 9622WAT    EPW39210   2.022   7.286   3.347
 9623WAT      O39211   1.791   6.768   2.358
 9623WAT     H139212   1.866   6.731   2.384
 9623WAT     H239213   1.813   6.814   2.288
 9623WAT    EPW39214   1.805   6.769   2.352
 9624WAT      O39215   1.491   7.027   2.812
 9624WAT     H139216   1.523   6.993   2.886
 9624WAT     H239217   1.429   6.970   2.789
 9624WAT    EPW39218   1.487   7.013   2.819
 9625WAT      O39219   0.937   6.978   2.286
 9625WAT     H139220   0.916   6.963   2.203
 9625WAT     H239221   0.903   7.057   2.301
 9625WAT    EPW39222   0.929   6.988   2.276
 9626WAT      O39223   0.561   7.346   3.737
 9626WAT     H139224   0.504   7.294   3.777
 9626WAT     H239225   0.546   7.332   3.652
 9626WAT    EPW39226   0.550   7.337   3.730
 9627WAT      O39227   0.552   7.234   2.262
 9627WAT     H139228   0.558   7.156   2.299
 9627WAT     H239229   0.502   7.220   2.192
 9627WAT    EPW39230   0.545   7.221   2.257
 9628WAT      O39231   0.407   7.426   2.969
 9628WAT     H139232   0.361   7.479   2.917
 9628WAT     H239233   0.467   7.392   2.915
 9628WAT    EPW39234   0.409   7.429   2.953
 9629WAT      O39235   0.565   7.403   3.213
 9629WAT     H139236   0.604   7.340   3.167
 9629WAT     H239237   0.507   7.437   3.157
 9629WAT    EPW39238   0.562   7.399   3.198
 9630WAT      O39239   1.632   7.200   3.070
 9630WAT     H139240   1.573   7.229   3.128
 9630WAT     H239241   1.635   7.263   3.011
 9630WAT    EPW39242   1.624   7.213   3.070
 9631WAT      O39243   1.187   6.763   3.455
 9631WAT     H139244   1.211   6.685   3.424
 9631WAT     H239245   1.232   6.771   3.529
 9631WAT    EPW39246   1.197   6.753   3.461
 9632WAT      O39247   1.448   6.968   2.436
 9632WAT     H139248   1.502   7.035   2.446
 9632WAT     H239249   1.370   7.006   2.427
 9632WAT    EPW39250   1.444   6.984   2.436
 9633WAT      O39251   1.049   7.090   3.051
 9633WAT     H139252   1.112   7.151   3.052
 9633WAT     H239253   1.088   7.019   3.083
 9633WAT    EPW39254   1.064   7.089   3.056
 9634WAT      O39255   1.234   7.428   2.283
 9634WAT     H139256   1.217   7.503   2.241
 9634WAT     H239257   1.166   7.420   2.338
 9634WAT    EPW39258   1.221   7.438   2.285
 9635WAT      O39259   0.724   6.665   2.176
 9635WAT     H139260   0.702   6.636   2.256
 9635WAT     H239261   0.669   6.731   2.163
 9635WAT    EPW39262   0.712   6.670   2.186
 9636WAT      O39263   1.754   6.735   3.745
 9636WAT     H139264   1.720   6.687   3.681
 9636WAT     H239265   1.757   6.681   3.813
 9636WAT    EPW39266   1.750   6.720   3.745
 9637WAT      O39267   1.019   7.408   2.462
 9637WAT     H139268   0.991   7.473   2.512
 9637WAT     H239269   1.043   7.347   2.519
 9637WAT    EPW39270   1.018   7.408   2.478
 9638WAT      O39271   0.583   6.895   2.112
 9638WAT     H139272   0.527   6.898   2.045
 9638WAT     H239273   0.655   6.933   2.081
 9638WAT    EPW39274   0.585   6.901   2.097
 9639WAT      O39275   0.761   7.114   2.813
 9639WAT     H139276   0.843   7.084   2.802
 9639WAT     H239277   0.711   7.045   2.793
 9639WAT    EPW39278   0.766   7.099   2.808
 9640WAT      O39279   0.331   7.274   2.502
 9640WAT     H139280   0.355   7.223   2.568
 9640WAT     H239281   0.402   7.277   2.452
 9640WAT    EPW39282   0.345   7.267   2.504
 9641WAT      O39283   0.731   7.363   2.065
 9641WAT     H139284   0.678   7.332   2.127
 9641WAT     H239285   0.679   7.369   1.995
 9641WAT    EPW39286   0.716   7.359   2.064
 9642WAT      O39287   0.838   7.228   2.338
 9642WAT     H139288   0.883   7.295   2.370
 9642WAT     H239289   0.757   7.260   2.330
 9642WAT    EPW39290   0.833   7.242   2.342
 9643WAT      O39291   1.614   6.981   3.745
 9643WAT     H139292   1.552   6.985   3.807
 9643WAT     H239293   1.645   6.900   3.753
 9643WAT    EPW39294   1.609   6.969   3.756
 9644WAT      O39295   0.277   6.965   2.924
 9644WAT     H139296   0.298   7.024   2.985
 9644WAT     H239297   0.328   6.897   2.942
 9644WAT    EPW39298   0.287   6.964   2.936
 9645WAT      O39299   1.517   7.328   3.812
 9645WAT     H139300   1.531   7.358   3.893
 9645WAT     H239301   1.430   7.329   3.805
 9645WAT    EPW39302   1.506   7.333   3.823
 9646WAT      O39303   1.694   7.391   3.611
 9646WAT     H139304   1.712   7.474   3.628
 9646WAT     H239305   1.643   7.367   3.677
 9646WAT    EPW39306   1.689   7.400   3.623
 9647WAT      O39307   1.729   7.141   2.724
 9647WAT     H139308   1.662   7.093   2.753
 9647WAT     H239309   1.723   7.215   2.770
 9647WAT    EPW39310   1.719   7.145   2.735
 9648WAT      O39311   2.052   7.407   3.852
 9648WAT     H139312   2.031   7.368   3.777
 9648WAT     H239313   2.139   7.414   3.847
 9648WAT    EPW39314   2.062   7.402   3.840
 9649WAT      O39315   1.571   6.814   3.386
 9649WAT     H139316   1.629   6.876   3.408
 9649WAT     H239317   1.501   6.859   3.361
 9649WAT    EPW39318   1.569   6.830   3.386
 9650WAT      O39319   0.801   7.174   3.498
 9650WAT     H139320   0.791   7.098   3.540
 9650WAT     H239321   0.821   7.149   3.417
 9650WAT    EPW39322   0.803   7.159   3.492
 9651WAT      O39323   1.658   6.618   3.207
 9651WAT     H139324   1.628   6.688   3.249
 9651WAT     H239325   1.743   6.617   3.227
 9651WAT    EPW39326   1.666   6.628   3.216
 9652WAT      O39327   0.916   6.728   3.505
 9652WAT     H139328   0.999   6.737   3.477
 9652WAT     H239329   0.907   6.642   3.515
 9652WAT    EPW39330   0.927   6.717   3.502
 9653WAT      O39331   1.867   7.301   2.115
 9653WAT     H139332   1.928   7.345   2.069
 9653WAT     H239333   1.796   7.351   2.108
 9653WAT    EPW39334   1.866   7.315   2.107
 9654WAT      O39335   0.655   7.180   3.064
 9654WAT     H139336   0.691   7.162   2.987
 9654WAT     H239337   0.711   7.147   3.122
 9654WAT    EPW39338   0.668   7.173   3.061
 9655WAT      O39339   1.399   7.096   3.590
 9655WAT     H139340   1.345   7.131   3.648
 9655WAT     H239341   1.462   7.061   3.639
 9655WAT    EPW39342   1.401   7.096   3.606
 9656WAT      O39343   1.402   7.233   3.229
 9656WAT     H139344   1.414   7.278   3.303
 9656WAT     H239345   1.385   7.152   3.257
 9656WAT    EPW39346   1.401   7.228   3.244
 9657WAT      O39347   1.620   7.194   2.474
 9657WAT     H139348   1.645   7.174   2.555
 9657WAT     H239349   1.692   7.229   2.438
 9657WAT    EPW39350   1.634   7.196   2.481
 9658WAT      O39351   0.927   6.672   3.036
 9658WAT     H139352   0.842   6.670   3.057
 9658WAT     H239353   0.926   6.676   2.948
 9658WAT    EPW39354   0.914   6.672   3.026
 9659WAT      O39355   1.749   6.773   2.636
 9659WAT     H139356   1.674   6.734   2.654
 9659WAT     H239357   1.744   6.789   2.550
 9659WAT    EPW39358   1.737   6.770   2.626
 9660WAT      O39359   0.538   6.977   2.371
 9660WAT     H139360   0.544   6.945   2.290
 9660WAT     H239361   0.452   6.977   2.387
 9660WAT    EPW39362   0.526   6.973   2.361
 9661WAT      O39363   1.961   7.281   3.622
 9661WAT     H139364   1.876   7.303   3.622
 9661WAT     H239365   1.987   7.298   3.541
 9661WAT    EPW39366   1.952   7.287   3.610
 9662WAT      O39367   1.433   7.348   3.481
 9662WAT     H139368   1.433   7.266   3.512
 9662WAT     H239369   1.512   7.378   3.501
 9662WAT    EPW39370   1.444   7.340   3.488
 9663WAT      O39371   0.543   7.274   3.463
 9663WAT     H139372   0.545   7.326   3.393
 9663WAT     H239373   0.625   7.245   3.469
 9663WAT    EPW39374   0.555   7.277   3.454
 9664WAT      O39375   0.382   7.071   3.353
 9664WAT     H139376   0.367   7.101   3.273
 9664WAT     H239377   0.427   7.135   3.391
 9664WAT    EPW39378   0.387   7.085   3.347
 9665WAT      O39379   1.848   7.331   2.393
 9665WAT     H139380   1.865   7.328   2.307
 9665WAT     H239381   1.928   7.334   2.429
 9665WAT    EPW39382   1.862   7.331   2.386
 9666WAT      O39383   0.573   6.741   3.611
 9666WAT     H139384   0.633   6.679   3.596
 9666WAT     H239385   0.547   6.764   3.531
 9666WAT    EPW39386   0.578   6.735   3.597
 9667WAT      O39387   1.734   7.260   3.365
 9667WAT     H139388   1.733   7.177   3.392
 9667WAT     H239389   1.725   7.305   3.439
 9667WAT    EPW39390   1.733   7.254   3.380
 9668WAT      O39391   0.404   7.172   2.022
 9668WAT     H139392   0.317   7.177   2.033
 9668WAT     H239393   0.415   7.095   1.983
 9668WAT    EPW39394   0.393   7.161   2.018
 9669WAT      O39395   1.288   6.796   3.718
 9669WAT     H139396   1.312   6.863   3.769
 9669WAT     H239397   1.208   6.778   3.746
 9669WAT    EPW39398   1.280   6.804   3.730
 9670WAT      O39399   1.270   6.858   2.790
 9670WAT     H139400   1.192   6.898   2.788
 9670WAT     H239401   1.264   6.798   2.727
 9670WAT    EPW39402   1.258   6.855   2.780
 9671WAT      O39403   1.592   6.927   3.052
 9671WAT     H139404   1.672   6.894   3.062
 9671WAT     H239405   1.602   7.011   3.071
 9671WAT    EPW39406   1.605   6.935   3.056
 9672WAT      O39407   1.681   7.381   2.862
 9672WAT     H139408   1.748   7.438   2.864
 9672WAT     H239409   1.625   7.418   2.805
 9672WAT    EPW39410   1.683   7.395   2.854
 9673WAT      O39411   0.764   6.828   3.283
 9673WAT     H139412   0.679   6.818   3.300
 9673WAT     H239413   0.803   6.781   3.345
 9673WAT    EPW39414   0.757   6.820   3.295
 9674WAT      O39415   1.917   6.695   3.315
 9674WAT     H139416   1.904   6.730   3.393
 9674WAT     H239417   1.998   6.664   3.319
 9674WAT    EPW39418   1.927   6.695   3.327
 9675WAT      O39419   1.133   6.843   3.136
 9675WAT     H139420   1.070   6.788   3.111
 9675WAT     H239421   1.206   6.804   3.109
 9675WAT    EPW39422   1.134   6.829   3.128
 9676WAT      O39423   0.968   7.331   3.656
 9676WAT     H139424   0.922   7.281   3.602
 9676WAT     H239425   0.916   7.399   3.672
 9676WAT    EPW39426   0.954   7.333   3.651
 9677WAT      O39427   0.997   6.696   2.137
 9677WAT     H139428   1.006   6.701   2.051
 9677WAT     H239429   0.910   6.701   2.149
 9677WAT    EPW39430   0.985   6.697   2.126
 9678WAT      O39431   0.494   6.818   3.363
 9678WAT     H139432   0.431   6.759   3.351
 9678WAT     H239433   0.452   6.895   3.354
 9678WAT    EPW39434   0.478   6.821   3.360
 9679WAT      O39435   1.373   6.751   3.026
 9679WAT     H139436   1.438   6.806   3.045
 9679WAT     H239437   1.342   6.783   2.950
 9679WAT    EPW39438   1.378   6.764   3.017
 9680WAT      O39439   1.343   7.260   2.770
 9680WAT     H139440   1.394   7.190   2.783
 9680WAT     H239441   1.310   7.276   2.850
 9680WAT    EPW39442   1.345   7.252   2.784
 9681WAT      O39443   0.395   7.096   2.710
 9681WAT     H139444   0.342   7.067   2.773
 9681WAT     H239445   0.457   7.036   2.706
 9681WAT    EPW39446   0.396   7.083   2.719
 9682WAT      O39447   1.495   7.430   2.395
 9682WAT     H139448   1.521   7.350   2.419
 9682WAT     H239449   1.412   7.418   2.369
 9682WAT    EPW39450   1.486   7.417   2.395
 9683WAT      O39451   1.856   7.070   3.853
 9683WAT     H139452   1.850   7.144   3.899
 9683WAT     H239453   1.775   7.058   3.824
 9683WAT    EPW39454   1.843   7.079   3.856
 9684WAT      O39455   1.906   7.153   3.119
 9684WAT     H139456   1.823   7.180   3.118
 9684WAT     H239457   1.899   7.066   3.120
 9684WAT    EPW39458   1.893   7.144   3.119
 9685WAT      O39459   0.782   6.931   3.636
 9685WAT     H139460   0.835   6.881   3.589
 9685WAT     H239461   0.705   6.888   3.633
 9685WAT    EPW39462   0.778   6.917   3.629
 9686WAT      O39463   1.306   6.679   0.676
 9686WAT     H139464   1.329   6.709   0.598
 9686WAT     H239465   1.381   6.649   0.709
 9686WAT    EPW39466   1.320   6.679   0.669
 9687WAT      O39467   1.218   7.308   1.121
 9687WAT     H139468   1.188   7.386   1.147
 9687WAT     H239469   1.273   7.285   1.185
 9687WAT    EPW39470   1.222   7.316   1.135
 9688WAT      O39471   1.508   7.491   0.796
 9688WAT     H139472   1.513   7.492   0.709
 9688WAT     H239473   1.449   7.430   0.813
 9688WAT    EPW39474   1.500   7.482   0.786
 9689WAT      O39475   0.936   6.761   0.604
 9689WAT     H139476   0.940   6.840   0.569
 9689WAT     H239477   0.975   6.710   0.545
 9689WAT    EPW39478   0.943   6.765   0.590
 9690WAT      O39479   0.463   7.524   0.670
 9690WAT     H139480   0.414   7.471   0.621
 9690WAT     H239481   0.505   7.470   0.723
 9690WAT    EPW39482   0.462   7.508   0.670
 9691WAT      O39483   0.828   7.100   1.337
 9691WAT     H139484   0.898   7.099   1.285
 9691WAT     H239485   0.809   7.015   1.347
 9691WAT    EPW39486   0.835   7.087   1.331
 9692WAT      O39487   0.556   7.314   0.838
 9692WAT     H139488   0.631   7.269   0.843
 9692WAT     H239489   0.495   7.251   0.833
 9692WAT    EPW39490   0.558   7.298   0.838
 9693WAT      O39491   1.255   7.334   1.799
 9693WAT     H139492   1.169   7.336   1.785
 9693WAT     H239493   1.288   7.365   1.725
 9693WAT    EPW39494   1.247   7.339   1.786
 9694WAT      O39495   0.654   6.770   0.641
 9694WAT     H139496   0.618   6.819   0.578
 9694WAT     H239497   0.738   6.764   0.616
 9694WAT    EPW39498   0.661   6.776   0.628
 9695WAT      O39499   1.633   6.584   1.644
 9695WAT     H139500   1.605   6.648   1.592
 9695WAT     H239501   1.561   6.560   1.687
 9695WAT    EPW39502   1.618   6.590   1.643
 9696WAT      O39503   0.967   6.735   0.878
 9696WAT     H139504   0.978   6.819   0.898
 9696WAT     H239505   0.948   6.736   0.793
 9696WAT    EPW39506   0.966   6.748   0.868
 9697WAT      O39507   0.463   6.765   1.057
 9697WAT     H139508   0.427   6.694   1.022
 9697WAT     H239509   0.520   6.732   1.115
 9697WAT    EPW39510   0.466   6.750   1.061
 9698WAT      O39511   0.828   6.985   2.013
 9698WAT     H139512   0.825   6.963   1.928
 9698WAT     H239513   0.868   7.062   2.013
 9698WAT    EPW39514   0.833   6.993   2.000
 9699WAT      O39515   1.946   6.962   0.792
 9699WAT     H139516   1.896   7.032   0.808
 9699WAT     H239517   1.887   6.899   0.776
 9699WAT    EPW39518   1.930   6.963   0.792
 9700WAT      O39519   0.422   6.919   1.877
 9700WAT     H139520   0.354   6.934   1.825
 9700WAT     H239521   0.473   6.867   1.830
 9700WAT    EPW39522   0.420   6.914   1.863
 9701WAT      O39523   1.034   6.695   1.864
 9701WAT     H139524   1.061   6.617   1.835
 9701WAT     H239525   0.981   6.723   1.801
 9701WAT    EPW39526   1.030   6.688   1.850
 9702WAT      O39527   1.126   7.203   0.729
 9702WAT     H139528   1.156   7.164   0.657
 9702WAT     H239529   1.198   7.229   0.770
 9702WAT    EPW39530   1.141   7.201   0.725
 9703WAT      O39531   1.160   7.256   0.276
 9703WAT     H139532   1.183   7.332   0.312
 9703WAT     H239533   1.073   7.258   0.279
 9703WAT    EPW39534   1.150   7.268   0.282
 9704WAT      O39535   1.862   6.890   1.226
 9704WAT     H139536   1.923   6.877   1.165
 9704WAT     H239537   1.881   6.831   1.287
 9704WAT    EPW39538   1.874   6.879   1.226
 9705WAT      O39539   1.376   6.749   0.417
 9705WAT     H139540   1.440   6.701   0.381
 9705WAT     H239541   1.416   6.825   0.435
 9705WAT    EPW39542   1.392   6.753   0.414
 9706WAT      O39543   0.258   6.985   0.570
 9706WAT     H139544   0.185   6.939   0.583
 9706WAT     H239545   0.280   7.011   0.650
 9706WAT    EPW39546   0.250   6.982   0.583
 9707WAT      O39547   1.199   7.087   0.489
 9707WAT     H139548   1.131   7.033   0.475
 9707WAT     H239549   1.198   7.139   0.420
 9707WAT    EPW39550   1.189   7.087   0.477
 9708WAT      O39551   1.105   6.731   0.358
 9708WAT     H139552   1.075   6.811   0.343
 9708WAT     H239553   1.191   6.742   0.367
 9708WAT    EPW39554   1.113   6.744   0.357
 9709WAT      O39555   1.021   7.010   0.897
 9709WAT     H139556   1.052   7.074   0.847
 9709WAT     H239557   1.028   7.042   0.978
 9709WAT    EPW39558   1.026   7.025   0.902
 9710WAT      O39559   0.606   6.526   0.764
 9710WAT     H139560   0.616   6.598   0.715
 9710WAT     H239561   0.553   6.476   0.716
 9710WAT    EPW39562   0.600   6.529   0.750
 9711WAT      O39563   1.347   6.971   1.446
 9711WAT     H139564   1.350   7.002   1.527
 9711WAT     H239565   1.280   6.915   1.447
 9711WAT    EPW39566   1.338   6.967   1.458
 9712WAT      O39567   1.545   6.591   0.783
 9712WAT     H139568   1.548   6.573   0.868
 9712WAT     H239569   1.576   6.519   0.746
 9712WAT    EPW39570   1.550   6.578   0.790
 9713WAT      O39571   1.739   7.018   1.586
 9713WAT     H139572   1.825   7.013   1.599
 9713WAT     H239573   1.706   7.017   1.666
 9713WAT    EPW39574   1.747   7.017   1.600
 9714WAT      O39575   0.580   6.923   0.858
 9714WAT     H139576   0.604   6.867   0.795
 9714WAT     H239577   0.549   6.870   0.920
 9714WAT    EPW39578   0.579   6.907   0.857
 9715WAT      O39579   0.381   7.156   1.210
 9715WAT     H139580   0.467   7.148   1.195
 9715WAT     H239581   0.364   7.238   1.188
 9715WAT    EPW39582   0.391   7.167   1.205
 9716WAT      O39583   1.636   7.356   0.269
 9716WAT     H139584   1.560   7.318   0.249
 9716WAT     H239585   1.617   7.402   0.341
 9716WAT    EPW39586   1.622   7.357   0.277
 9717WAT      O39587   1.846   6.958   0.237
 9717WAT     H139588   1.860   6.937   0.154
 9717WAT     H239589   1.851   7.046   0.237
 9717WAT    EPW39590   1.849   6.968   0.225
 9718WAT      O39591   0.967   7.224   2.014
 9718WAT     H139592   0.901   7.271   2.047
 9718WAT     H239593   0.973   7.253   1.932
 9718WAT    EPW39594   0.958   7.235   2.007
 9719WAT      O39595   2.035   7.284   1.452
 9719WAT     H139596   2.096   7.222   1.453
 9719WAT     H239597   1.981   7.258   1.388
 9719WAT    EPW39598   2.036   7.271   1.443
 9720WAT      O39599   1.765   6.773   0.435
 9720WAT     H139600   1.844   6.740   0.449
 9720WAT     H239601   1.779   6.837   0.377
 9720WAT    EPW39602   1.779   6.777   0.428
 9721WAT      O39603   1.490   7.039   0.917
 9721WAT     H139604   1.522   7.002   0.989
 9721WAT     H239605   1.429   6.982   0.891
 9721WAT    EPW39606   1.486   7.025   0.924
 9722WAT      O39607   0.949   6.971   0.417
 9722WAT     H139608   0.885   6.921   0.384
 9722WAT     H239609   0.921   7.052   0.402
 9722WAT    EPW39610   0.935   6.976   0.410
 9723WAT      O39611   0.549   7.352   1.856
 9723WAT     H139612   0.493   7.298   1.897
 9723WAT     H239613   0.539   7.330   1.772
 9723WAT    EPW39614   0.539   7.341   1.849
 9724WAT      O39615   0.613   7.214   0.448
 9724WAT     H139616   0.590   7.130   0.457
 9724WAT     H239617   0.544   7.257   0.479
 9724WAT    EPW39618   0.599   7.208   0.454
 9725WAT      O39619   0.441   7.411   1.095
 9725WAT     H139620   0.419   7.450   1.020
 9725WAT     H239621   0.511   7.364   1.074
 9725WAT    EPW39622   0.448   7.410   1.081
 9726WAT      O39623   0.574   7.403   1.352
 9726WAT     H139624   0.618   7.348   1.300
 9726WAT     H239625   0.515   7.440   1.298
 9726WAT    EPW39626   0.572   7.400   1.336
 9727WAT      O39627   1.623   7.204   1.182
 9727WAT     H139628   1.557   7.229   1.233
 9727WAT     H239629   1.628   7.267   1.122
 9727WAT    EPW39630   1.614   7.217   1.181
 9728WAT      O39631   1.188   6.756   1.554
 9728WAT     H139632   1.214   6.678   1.526
 9728WAT     H239633   1.232   6.767   1.629
 9728WAT    EPW39634   1.199   6.746   1.561
 9729WAT      O39635   1.464   6.993   0.508
 9729WAT     H139636   1.519   7.057   0.529
 9729WAT     H239637   1.386   7.032   0.508
 9729WAT    EPW39638   1.461   7.008   0.511
 9730WAT      O39639   1.038   7.097   1.156
 9730WAT     H139640   1.100   7.159   1.154
 9730WAT     H239641   1.081   7.027   1.187
 9730WAT    EPW39642   1.054   7.095   1.161
 9731WAT      O39643   1.237   7.473   0.435
 9731WAT     H139644   1.228   7.556   0.409
 9731WAT     H239645   1.168   7.460   0.486
 9731WAT    EPW39646   1.226   7.484   0.439
 9732WAT      O39647   0.764   6.774   0.343
 9732WAT     H139648   0.753   6.694   0.375
 9732WAT     H239649   0.691   6.788   0.297
 9732WAT    EPW39650   0.751   6.764   0.341
 9733WAT      O39651   1.750   6.735   1.845
 9733WAT     H139652   1.717   6.686   1.781
 9733WAT     H239653   1.754   6.681   1.913
 9733WAT    EPW39654   1.746   6.720   1.846
 9734WAT      O39655   1.008   7.404   0.580
 9734WAT     H139656   0.955   7.453   0.628
 9734WAT     H239657   1.038   7.344   0.636
 9734WAT    EPW39658   1.005   7.403   0.595
 9735WAT      O39659   0.531   6.861   0.207
 9735WAT     H139660   0.473   6.806   0.173
 9735WAT     H239661   0.546   6.917   0.141
 9735WAT    EPW39662   0.524   6.861   0.192
 9736WAT      O39663   0.758   7.126   0.903
 9736WAT     H139664   0.839   7.093   0.896
 9736WAT     H239665   0.707   7.057   0.889
 9736WAT    EPW39666   0.763   7.111   0.900
 9737WAT      O39667   0.354   7.275   0.565
 9737WAT     H139668   0.360   7.233   0.641
 9737WAT     H239669   0.298   7.226   0.519
 9737WAT    EPW39670   0.346   7.262   0.570
 9738WAT      O39671   0.885   7.241   0.384
 9738WAT     H139672   0.914   7.295   0.446
 9738WAT     H239673   0.799   7.242   0.395
 9738WAT    EPW39674   0.877   7.249   0.394
 9739WAT      O39675   1.614   6.984   1.841
 9739WAT     H139676   1.553   6.989   1.903
 9739WAT     H239677   1.645   6.903   1.849
 9739WAT    EPW39678   1.610   6.972   1.851
 9740WAT      O39679   0.271   6.978   1.027
 9740WAT     H139680   0.318   6.906   1.042
 9740WAT     H239681   0.293   7.031   1.092
 9740WAT    EPW39682   0.281   6.975   1.039
 9741WAT      O39683   1.519   7.322   1.912
 9741WAT     H139684   1.532   7.354   1.992
 9741WAT     H239685   1.433   7.330   1.900
 9741WAT    EPW39686   1.508   7.328   1.922
 9742WAT      O39687   1.726   7.397   1.745
 9742WAT     H139688   1.721   7.484   1.751
 9742WAT     H239689   1.660   7.369   1.795
 9742WAT    EPW39690   1.716   7.406   1.753
 9743WAT      O39691   1.733   7.147   0.835
 9743WAT     H139692   1.663   7.102   0.861
 9743WAT     H239693   1.729   7.221   0.882
 9743WAT    EPW39694   1.722   7.151   0.846
 9744WAT      O39695   2.067   7.405   1.948
 9744WAT     H139696   2.045   7.364   1.874
 9744WAT     H239697   2.154   7.413   1.941
 9744WAT    EPW39698   2.077   7.400   1.936
 9745WAT      O39699   1.575   6.813   1.486
 9745WAT     H139700   1.631   6.877   1.506
 9745WAT     H239701   1.503   6.857   1.463
 9745WAT    EPW39702   1.573   6.829   1.485
 9746WAT      O39703   0.805   7.169   1.606
 9746WAT     H139704   0.798   7.091   1.644
 9746WAT     H239705   0.819   7.149   1.522
 9746WAT    EPW39706   0.806   7.155   1.599
 9747WAT      O39707   1.662   6.616   1.307
 9747WAT     H139708   1.631   6.687   1.348
 9747WAT     H239709   1.747   6.617   1.327
 9747WAT    EPW39710   1.670   6.627   1.316
 9748WAT      O39711   0.918   6.726   1.602
 9748WAT     H139712   1.001   6.733   1.576
 9748WAT     H239713   0.907   6.640   1.612
 9748WAT    EPW39714   0.929   6.714   1.599
 9749WAT      O39715   1.886   7.240   0.232
 9749WAT     H139716   1.913   7.271   0.155
 9749WAT     H239717   1.806   7.273   0.240
 9749WAT    EPW39718   1.878   7.250   0.222
 9750WAT      O39719   0.655   7.205   1.152
 9750WAT     H139720   0.691   7.184   1.075
 9750WAT     H239721   0.709   7.168   1.210
 9750WAT    EPW39722   0.668   7.196   1.149
 9751WAT      O39723   1.387   7.092   1.694
 9751WAT     H139724   1.340   7.131   1.756
 9751WAT     H239725   1.457   7.063   1.738
 9751WAT    EPW39726   1.391   7.094   1.710
 9752WAT      O39727   1.379   7.219   1.321
 9752WAT     H139728   1.387   7.264   1.396
 9752WAT     H239729   1.368   7.137   1.348
 9752WAT    EPW39730   1.378   7.214   1.336
 9753WAT      O39731   1.630   7.209   0.585
 9753WAT     H139732   1.655   7.186   0.665
 9753WAT     H239733   1.703   7.242   0.550
 9753WAT    EPW39734   1.645   7.211   0.592
 9754WAT      O39735   0.927   6.671   1.154
 9754WAT     H139736   0.842   6.670   1.172
 9754WAT     H239737   0.931   6.677   1.067
 9754WAT    EPW39738   0.915   6.672   1.144
 9755WAT      O39739   1.748   6.775   0.717
 9755WAT     H139740   1.675   6.735   0.741
 9755WAT     H239741   1.737   6.789   0.632
 9755WAT    EPW39742   1.736   6.771   0.708
 9756WAT      O39743   0.518   6.951   0.473
 9756WAT     H139744   0.515   6.923   0.390
 9756WAT     H239745   0.434   6.955   0.496
 9756WAT    EPW39746   0.505   6.948   0.464
 9757WAT      O39747   1.975   7.275   1.720
 9757WAT     H139748   1.895   7.308   1.730
 9757WAT     H239749   1.994   7.292   1.637
 9757WAT    EPW39750   1.966   7.283   1.710
 9758WAT      O39751   1.420   7.334   1.566
 9758WAT     H139752   1.414   7.256   1.606
 9758WAT     H239753   1.504   7.338   1.543
 9758WAT    EPW39754   1.432   7.323   1.569
 9759WAT      O39755   0.542   7.260   1.589
 9759WAT     H139756   0.545   7.316   1.522
 9759WAT     H239757   0.625   7.232   1.595
 9759WAT    EPW39758   0.555   7.264   1.580
 9760WAT      O39759   0.379   7.062   1.477
 9760WAT     H139760   0.366   7.092   1.396
 9760WAT     H239761   0.424   7.125   1.515
 9760WAT    EPW39762   0.383   7.076   1.470
 9761WAT      O39763   1.867   7.333   0.504
 9761WAT     H139764   1.889   7.312   0.423
 9761WAT     H239765   1.943   7.341   0.545
 9761WAT    EPW39766   1.881   7.331   0.498
 9762WAT      O39767   0.578   6.736   1.721
 9762WAT     H139768   0.638   6.674   1.709
 9762WAT     H239769   0.553   6.756   1.640
 9762WAT    EPW39770   0.583   6.729   1.707
 9763WAT      O39771   1.681   7.282   1.495
 9763WAT     H139772   1.702   7.198   1.507
 9763WAT     H239773   1.712   7.321   1.567
 9763WAT    EPW39774   1.689   7.276   1.508
 9764WAT      O39775   1.288   6.795   1.817
 9764WAT     H139776   1.314   6.863   1.867
 9764WAT     H239777   1.208   6.778   1.847
 9764WAT    EPW39778   1.280   6.803   1.829
 9765WAT      O39779   1.275   6.867   0.878
 9765WAT     H139780   1.194   6.900   0.877
 9765WAT     H239781   1.275   6.811   0.811
 9765WAT    EPW39782   1.263   6.864   0.868
 9766WAT      O39783   1.590   6.931   1.154
 9766WAT     H139784   1.670   6.899   1.168
 9766WAT     H239785   1.597   7.015   1.176
 9766WAT    EPW39786   1.603   6.938   1.160
 9767WAT      O39787   1.686   7.385   0.977
 9767WAT     H139788   1.751   7.443   0.989
 9767WAT     H239789   1.632   7.425   0.921
 9767WAT    EPW39790   1.688   7.400   0.971
 9768WAT      O39791   0.759   6.842   1.393
 9768WAT     H139792   0.676   6.823   1.410
 9768WAT     H239793   0.803   6.791   1.449
 9768WAT    EPW39794   0.753   6.832   1.404
 9769WAT      O39795   1.914   6.697   1.423
 9769WAT     H139796   1.901   6.726   1.504
 9769WAT     H239797   1.996   6.667   1.425
 9769WAT    EPW39798   1.924   6.697   1.435
 9770WAT      O39799   1.134   6.851   1.234
 9770WAT     H139800   1.072   6.793   1.217
 9770WAT     H239801   1.207   6.812   1.205
 9770WAT    EPW39802   1.136   6.837   1.227
 9771WAT      O39803   0.973   7.332   1.757
 9771WAT     H139804   0.926   7.280   1.704
 9771WAT     H239805   0.922   7.403   1.765
 9771WAT    EPW39806   0.958   7.335   1.750
 9772WAT      O39807   0.492   6.811   1.475
 9772WAT     H139808   0.429   6.752   1.463
 9772WAT     H239809   0.449   6.888   1.470
 9772WAT    EPW39810   0.476   6.814   1.472
 9773WAT      O39811   1.371   6.757   1.116
 9773WAT     H139812   1.436   6.811   1.138
 9773WAT     H239813   1.343   6.788   1.040
 9773WAT    EPW39814   1.376   6.769   1.108
 9774WAT      O39815   1.347   7.275   0.876
 9774WAT     H139816   1.397   7.205   0.890
 9774WAT     H239817   1.310   7.289   0.954
 9774WAT    EPW39818   1.349   7.267   0.890
 9775WAT      O39819   0.375   7.098   0.799
 9775WAT     H139820   0.325   7.076   0.867
 9775WAT     H239821   0.442   7.043   0.804
 9775WAT    EPW39822   0.378   7.087   0.810
 9776WAT      O39823   1.511   7.450   0.515
 9776WAT     H139824   1.533   7.369   0.539
 9776WAT     H239825   1.426   7.444   0.495
 9776WAT    EPW39826   1.501   7.437   0.515
 9777WAT      O39827   1.856   7.071   1.955
 9777WAT     H139828   1.852   7.147   1.997
 9777WAT     H239829   1.776   7.061   1.922
 9777WAT    EPW39830   1.844   7.081   1.956
 9778WAT      O39831   1.896   7.169   1.237
 9778WAT     H139832   1.812   7.191   1.230
 9778WAT     H239833   1.893   7.081   1.239
 9778WAT    EPW39834   1.883   7.159   1.236
 9779WAT      O39835   0.787   6.925   1.740
 9779WAT     H139836   0.839   6.876   1.690
 9779WAT     H239837   0.711   6.882   1.739
 9779WAT    EPW39838   0.783   6.911   1.732
 9780WAT      O39839   1.277   4.833   6.387
 9780WAT     H139840   1.282   4.876   6.311
 9780WAT     H239841   1.360   4.813   6.405
 9780WAT    EPW39842   1.290   4.837   6.379
 9781WAT      O39843   1.240   5.456   6.838
 9781WAT     H139844   1.204   5.533   6.857
 9781WAT     H239845   1.295   5.442   6.904
 9781WAT    EPW39846   1.243   5.465   6.850
 9782WAT      O39847   1.824   6.315   6.155
 9782WAT     H139848   1.889   6.259   6.173
 9782WAT     H239849   1.772   6.269   6.102
 9782WAT    EPW39850   1.826   6.300   6.150
 9783WAT      O39851   0.569   5.840   5.920
 9783WAT     H139852   0.509   5.827   5.858
 9783WAT     H239853   0.545   5.786   5.984
 9783WAT    EPW39854   0.557   5.830   5.920
 9784WAT      O39855   1.472   5.652   6.482
 9784WAT     H139856   1.481   5.638   6.397
 9784WAT     H239857   1.419   5.587   6.508
 9784WAT    EPW39858   1.466   5.640   6.473
 9785WAT      O39859   0.411   6.090   6.295
 9785WAT     H139860   0.458   6.034   6.344
 9785WAT     H239861   0.328   6.066   6.310
 9785WAT    EPW39862   0.406   6.078   6.305
 9786WAT      O39863   0.950   4.959   6.258
 9786WAT     H139864   0.937   5.030   6.209
 9786WAT     H239865   1.027   4.929   6.230
 9786WAT    EPW39866   0.959   4.965   6.247
 9787WAT      O39867   0.400   6.316   5.896
 9787WAT     H139868   0.434   6.308   5.816
 9787WAT     H239869   0.417   6.239   5.933
 9787WAT    EPW39870   0.408   6.304   5.889
 9788WAT      O39871   0.906   6.001   7.483
 9788WAT     H139872   0.925   5.962   7.559
 9788WAT     H239873   0.829   5.966   7.460
 9788WAT    EPW39874   0.897   5.990   7.491
 9789WAT      O39875   0.421   5.641   6.374
 9789WAT     H139876   0.346   5.597   6.364
 9789WAT     H239877   0.475   5.583   6.410
 9789WAT    EPW39878   0.418   5.626   6.378
 9790WAT      O39879   0.838   5.259   7.035
 9790WAT     H139880   0.906   5.266   6.981
 9790WAT     H239881   0.817   5.174   7.031
 9790WAT    EPW39882   0.845   5.247   7.026
 9791WAT      O39883   0.852   6.239   7.225
 9791WAT     H139884   0.827   6.311   7.183
 9791WAT     H239885   0.938   6.251   7.238
 9791WAT    EPW39886   0.861   6.251   7.220
 9792WAT      O39887   0.550   5.435   6.508
 9792WAT     H139888   0.622   5.389   6.525
 9792WAT     H239889   0.487   5.375   6.510
 9792WAT    EPW39890   0.551   5.420   6.511
 9793WAT      O39891   0.989   6.105   6.652
 9793WAT     H139892   1.013   6.023   6.667
 9793WAT     H239893   1.065   6.146   6.637
 9793WAT    EPW39894   1.004   6.099   6.652
 9794WAT      O39895   1.021   6.027   6.283
 9794WAT     H139896   1.062   5.964   6.327
 9794WAT     H239897   1.042   6.010   6.200
 9794WAT    EPW39898   1.030   6.015   6.277
 9795WAT      O39899   1.188   5.477   7.448
 9795WAT     H139900   1.105   5.485   7.424
 9795WAT     H239901   1.196   5.533   7.515
 9795WAT    EPW39902   1.177   5.486   7.454
 9796WAT      O39903   0.673   4.941   6.314
 9796WAT     H139904   0.636   5.003   6.265
 9796WAT     H239905   0.758   4.945   6.292
 9796WAT    EPW39906   0.680   4.951   6.304
 9797WAT      O39907   1.645   4.751   7.335
 9797WAT     H139908   1.629   4.822   7.287
 9797WAT     H239909   1.567   4.731   7.369
 9797WAT    EPW39910   1.631   4.758   7.333
 9798WAT      O39911   0.961   4.910   6.533
 9798WAT     H139912   0.972   4.992   6.559
 9798WAT     H239913   0.950   4.917   6.446
 9798WAT    EPW39914   0.961   4.923   6.524
 9799WAT      O39915   1.399   5.149   5.779
 9799WAT     H139916   1.349   5.214   5.809
 9799WAT     H239917   1.412   5.099   5.850
 9799WAT    EPW39918   1.394   5.151   5.794
 9800WAT      O39919   0.804   6.204   6.275
 9800WAT     H139920   0.764   6.183   6.350
 9800WAT     H239921   0.876   6.155   6.277
 9800WAT    EPW39922   0.809   6.193   6.286
 9801WAT      O39923   1.389   6.415   6.062
 9801WAT     H139924   1.461   6.464   6.067
 9801WAT     H239925   1.418   6.335   6.083
 9801WAT    EPW39926   1.404   6.410   6.066
 9802WAT      O39927   1.190   6.448   6.250
 9802WAT     H139928   1.215   6.516   6.298
 9802WAT     H239929   1.251   6.443   6.187
 9802WAT    EPW39930   1.203   6.457   6.247
 9803WAT      O39931   0.460   4.892   6.741
 9803WAT     H139932   0.420   4.822   6.707
 9803WAT     H239933   0.519   4.857   6.795
 9803WAT    EPW39934   0.463   4.876   6.744
 9804WAT      O39935   0.404   6.368   6.350
 9804WAT     H139936   0.412   6.282   6.338
 9804WAT     H239937   0.411   6.401   6.270
 9804WAT    EPW39938   0.406   6.360   6.336
 9805WAT      O39939   1.953   5.123   6.489
 9805WAT     H139940   1.901   5.192   6.498
 9805WAT     H239941   1.897   5.056   6.482
 9805WAT    EPW39942   1.937   5.123   6.489
 9806WAT      O39943   1.464   6.440   7.061
 9806WAT     H139944   1.532   6.493   7.050
 9806WAT     H239945   1.445   6.414   6.980
 9806WAT    EPW39946   1.471   6.444   7.047
 9807WAT      O39947   0.388   4.966   7.550
 9807WAT     H139948   0.361   5.042   7.515
 9807WAT     H239949   0.468   4.956   7.518
 9807WAT    EPW39950   0.396   4.976   7.540
 9808WAT      O39951   0.505   6.103   6.709
 9808WAT     H139952   0.564   6.103   6.644
 9808WAT     H239953   0.546   6.064   6.775
 9808WAT    EPW39954   0.519   6.097   6.709
 9809WAT      O39955   0.781   6.411   6.617
 9809WAT     H139956   0.858   6.430   6.580
 9809WAT     H239957   0.724   6.460   6.572
 9809WAT    EPW39958   0.784   6.421   6.605
 9810WAT      O39959   1.056   4.906   7.558
 9810WAT     H139960   1.057   4.827   7.523
 9810WAT     H239961   0.993   4.948   7.513
 9810WAT    EPW39962   1.047   4.901   7.546
 9811WAT      O39963   1.125   5.373   6.411
 9811WAT     H139964   1.153   5.334   6.338
 9811WAT     H239965   1.198   5.387   6.456
 9811WAT    EPW39966   1.140   5.369   6.407
 9812WAT      O39967   1.224   5.344   5.899
 9812WAT     H139968   1.248   5.422   5.928
 9812WAT     H239969   1.145   5.359   5.864
 9812WAT    EPW39970   1.216   5.358   5.898
 9813WAT      O39971   1.601   6.599   6.044
 9813WAT     H139972   1.649   6.579   5.974
 9813WAT     H239973   1.657   6.645   6.094
 9813WAT    EPW39974   1.617   6.603   6.041
 9814WAT      O39975   0.704   6.460   7.138
 9814WAT     H139976   0.708   6.486   7.221
 9814WAT     H239977   0.625   6.423   7.131
 9814WAT    EPW39978   0.693   6.458   7.149
 9815WAT      O39979   1.858   5.046   6.904
 9815WAT     H139980   1.923   5.036   6.847
 9815WAT     H239981   1.878   4.992   6.969
 9815WAT    EPW39982   1.870   5.037   6.905
 9816WAT      O39983   1.301   6.204   7.460
 9816WAT     H139984   1.296   6.131   7.508
 9816WAT     H239985   1.386   6.211   7.442
 9816WAT    EPW39986   1.313   6.194   7.464
 9817WAT      O39987   1.080   6.242   5.867
 9817WAT     H139988   1.047   6.302   5.922
 9817WAT     H239989   1.158   6.274   5.847
 9817WAT    EPW39990   1.087   6.256   5.872
 9818WAT      O39991   1.435   4.983   6.000
 9818WAT     H139992   1.487   4.913   6.009
 9818WAT     H239993   1.450   5.030   6.072
 9818WAT    EPW39994   1.445   4.979   6.012
 9819WAT      O39995   0.269   5.146   6.254
 9819WAT     H139996   0.199   5.094   6.259
 9819WAT     H239997   0.289   5.162   6.337
 9819WAT    EPW39998   0.261   5.141   6.267
 9820WAT      O39999   0.453   6.349   7.097
 9820WAT     H140000   0.420   6.272   7.123
 9820WAT     H240001   0.455   6.342   7.010
 9820WAT    EPW40002   0.448   6.337   7.088
 9821WAT      O40003   1.189   5.253   6.163
 9821WAT     H140004   1.113   5.212   6.149
 9821WAT     H240005   1.209   5.286   6.085
 9821WAT    EPW40006   1.181   5.252   6.149
 9822WAT      O40007   1.214   6.479   7.166
 9822WAT     H140008   1.294   6.469   7.133
 9822WAT     H240009   1.163   6.484   7.095
 9822WAT    EPW40010   1.219   6.478   7.150
 9823WAT      O40011   1.195   4.907   6.120
 9823WAT     H140012   1.138   4.894   6.056
 9823WAT     H240013   1.267   4.933   6.078
 9823WAT    EPW40014   1.198   4.909   6.105
 9824WAT      O40015   1.891   6.540   6.436
 9824WAT     H140016   1.850   6.615   6.451
 9824WAT     H240017   1.826   6.483   6.424
 9824WAT    EPW40018   1.875   6.542   6.436
 9825WAT      O40019   1.016   5.181   6.585
 9825WAT     H140020   1.042   5.246   6.533
 9825WAT     H240021   1.026   5.214   6.666
 9825WAT    EPW40022   1.021   5.196   6.590
 9826WAT      O40023   1.629   6.111   6.500
 9826WAT     H140024   1.692   6.051   6.489
 9826WAT     H240025   1.555   6.064   6.494
 9826WAT    EPW40026   1.627   6.095   6.498
 9827WAT      O40027   0.622   6.178   7.368
 9827WAT     H140028   0.695   6.203   7.326
 9827WAT     H240029   0.605   6.245   7.421
 9827WAT    EPW40030   0.631   6.192   7.369
 9828WAT      O40031   0.598   4.699   6.430
 9828WAT     H140032   0.626   4.773   6.392
 9828WAT     H240033   0.559   4.656   6.365
 9828WAT    EPW40034   0.597   4.704   6.415
 9829WAT      O40035   0.784   5.792   6.770
 9829WAT     H140036   0.812   5.769   6.849
 9829WAT     H240037   0.725   5.731   6.750
 9829WAT    EPW40038   0.780   5.780   6.778
 9830WAT      O40039   1.340   5.149   7.154
 9830WAT     H140040   1.331   5.177   7.236
 9830WAT     H240041   1.279   5.086   7.148
 9830WAT    EPW40042   1.330   5.144   7.166
 9831WAT      O40043   0.894   5.779   7.022
 9831WAT     H140044   0.896   5.865   7.032
 9831WAT     H240045   0.857   5.750   7.096
 9831WAT    EPW40046   0.889   5.787   7.034
 9832WAT      O40047   1.512   5.885   7.036
 9832WAT     H140048   1.439   5.852   7.069
 9832WAT     H240049   1.501   5.972   7.044
 9832WAT    EPW40050   1.500   5.893   7.042
 9833WAT      O40051   1.533   4.754   6.476
 9833WAT     H140052   1.533   4.741   6.562
 9833WAT     H240053   1.567   4.680   6.444
 9833WAT    EPW40054   1.538   4.741   6.484
 9834WAT      O40055   1.725   5.224   7.232
 9834WAT     H140056   1.808   5.197   7.235
 9834WAT     H240057   1.704   5.233   7.317
 9834WAT    EPW40058   1.734   5.221   7.245
 9835WAT      O40059   0.576   5.057   6.548
 9835WAT     H140060   0.607   5.008   6.483
 9835WAT     H240061   0.545   4.999   6.605
 9835WAT    EPW40062   0.576   5.042   6.547
 9836WAT      O40063   1.805   5.909   6.017
 9836WAT     H140064   1.805   5.862   6.090
 9836WAT     H240065   1.889   5.918   5.998
 9836WAT    EPW40066   1.817   5.904   6.025
 9837WAT      O40067   0.532   5.886   6.438
 9837WAT     H140068   0.615   5.883   6.411
 9837WAT     H240069   0.498   5.811   6.410
 9837WAT    EPW40070   0.540   5.875   6.430
 9838WAT      O40071   0.378   6.521   6.633
 9838WAT     H140072   0.315   6.487   6.583
 9838WAT     H240073   0.445   6.529   6.579
 9838WAT    EPW40074   0.378   6.517   6.618
 9839WAT      O40075   0.378   5.305   6.913
 9839WAT     H140076   0.463   5.314   6.897
 9839WAT     H240077   0.344   5.383   6.894
 9839WAT    EPW40078   0.385   5.318   6.908
 9840WAT      O40079   2.031   6.331   7.375
 9840WAT     H140080   1.964   6.337   7.320
 9840WAT     H240081   1.993   6.309   7.451
 9840WAT    EPW40082   2.015   6.329   7.378
 9841WAT      O40083   1.621   5.569   5.938
 9841WAT     H140084   1.614   5.650   5.908
 9841WAT     H240085   1.590   5.574   6.019
 9841WAT    EPW40086   1.616   5.581   5.946
 9842WAT      O40087   0.785   5.863   6.319
 9842WAT     H140088   0.849   5.920   6.309
 9842WAT     H240089   0.805   5.800   6.262
 9842WAT    EPW40090   0.797   5.862   6.309
 9843WAT      O40091   1.946   5.041   5.947
 9843WAT     H140092   1.990   4.978   5.907
 9843WAT     H240093   1.917   5.091   5.882
 9843WAT    EPW40094   1.948   5.039   5.932
 9844WAT      O40095   2.039   5.463   7.169
 9844WAT     H140096   2.063   5.389   7.128
 9844WAT     H240097   1.955   5.472   7.146
 9844WAT    EPW40098   2.030   5.453   7.159
 9845WAT      O40099   1.797   4.926   6.159
 9845WAT     H140100   1.871   4.887   6.186
 9845WAT     H240101   1.823   4.978   6.094
 9845WAT    EPW40102   1.812   4.928   6.153
 9846WAT      O40103   1.211   6.266   6.603
 9846WAT     H140104   1.161   6.335   6.582
 9846WAT     H240105   1.238   6.236   6.526
 9846WAT    EPW40106   1.207   6.272   6.589
 9847WAT      O40107   0.632   5.970   6.914
 9847WAT     H140108   0.697   6.006   6.960
 9847WAT     H240109   0.674   5.916   6.860
 9847WAT    EPW40110   0.648   5.967   6.913
 9848WAT      O40111   1.491   5.192   6.608
 9848WAT     H140112   1.521   5.159   6.683
 9848WAT     H240113   1.427   5.137   6.586
 9848WAT    EPW40114   1.486   5.179   6.616
 9849WAT      O40115   0.368   5.856   6.690
 9849WAT     H140116   0.411   5.826   6.621
 9849WAT     H240117   0.391   5.940   6.693
 9849WAT    EPW40118   0.378   5.864   6.681
 9850WAT      O40119   0.928   5.170   6.083
 9850WAT     H140120   0.914   5.143   6.001
 9850WAT     H240121   0.892   5.249   6.085
 9850WAT    EPW40122   0.921   5.178   6.071
 9851WAT      O40123   1.778   6.344   7.235
 9851WAT     H140124   1.741   6.423   7.243
 9851WAT     H240125   1.772   6.327   7.150
 9851WAT    EPW40126   1.772   6.354   7.224
 9852WAT      O40127   0.728   6.152   6.540
 9852WAT     H140128   0.736   6.235   6.565
 9852WAT     H240129   0.803   6.116   6.568
 9852WAT    EPW40130   0.741   6.159   6.548
 9853WAT      O40131   0.465   5.491   7.537
 9853WAT     H140132   0.546   5.485   7.568
 9853WAT     H240133   0.472   5.460   7.455
 9853WAT    EPW40134   0.478   5.485   7.529
 9854WAT      O40135   0.542   5.388   6.048
 9854WAT     H140136   0.538   5.315   6.096
 9854WAT     H240137   0.507   5.364   5.972
 9854WAT    EPW40138   0.536   5.374   6.044
 9855WAT      O40139   0.598   5.594   6.733
 9855WAT     H140140   0.574   5.564   6.655
 9855WAT     H240141   0.621   5.522   6.777
 9855WAT    EPW40142   0.598   5.579   6.728
 9856WAT      O40143   0.573   5.568   7.072
 9856WAT     H140144   0.602   5.520   7.006
 9856WAT     H240145   0.525   5.630   7.032
 9856WAT    EPW40146   0.570   5.570   7.056
 9857WAT      O40147   1.631   5.373   6.884
 9857WAT     H140148   1.565   5.398   6.935
 9857WAT     H240149   1.627   5.428   6.816
 9857WAT    EPW40150   1.621   5.385   6.882
 9858WAT      O40151   1.005   6.487   6.984
 9858WAT     H140152   0.971   6.415   6.948
 9858WAT     H240153   0.992   6.548   6.924
 9858WAT    EPW40154   0.998   6.485   6.970
 9859WAT      O40155   1.202   4.910   7.236
 9859WAT     H140156   1.228   4.830   7.216
 9859WAT     H240157   1.235   4.924   7.316
 9859WAT    EPW40158   1.211   4.900   7.245
 9860WAT      O40159   1.435   5.132   6.230
 9860WAT     H140160   1.492   5.197   6.240
 9860WAT     H240161   1.359   5.172   6.217
 9860WAT    EPW40162   1.432   5.147   6.229
 9861WAT      O40163   0.361   5.738   7.623
 9861WAT     H140164   0.357   5.784   7.549
 9861WAT     H240165   0.385   5.659   7.597
 9861WAT    EPW40166   0.364   5.733   7.608
 9862WAT      O40167   1.541   5.963   7.478
 9862WAT     H140168   1.568   6.043   7.459
 9862WAT     H240169   1.572   5.914   7.412
 9862WAT    EPW40170   1.550   5.967   7.465
 9863WAT      O40171   0.926   6.299   7.523
 9863WAT     H140172   0.931   6.293   7.610
 9863WAT     H240173   0.916   6.216   7.497
 9863WAT    EPW40174   0.925   6.286   7.532
 9864WAT      O40175   1.043   5.262   6.847
 9864WAT     H140176   1.108   5.320   6.852
 9864WAT     H240177   1.077   5.189   6.880
 9864WAT    EPW40178   1.057   5.260   6.852
 9865WAT      O40179   1.293   5.578   6.041
 9865WAT     H140180   1.274   5.634   5.976
 9865WAT     H240181   1.232   5.595   6.101
 9865WAT    EPW40182   1.281   5.589   6.040
 9866WAT      O40183   1.813   5.902   6.476
 9866WAT     H140184   1.818   5.850   6.545
 9866WAT     H240185   1.796   5.848   6.410
 9866WAT    EPW40186   1.811   5.887   6.477
 9867WAT      O40187   1.391   6.321   6.815
 9867WAT     H140188   1.333   6.299   6.754
 9867WAT     H240189   1.441   6.380   6.774
 9867WAT    EPW40190   1.390   6.326   6.800
 9868WAT      O40191   1.380   5.957   6.795
 9868WAT     H140192   1.306   5.986   6.830
 9868WAT     H240193   1.418   5.913   6.860
 9868WAT    EPW40194   1.375   5.955   6.810
 9869WAT      O40195   0.757   6.460   6.178
 9869WAT     H140196   0.762   6.388   6.227
 9869WAT     H240197   0.831   6.459   6.132
 9869WAT    EPW40198   0.768   6.449   6.179
 9870WAT      O40199   0.727   4.813   5.972
 9870WAT     H140200   0.712   4.789   6.054
 9870WAT     H240201   0.673   4.881   5.961
 9870WAT    EPW40202   0.717   4.820   5.982
 9871WAT      O40203   1.000   6.441   6.045
 9871WAT     H140204   1.057   6.447   6.110
 9871WAT     H240205   1.005   6.519   6.005
 9871WAT    EPW40206   1.009   6.453   6.049
 9872WAT      O40207   1.638   5.806   7.276
 9872WAT     H140208   1.607   5.830   7.198
 9872WAT     H240209   1.724   5.817   7.267
 9872WAT    EPW40210   1.646   5.811   7.263
 9873WAT      O40211   1.842   4.790   7.531
 9873WAT     H140212   1.783   4.777   7.469
 9873WAT     H240213   1.794   4.799   7.603
 9873WAT    EPW40214   1.826   4.789   7.533
 9874WAT      O40215   0.492   5.657   6.106
 9874WAT     H140216   0.506   5.572   6.090
 9874WAT     H240217   0.470   5.658   6.191
 9874WAT    EPW40218   0.491   5.645   6.116
 9875WAT      O40219   1.282   5.782   7.138
 9875WAT     H140220   1.226   5.825   7.190
 9875WAT     H240221   1.308   5.715   7.187
 9875WAT    EPW40222   1.277   5.778   7.153
 9876WAT      O40223   1.131   5.616   6.267
 9876WAT     H140224   1.143   5.681   6.323
 9876WAT     H240225   1.119   5.546   6.319
 9876WAT    EPW40226   1.131   5.615   6.283
 9877WAT      O40227   1.626   6.100   6.783
 9877WAT     H140228   1.641   6.112   6.698
 9877WAT     H240229   1.546   6.066   6.786
 9877WAT    EPW40230   1.617   6.097   6.771
 9878WAT      O40231   0.588   5.047   5.908
 9878WAT     H140232   0.534   5.049   5.839
 9878WAT     H240233   0.660   5.087   5.879
 9878WAT    EPW40234   0.590   5.053   5.893
 9879WAT      O40235   1.044   5.834   6.681
 9879WAT     H140236   0.960   5.814   6.695
 9879WAT     H240237   1.085   5.799   6.750
 9879WAT    EPW40238   1.038   5.826   6.693
 9880WAT      O40239   0.726   6.438   5.812
 9880WAT     H140240   0.742   6.372   5.867
 9880WAT     H240241   0.722   6.508   5.865
 9880WAT    EPW40242   0.728   6.439   5.828
 9881WAT      O40243   0.427   5.779   6.955
 9881WAT     H140244   0.484   5.845   6.962
 9881WAT     H240245   0.401   5.784   6.872
 9881WAT    EPW40246   0.432   5.790   6.944
 9882WAT      O40247   0.742   5.262   6.620
 9882WAT     H140248   0.825   5.240   6.605
 9882WAT     H240249   0.697   5.190   6.600
 9882WAT    EPW40250   0.748   5.248   6.615
 9883WAT      O40251   1.991   6.488   6.016
 9883WAT     H140252   2.058   6.439   5.989
 9883WAT     H240253   1.941   6.432   6.060
 9883WAT    EPW40254   1.993   6.473   6.018
 9884WAT      O40255   0.232   5.435   6.350
 9884WAT     H140256   0.255   5.380   6.413
 9884WAT     H240257   0.223   5.384   6.280
 9884WAT    EPW40258   0.234   5.420   6.349
 9885WAT      O40259   1.754   5.751   6.962
 9885WAT     H140260   1.759   5.681   7.014
 9885WAT     H240261   1.673   5.781   6.976
 9885WAT    EPW40262   1.743   5.745   6.972
 9886WAT      O40263   0.734   5.639   5.807
 9886WAT     H140264   0.681   5.696   5.846
 9886WAT     H240265   0.683   5.601   5.747
 9886WAT    EPW40266   0.719   5.642   5.804
 9887WAT      O40267   0.371   5.871   7.371
 9887WAT     H140268   0.331   5.819   7.314
 9887WAT     H240269   0.360   5.951   7.337
 9887WAT    EPW40270   0.364   5.875   7.358
 9888WAT      O40271   1.848   5.730   6.699
 9888WAT     H140272   1.822   5.743   6.781
 9888WAT     H240273   1.935   5.724   6.705
 9888WAT    EPW40274   1.857   5.731   6.712
 9889WAT      O40275   0.817   5.423   6.052
 9889WAT     H140276   0.833   5.502   6.086
 9889WAT     H240277   0.730   5.420   6.048
 9889WAT    EPW40278   0.806   5.434   6.056
 9890WAT      O40279   1.610   5.172   7.505
 9890WAT     H140280   1.581   5.200   7.582
 9890WAT     H240281   1.567   5.097   7.493
 9890WAT    EPW40282   1.599   5.165   7.515
 9891WAT      O40283   0.273   5.109   6.742
 9891WAT     H140284   0.321   5.038   6.754
 9891WAT     H240285   0.299   5.163   6.806
 9891WAT    EPW40286   0.284   5.107   6.753
 9892WAT      O40287   1.996   6.235   6.787
 9892WAT     H140288   2.026   6.288   6.725
 9892WAT     H240289   2.062   6.232   6.844
 9892WAT    EPW40290   2.010   6.243   6.786
 9893WAT      O40291   1.510   5.572   7.547
 9893WAT     H140292   1.558   5.634   7.586
 9893WAT     H240293   1.430   5.584   7.580
 9893WAT    EPW40294   1.505   5.583   7.557
 9894WAT      O40295   1.762   5.514   7.422
 9894WAT     H140296   1.802   5.587   7.449
 9894WAT     H240297   1.683   5.518   7.459
 9894WAT    EPW40298   1.756   5.526   7.431
 9895WAT      O40299   1.672   6.152   5.996
 9895WAT     H140300   1.710   6.074   6.007
 9895WAT     H240301   1.595   6.143   6.036
 9895WAT    EPW40302   1.666   6.139   6.004
 9896WAT      O40303   1.730   5.300   6.516
 9896WAT     H140304   1.664   5.251   6.545
 9896WAT     H240305   1.721   5.375   6.560
 9896WAT    EPW40306   1.719   5.304   6.527
 9897WAT      O40307   1.911   5.870   7.260
 9897WAT     H140308   1.979   5.821   7.235
 9897WAT     H240309   1.903   5.928   7.196
 9897WAT    EPW40310   1.920   5.871   7.247
 9898WAT      O40311   1.349   5.948   5.926
 9898WAT     H140312   1.426   5.908   5.919
 9898WAT     H240313   1.320   5.952   5.844
 9898WAT    EPW40314   1.356   5.942   5.913
 9899WAT      O40315   0.881   6.062   7.019
 9899WAT     H140316   0.869   6.107   7.093
 9899WAT     H240317   0.878   6.124   6.957
 9899WAT    EPW40318   0.879   6.078   7.021
 9900WAT      O40319   0.651   5.906   7.392
 9900WAT     H140320   0.570   5.876   7.402
 9900WAT     H240321   0.641   5.992   7.382
 9900WAT    EPW40322   0.638   5.914   7.392
 9901WAT      O40323   1.573   4.993   7.190
 9901WAT     H140324   1.628   5.061   7.194
 9901WAT     H240325   1.496   5.030   7.172
 9901WAT    EPW40326   1.570   5.008   7.188
 9902WAT      O40327   1.136   5.702   6.914
 9902WAT     H140328   1.190   5.732   6.975
 9902WAT     H240329   1.057   5.713   6.950
 9902WAT    EPW40330   1.132   5.708   6.929
 9903WAT      O40331   0.784   5.284   7.304
 9903WAT     H140332   0.812   5.209   7.338
 9903WAT     H240333   0.807   5.279   7.220
 9903WAT    EPW40334   0.791   5.272   7.296
 9904WAT      O40335   1.033   6.465   6.507
 9904WAT     H140336   1.032   6.552   6.520
 9904WAT     H240337   1.045   6.458   6.421
 9904WAT    EPW40338   1.035   6.477   6.496
 9905WAT      O40339   1.659   4.791   7.011
 9905WAT     H140340   1.624   4.861   7.050
 9905WAT     H240341   1.743   4.794   7.033
 9905WAT    EPW40342   1.666   4.802   7.020
 9906WAT      O40343   0.937   4.833   7.191
 9906WAT     H140344   1.018   4.863   7.195
 9906WAT     H240345   0.942   4.769   7.131
 9906WAT    EPW40346   0.950   4.828   7.183
 9907WAT      O40347   0.886   6.275   6.842
 9907WAT     H140348   0.834   6.325   6.794
 9907WAT     H240349   0.927   6.225   6.784
 9907WAT    EPW40350   0.884   6.275   6.827
 9908WAT      O40351   1.274   5.924   7.535
 9908WAT     H140352   1.359   5.929   7.515
 9908WAT     H240353   1.235   5.926   7.457
 9908WAT    EPW40354   1.281   5.925   7.520
 9909WAT      O40355   1.585   6.235   7.415
 9909WAT     H140356   1.591   6.301   7.472
 9909WAT     H240357   1.642   6.257   7.352
 9909WAT    EPW40358   1.594   6.248   7.414
 9910WAT      O40359   1.873   5.457   5.910
 9910WAT     H140360   1.919   5.514   5.863
 9910WAT     H240361   1.792   5.490   5.910
 9910WAT    EPW40362   1.868   5.470   5.903
 9911WAT      O40363   0.981   5.739   5.884
 9911WAT     H140364   0.909   5.704   5.849
 9911WAT     H240365   0.963   5.824   5.887
 9911WAT    EPW40366   0.967   5.746   5.879
 9912WAT      O40367   0.649   5.357   6.866
 9912WAT     H140368   0.677   5.323   6.790
 9912WAT     H240369   0.706   5.327   6.924
 9912WAT    EPW40370   0.662   5.348   6.863
 9913WAT      O40371   1.337   5.244   7.416
 9913WAT     H140372   1.284   5.312   7.432
 9913WAT     H240373   1.417   5.277   7.430
 9913WAT    EPW40374   1.341   5.259   7.420
 9914WAT      O40375   1.409   5.402   7.049
 9914WAT     H140376   1.407   5.452   7.121
 9914WAT     H240377   1.389   5.322   7.080
 9914WAT    EPW40378   1.406   5.397   7.064
 9915WAT      O40379   1.111   6.501   7.435
 9915WAT     H140380   1.135   6.485   7.353
 9915WAT     H240381   1.074   6.427   7.461
 9915WAT    EPW40382   1.109   6.488   7.427
 9916WAT      O40383   1.618   5.348   6.268
 9916WAT     H140384   1.644   5.329   6.349
 9916WAT     H240385   1.691   5.377   6.229
 9916WAT    EPW40386   1.632   5.350   6.274
 9917WAT      O40387   0.921   4.839   6.805
 9917WAT     H140388   0.836   4.825   6.821
 9917WAT     H240389   0.924   4.849   6.718
 9917WAT    EPW40390   0.909   4.838   6.794
 9918WAT      O40391   1.750   4.931   6.436
 9918WAT     H140392   1.673   4.893   6.453
 9918WAT     H240393   1.747   4.946   6.350
 9918WAT    EPW40394   1.738   4.927   6.426
 9919WAT      O40395   1.761   5.744   6.244
 9919WAT     H140396   1.803   5.669   6.234
 9919WAT     H240397   1.677   5.722   6.236
 9919WAT    EPW40398   1.755   5.730   6.241
 9920WAT      O40399   1.119   5.948   7.302
 9920WAT     H140400   1.046   5.952   7.350
 9920WAT     H240401   1.127   6.029   7.270
 9920WAT    EPW40402   1.110   5.961   7.305
 9921WAT      O40403   0.670   6.577   6.880
 9921WAT     H140404   0.683   6.555   6.964
 9921WAT     H240405   0.632   6.505   6.847
 9921WAT    EPW40406   0.666   6.563   6.887
 9922WAT      O40407   0.534   5.133   6.166
 9922WAT     H140408   0.539   5.102   6.085
 9922WAT     H240409   0.449   5.129   6.184
 9922WAT    EPW40410   0.522   5.128   6.157
 9923WAT      O40411   1.412   5.923   6.521
 9923WAT     H140412   1.398   5.932   6.606
 9923WAT     H240413   1.441   5.841   6.514
 9923WAT    EPW40414   1.414   5.912   6.532
 9924WAT      O40415   1.161   5.840   6.430
 9924WAT     H140416   1.121   5.832   6.507
 9924WAT     H240417   1.240   5.871   6.451
 9924WAT    EPW40418   1.167   5.844   6.444
 9925WAT      O40419   1.134   6.226   7.245
 9925WAT     H140420   1.183   6.221   7.317
 9925WAT     H240421   1.165   6.296   7.204
 9925WAT    EPW40422   1.145   6.236   7.250
 9926WAT      O40423   1.962   5.319   7.468
 9926WAT     H140424   1.906   5.383   7.451
 9926WAT     H240425   2.040   5.358   7.467
 9926WAT    EPW40426   1.966   5.334   7.465
 9927WAT      O40427   1.386   5.566   7.277
 9927WAT     H140428   1.321   5.537   7.328
 9927WAT     H240429   1.448   5.588   7.335
 9927WAT    EPW40430   1.386   5.565   7.293
 9928WAT      O40431   0.310   6.554   7.471
 9928WAT     H140432   0.232   6.539   7.507
 9928WAT     H240433   0.327   6.637   7.492
 9928WAT    EPW40434   0.301   6.564   7.480
 9929WAT      O40435   1.256   5.666   7.641
 9929WAT     H140436   1.259   5.749   7.613
 9929WAT     H240437   1.230   5.673   7.723
 9929WAT    EPW40438   1.253   5.679   7.649
 9930WAT      O40439   1.536   6.558   6.757
 9930WAT     H140440   1.477   6.617   6.782
 9930WAT     H240441   1.602   6.569   6.814
 9930WAT    EPW40442   1.537   6.568   6.769
 9931WAT      O40443   1.166   6.051   6.950
 9931WAT     H140444   1.084   6.054   6.981
 9931WAT     H240445   1.212   6.092   7.012
 9931WAT    EPW40446   1.161   6.058   6.964
 9932WAT      O40447   0.525   5.388   7.283
 9932WAT     H140448   0.534   5.448   7.220
 9932WAT     H240449   0.605   5.355   7.291
 9932WAT    EPW40450   0.538   5.392   7.275
 9933WAT      O40451   0.379   5.182   7.168
 9933WAT     H140452   0.365   5.215   7.088
 9933WAT     H240453   0.419   5.247   7.210
 9933WAT    EPW40454   0.383   5.197   7.162
 9934WAT      O40455   1.848   5.484   6.187
 9934WAT     H140456   1.864   5.479   6.101
 9934WAT     H240457   1.922   5.454   6.224
 9934WAT    EPW40458   1.861   5.479   6.180
 9935WAT      O40459   0.622   4.901   7.414
 9935WAT     H140460   0.665   4.826   7.409
 9935WAT     H240461   0.589   4.912   7.334
 9935WAT    EPW40462   0.623   4.892   7.402
 9936WAT      O40463   1.244   6.189   6.334
 9936WAT     H140464   1.224   6.269   6.308
 9936WAT     H240465   1.171   6.143   6.320
 9936WAT    EPW40466   1.230   6.194   6.328
 9937WAT      O40467   1.763   5.515   7.140
 9937WAT     H140468   1.736   5.432   7.129
 9937WAT     H240469   1.757   5.527   7.226
 9937WAT    EPW40470   1.758   5.504   7.151
 9938WAT      O40471   0.250   5.729   7.166
 9938WAT     H140472   0.298   5.749   7.096
 9938WAT     H240473   0.200   5.664   7.138
 9938WAT    EPW40474   0.250   5.722   7.151
 9939WAT      O40475   0.417   5.317   5.804
 9939WAT     H140476   0.330   5.322   5.814
 9939WAT     H240477   0.429   5.243   5.761
 9939WAT    EPW40478   0.406   5.307   5.799
 9940WAT      O40479   1.311   4.977   7.489
 9940WAT     H140480   1.311   5.063   7.474
 9940WAT     H240481   1.234   4.963   7.527
 9940WAT    EPW40482   1.299   4.988   7.492
 9941WAT      O40483   1.264   5.031   6.584
 9941WAT     H140484   1.187   5.073   6.579
 9941WAT     H240485   1.258   4.970   6.522
 9941WAT    EPW40486   1.251   5.028   6.574
 9942WAT      O40487   0.742   6.210   5.988
 9942WAT     H140488   0.771   6.215   6.070
 9942WAT     H240489   0.662   6.177   5.997
 9942WAT    EPW40490   0.735   6.206   6.001
 9943WAT      O40491   1.584   5.099   6.853
 9943WAT     H140492   1.664   5.066   6.862
 9943WAT     H240493   1.594   5.183   6.876
 9943WAT    EPW40494   1.598   5.107   6.858
 9944WAT      O40495   0.758   5.693   7.244
 9944WAT     H140496   0.720   5.757   7.289
 9944WAT     H240497   0.692   5.657   7.200
 9944WAT    EPW40498   0.743   5.697   7.244
 9945WAT      O40499   1.661   5.533   6.653
 9945WAT     H140500   1.724   5.592   6.666
 9945WAT     H240501   1.604   5.575   6.602
 9945WAT    EPW40502   1.662   5.548   6.648
 9946WAT      O40503   1.674   6.367   6.385
 9946WAT     H140504   1.658   6.290   6.422
 9946WAT     H240505   1.712   6.347   6.309
 9946WAT    EPW40506   1.677   6.353   6.379
 9947WAT      O40507   0.495   6.090   6.026
 9947WAT     H140508   0.473   6.082   6.110
 9947WAT     H240509   0.509   6.008   6.001
 9947WAT    EPW40510   0.494   6.077   6.035
 9948WAT      O40511   0.813   5.973   5.851
 9948WAT     H140512   0.739   5.932   5.871
 9948WAT     H240513   0.806   6.049   5.894
 9948WAT    EPW40514   0.801   5.979   5.860
 9949WAT      O40515   0.762   4.998   7.042
 9949WAT     H140516   0.683   4.976   7.071
 9949WAT     H240517   0.815   4.941   7.082
 9949WAT    EPW40518   0.758   4.986   7.052
 9950WAT      O40519   1.916   4.879   7.120
 9950WAT     H140520   1.929   4.942   7.179
 9950WAT     H240521   1.992   4.837   7.116
 9950WAT    EPW40522   1.929   4.882   7.128
 9951WAT      O40523   1.111   5.009   6.932
 9951WAT     H140524   1.051   4.958   6.895
 9951WAT     H240525   1.187   4.974   6.907
 9951WAT    EPW40526   1.113   4.996   6.923
 9952WAT      O40527   1.428   6.154   7.045
 9952WAT     H140528   1.456   6.222   7.091
 9952WAT     H240529   1.420   6.185   6.964
 9952WAT    EPW40530   1.431   6.168   7.040
 9953WAT      O40531   1.400   6.556   7.467
 9953WAT     H140532   1.323   6.515   7.476
 9953WAT     H240533   1.380   6.639   7.486
 9953WAT    EPW40534   1.386   6.562   7.471
 9954WAT      O40535   0.924   5.511   7.379
 9954WAT     H140536   0.881   5.437   7.361
 9954WAT     H240537   0.877   5.573   7.339
 9954WAT    EPW40538   0.911   5.509   7.371
 9955WAT      O40539   0.999   4.852   5.934
 9955WAT     H140540   1.010   4.856   5.848
 9955WAT     H240541   0.912   4.853   5.944
 9955WAT    EPW40542   0.988   4.852   5.923
 9956WAT      O40543   1.882   6.005   7.018
 9956WAT     H140544   1.846   5.934   6.983
 9956WAT     H240545   1.831   6.070   6.989
 9956WAT    EPW40546   1.869   6.004   7.009
 9957WAT      O40547   0.788   6.525   7.401
 9957WAT     H140548   0.853   6.566   7.359
 9957WAT     H240549   0.828   6.458   7.439
 9957WAT    EPW40550   0.804   6.521   7.400
 9958WAT      O40551   1.770   6.264   6.955
 9958WAT     H140552   1.840   6.272   6.904
 9958WAT     H240553   1.710   6.226   6.904
 9958WAT    EPW40554   1.771   6.260   6.940
 9959WAT      O40555   0.517   4.944   7.164
 9959WAT     H140556   0.458   4.881   7.157
 9959WAT     H240557   0.470   5.017   7.162
 9959WAT    EPW40558   0.502   4.945   7.163
 9960WAT      O40559   1.358   4.930   6.825
 9960WAT     H140560   1.423   4.984   6.846
 9960WAT     H240561   1.330   4.960   6.748
 9960WAT    EPW40562   1.364   4.942   6.817
 9961WAT      O40563   0.544   6.401   7.510
 9961WAT     H140564   0.607   6.461   7.504
 9961WAT     H240565   0.470   6.448   7.503
 9961WAT    EPW40566   0.542   6.417   7.508
 9962WAT      O40567   1.340   5.425   6.578
 9962WAT     H140568   1.393   5.357   6.589
 9962WAT     H240569   1.308   5.439   6.659
 9962WAT    EPW40570   1.343   5.417   6.592
 9963WAT      O40571   0.358   5.223   6.508
 9963WAT     H140572   0.314   5.198   6.578
 9963WAT     H240573   0.429   5.172   6.508
 9963WAT    EPW40574   0.362   5.212   6.518
 9964WAT      O40575   0.369   6.136   7.270
 9964WAT     H140576   0.319   6.184   7.323
 9964WAT     H240577   0.450   6.150   7.299
 9964WAT    EPW40578   0.373   6.145   7.282
 9965WAT      O40579   1.515   5.598   6.207
 9965WAT     H140580   1.535   5.515   6.226
 9965WAT     H240581   1.440   5.591   6.162
 9965WAT    EPW40582   1.507   5.584   6.203
 9966WAT      O40583   0.482   6.477   6.110
 9966WAT     H140584   0.460   6.433   6.038
 9966WAT     H240585   0.568   6.461   6.118
 9966WAT    EPW40586   0.492   6.468   6.100
 9967WAT      O40587   0.893   5.674   6.141
 9967WAT     H140588   0.921   5.702   6.063
 9967WAT     H240589   0.967   5.655   6.183
 9967WAT    EPW40590   0.908   5.676   6.135
 9968WAT      O40591   1.779   6.541   5.839
 9968WAT     H140592   1.850   6.533   5.890
 9968WAT     H240593   1.766   6.460   5.810
 9968WAT    EPW40594   1.788   6.528   5.842
 9969WAT      O40595   1.890   5.743   7.513
 9969WAT     H140596   1.970   5.719   7.538
 9969WAT     H240597   1.904   5.795   7.444
 9969WAT    EPW40598   1.903   5.747   7.506
 9970WAT      O40599   1.424   6.144   6.118
 9970WAT     H140600   1.377   6.139   6.192
 9970WAT     H240601   1.386   6.085   6.066
 9970WAT    EPW40602   1.412   6.134   6.121
 9971WAT      O40603   1.847   5.149   7.664
 9971WAT     H140604   1.901   5.205   7.625
 9971WAT     H240605   1.780   5.142   7.608
 9971WAT    EPW40606   1.845   5.156   7.650
 9972WAT      O40607   1.907   5.324   6.911
 9972WAT     H140608   1.824   5.351   6.906
 9972WAT     H240609   1.901   5.237   6.912
 9972WAT    EPW40610   1.894   5.315   6.910
 9973WAT      O40611   0.864   5.029   7.389
 9973WAT     H140612   0.886   4.984   7.317
 9973WAT     H240613   0.784   4.999   7.408
 9973WAT    EPW40614   0.856   5.018   7.381
 9974WAT      O40615   1.653   5.778   7.658
 9974WAT     H140616   1.734   5.772   7.627
 9974WAT     H240617   1.620   5.846   7.615
 9974WAT    EPW40618   1.660   5.787   7.647
 9975WAT      O40619   0.496   6.355   6.821
 9975WAT     H140620   0.499   6.277   6.783
 9975WAT     H240621   0.448   6.403   6.767
 9975WAT    EPW40622   0.489   6.350   6.808
 9976WAT      O40623   1.092   6.004   6.019
 9976WAT     H140624   1.170   5.974   5.995
 9976WAT     H240625   1.081   6.074   5.969
 9976WAT    EPW40626   1.102   6.010   6.008
 9977WAT      O40627   0.343   6.588   7.192
 9977WAT     H140628   0.326   6.570   7.276
 9977WAT     H240629   0.368   6.511   7.159
 9977WAT    EPW40630   0.344   6.574   7.200
 9978WAT      O40631   1.276   4.839   4.483
 9978WAT     H140632   1.280   4.881   4.407
 9978WAT     H240633   1.360   4.821   4.501
 9978WAT    EPW40634   1.289   4.842   4.474
 9979WAT      O40635   1.229   5.459   4.938
 9979WAT     H140636   1.194   5.535   4.962
 9979WAT     H240637   1.288   5.442   5.000
 9979WAT    EPW40638   1.232   5.468   4.950
 9980WAT      O40639   1.830   6.314   4.256
 9980WAT     H140640   1.895   6.258   4.272
 9980WAT     H240641   1.777   6.269   4.203
 9980WAT    EPW40642   1.831   6.299   4.250
 9981WAT      O40643   0.566   5.843   4.019
 9981WAT     H140644   0.507   5.830   3.957
 9981WAT     H240645   0.542   5.787   4.082
 9981WAT    EPW40646   0.554   5.833   4.020
 9982WAT      O40647   1.474   5.651   4.582
 9982WAT     H140648   1.480   5.637   4.496
 9982WAT     H240649   1.420   5.588   4.609
 9982WAT    EPW40650   1.467   5.639   4.574
 9983WAT      O40651   0.413   6.089   4.400
 9983WAT     H140652   0.459   6.032   4.448
 9983WAT     H240653   0.330   6.065   4.413
 9983WAT    EPW40654   0.408   6.077   4.409
 9984WAT      O40655   0.954   4.960   4.370
 9984WAT     H140656   0.940   5.030   4.319
 9984WAT     H240657   1.030   4.928   4.340
 9984WAT    EPW40658   0.963   4.966   4.358
 9985WAT      O40659   0.401   6.320   4.001
 9985WAT     H140660   0.435   6.311   3.920
 9985WAT     H240661   0.417   6.243   4.038
 9985WAT    EPW40662   0.409   6.307   3.994
 9986WAT      O40663   0.885   5.987   5.582
 9986WAT     H140664   0.869   5.977   5.667
 9986WAT     H240665   0.812   5.957   5.544
 9986WAT    EPW40666   0.872   5.981   5.589
 9987WAT      O40667   0.423   5.635   4.469
 9987WAT     H140668   0.348   5.591   4.459
 9987WAT     H240669   0.475   5.579   4.510
 9987WAT    EPW40670   0.420   5.620   4.473
 9988WAT      O40671   0.832   5.254   5.153
 9988WAT     H140672   0.899   5.262   5.098
 9988WAT     H240673   0.811   5.170   5.147
 9988WAT    EPW40674   0.838   5.243   5.144
 9989WAT      O40675   0.889   6.291   5.314
 9989WAT     H140676   0.903   6.349   5.251
 9989WAT     H240677   0.969   6.269   5.340
 9989WAT    EPW40678   0.903   6.296   5.308
 9990WAT      O40679   0.548   5.437   4.618
 9990WAT     H140680   0.620   5.390   4.635
 9990WAT     H240681   0.484   5.378   4.619
 9990WAT    EPW40682   0.549   5.421   4.621
 9991WAT      O40683   0.988   6.094   4.738
 9991WAT     H140684   1.014   6.013   4.759
 9991WAT     H240685   1.063   6.137   4.727
 9991WAT    EPW40686   1.003   6.088   4.739
 9992WAT      O40687   1.022   6.024   4.384
 9992WAT     H140688   1.063   5.962   4.430
 9992WAT     H240689   1.043   6.007   4.302
 9992WAT    EPW40690   1.031   6.013   4.379
 9993WAT      O40691   1.156   5.505   5.548
 9993WAT     H140692   1.069   5.503   5.540
 9993WAT     H240693   1.169   5.555   5.618
 9993WAT    EPW40694   1.145   5.512   5.557
 9994WAT      O40695   0.676   4.940   4.419
 9994WAT     H140696   0.639   5.001   4.369
 9994WAT     H240697   0.761   4.945   4.399
 9994WAT    EPW40698   0.683   4.950   4.409
 9995WAT      O40699   1.629   4.757   5.439
 9995WAT     H140700   1.605   4.824   5.389
 9995WAT     H240701   1.555   4.734   5.480
 9995WAT    EPW40702   1.614   4.764   5.438
 9996WAT      O40703   0.963   4.904   4.647
 9996WAT     H140704   0.971   4.986   4.676
 9996WAT     H240705   0.953   4.914   4.561
 9996WAT    EPW40706   0.963   4.918   4.639
 9997WAT      O40707   1.391   5.148   3.876
 9997WAT     H140708   1.340   5.210   3.910
 9997WAT     H240709   1.409   5.097   3.945
 9997WAT    EPW40710   1.386   5.150   3.891
 9998WAT      O40711   0.805   6.202   4.372
 9998WAT     H140712   0.763   6.180   4.446
 9998WAT     H240713   0.878   6.153   4.375
 9998WAT    EPW40714   0.810   6.191   4.383
 9999WAT      O40715   1.390   6.415   4.162
 9999WAT     H140716   1.462   6.465   4.167
 9999WAT     H240717   1.420   6.336   4.184
 9999WAT    EPW40718   1.405   6.411   4.166
10000WAT      O40719   1.191   6.448   4.350
10000WAT     H140720   1.217   6.517   4.398
10000WAT     H240721   1.252   6.443   4.288
10000WAT    EPW40722   1.204   6.457   4.348
10001WAT      O40723   0.454   4.894   4.843
10001WAT     H140724   0.416   4.825   4.806
10001WAT     H240725   0.513   4.859   4.897
10001WAT    EPW40726   0.458   4.879   4.846
10002WAT      O40727   0.831   5.145   5.808
10002WAT     H140728   0.842   5.112   5.728
10002WAT     H240729   0.867   5.225   5.801
10002WAT    EPW40730   0.838   5.152   5.795
10003WAT      O40731   0.408   6.368   4.457
10003WAT     H140732   0.415   6.282   4.445
10003WAT     H240733   0.414   6.400   4.377
10003WAT    EPW40734   0.410   6.360   4.444
10004WAT      O40735   1.956   5.121   4.590
10004WAT     H140736   1.906   5.191   4.601
10004WAT     H240737   1.898   5.057   4.575
10004WAT    EPW40738   1.940   5.122   4.590
10005WAT      O40739   1.451   6.441   5.156
10005WAT     H140740   1.523   6.489   5.143
10005WAT     H240741   1.431   6.411   5.076
10005WAT    EPW40742   1.459   6.444   5.142
10006WAT      O40743   0.439   5.069   5.659
10006WAT     H140744   0.384   5.090   5.595
10006WAT     H240745   0.492   5.009   5.623
10006WAT    EPW40746   0.439   5.063   5.644
10007WAT      O40747   0.509   6.112   4.816
10007WAT     H140748   0.567   6.110   4.750
10007WAT     H240749   0.551   6.071   4.881
10007WAT    EPW40750   0.524   6.106   4.816
10008WAT      O40751   0.784   6.407   4.715
10008WAT     H140752   0.861   6.427   4.679
10008WAT     H240753   0.728   6.458   4.672
10008WAT    EPW40754   0.787   6.417   4.704
10009WAT      O40755   1.031   4.860   5.661
10009WAT     H140756   1.049   4.786   5.619
10009WAT     H240757   0.966   4.896   5.615
10009WAT    EPW40758   1.024   4.855   5.648
10010WAT      O40759   1.123   5.372   4.514
10010WAT     H140760   1.152   5.332   4.442
10010WAT     H240761   1.196   5.387   4.559
10010WAT    EPW40762   1.138   5.368   4.510
10011WAT      O40763   1.220   5.341   4.002
10011WAT     H140764   1.245   5.420   4.031
10011WAT     H240765   1.141   5.356   3.967
10011WAT    EPW40766   1.212   5.355   4.001
10012WAT      O40767   1.602   6.599   4.144
10012WAT     H140768   1.651   6.579   4.075
10012WAT     H240769   1.657   6.645   4.195
10012WAT    EPW40770   1.618   6.603   4.141
10013WAT      O40771   0.667   6.530   5.295
10013WAT     H140772   0.708   6.489   5.361
10013WAT     H240773   0.603   6.476   5.274
10013WAT    EPW40774   0.664   6.516   5.302
10014WAT      O40775   1.852   5.039   5.031
10014WAT     H140776   1.912   5.027   4.969
10014WAT     H240777   1.871   4.978   5.091
10014WAT    EPW40778   1.864   5.028   5.031
10015WAT      O40779   1.345   6.221   5.545
10015WAT     H140780   1.337   6.242   5.629
10015WAT     H240781   1.432   6.216   5.533
10015WAT    EPW40782   1.357   6.223   5.556
10016WAT      O40783   1.078   6.242   3.968
10016WAT     H140784   1.046   6.303   4.023
10016WAT     H240785   1.156   6.273   3.947
10016WAT    EPW40786   1.084   6.256   3.973
10017WAT      O40787   1.438   4.977   4.094
10017WAT     H140788   1.492   4.909   4.099
10017WAT     H240789   1.457   5.024   4.165
10017WAT    EPW40790   1.449   4.974   4.105
10018WAT      O40791   0.271   5.143   4.357
10018WAT     H140792   0.204   5.088   4.362
10018WAT     H240793   0.290   5.160   4.441
10018WAT    EPW40794   0.264   5.138   4.370
10019WAT      O40795   0.455   6.375   5.198
10019WAT     H140796   0.421   6.299   5.227
10019WAT     H240797   0.464   6.362   5.112
10019WAT    EPW40798   0.451   6.362   5.190
10020WAT      O40799   1.192   5.250   4.268
10020WAT     H140800   1.118   5.205   4.255
10020WAT     H240801   1.209   5.284   4.189
10020WAT    EPW40802   1.184   5.248   4.254
10021WAT      O40803   1.205   6.488   5.265
10021WAT     H140804   1.283   6.480   5.226
10021WAT     H240805   1.149   6.485   5.198
10021WAT    EPW40806   1.208   6.487   5.249
10022WAT      O40807   1.196   4.912   4.218
10022WAT     H140808   1.138   4.899   4.155
10022WAT     H240809   1.269   4.934   4.174
10022WAT    EPW40810   1.198   4.914   4.202
10023WAT      O40811   1.895   6.539   4.539
10023WAT     H140812   1.853   6.614   4.554
10023WAT     H240813   1.830   6.482   4.527
10023WAT    EPW40814   1.879   6.542   4.539
10024WAT      O40815   1.011   5.183   4.691
10024WAT     H140816   1.037   5.247   4.638
10024WAT     H240817   1.020   5.217   4.771
10024WAT    EPW40818   1.016   5.197   4.695
10025WAT      O40819   1.633   6.108   4.601
10025WAT     H140820   1.696   6.049   4.589
10025WAT     H240821   1.560   6.061   4.595
10025WAT    EPW40822   1.632   6.092   4.598
10026WAT      O40823   0.648   6.197   5.431
10026WAT     H140824   0.721   6.234   5.401
10026WAT     H240825   0.631   6.240   5.505
10026WAT    EPW40826   0.656   6.209   5.437
10027WAT      O40827   0.608   4.695   4.535
10027WAT     H140828   0.633   4.769   4.496
10027WAT     H240829   0.569   4.651   4.471
10027WAT    EPW40830   0.606   4.700   4.520
10028WAT      O40831   0.789   5.798   4.883
10028WAT     H140832   0.815   5.775   4.963
10028WAT     H240833   0.732   5.736   4.861
10028WAT    EPW40834   0.785   5.786   4.892
10029WAT      O40835   1.369   5.166   5.274
10029WAT     H140836   1.369   5.209   5.350
10029WAT     H240837   1.305   5.108   5.282
10029WAT    EPW40838   1.360   5.164   5.286
10030WAT      O40839   0.889   5.784   5.140
10030WAT     H140840   0.890   5.870   5.157
10030WAT     H240841   0.857   5.750   5.214
10030WAT    EPW40842   0.884   5.792   5.154
10031WAT      O40843   1.499   5.885   5.143
10031WAT     H140844   1.426   5.853   5.177
10031WAT     H240845   1.489   5.971   5.149
10031WAT    EPW40846   1.487   5.893   5.149
10032WAT      O40847   1.533   4.767   4.573
10032WAT     H140848   1.530   4.751   4.659
10032WAT     H240849   1.568   4.694   4.540
10032WAT    EPW40850   1.538   4.754   4.581
10033WAT      O40851   1.744   5.208   5.367
10033WAT     H140852   1.827   5.191   5.386
10033WAT     H240853   1.703   5.201   5.443
10033WAT    EPW40854   1.750   5.205   5.381
10034WAT      O40855   0.572   5.058   4.650
10034WAT     H140856   0.605   5.009   4.585
10034WAT     H240857   0.542   4.999   4.707
10034WAT    EPW40858   0.573   5.042   4.649
10035WAT      O40859   1.808   5.911   4.114
10035WAT     H140860   1.808   5.862   4.186
10035WAT     H240861   1.892   5.918   4.094
10035WAT    EPW40862   1.820   5.905   4.122
10036WAT      O40863   0.530   5.880   4.541
10036WAT     H140864   0.613   5.877   4.515
10036WAT     H240865   0.496   5.805   4.510
10036WAT    EPW40866   0.537   5.869   4.532
10037WAT      O40867   0.384   6.521   4.732
10037WAT     H140868   0.328   6.477   4.681
10037WAT     H240869   0.454   6.532   4.680
10037WAT    EPW40870   0.386   6.516   4.717
10038WAT      O40871   0.380   5.302   5.038
10038WAT     H140872   0.464   5.311   5.017
10038WAT     H240873   0.347   5.381   5.025
10038WAT    EPW40874   0.387   5.315   5.033
10039WAT      O40875   2.032   6.336   5.510
10039WAT     H140876   1.958   6.336   5.463
10039WAT     H240877   2.012   6.291   5.581
10039WAT    EPW40878   2.018   6.329   5.513
10040WAT      O40879   1.617   5.572   4.035
10040WAT     H140880   1.611   5.654   4.006
10040WAT     H240881   1.585   5.576   4.116
10040WAT    EPW40882   1.611   5.585   4.043
10041WAT      O40883   0.784   5.862   4.424
10041WAT     H140884   0.849   5.919   4.413
10041WAT     H240885   0.803   5.798   4.367
10041WAT    EPW40886   0.797   5.861   4.414
10042WAT      O40887   1.929   5.035   4.020
10042WAT     H140888   1.946   4.962   3.975
10042WAT     H240889   1.893   5.088   3.961
10042WAT    EPW40890   1.926   5.032   4.005
10043WAT      O40891   0.953   5.396   5.807
10043WAT     H140892   0.905   5.425   5.873
10043WAT     H240893   0.924   5.442   5.739
10043WAT    EPW40894   0.942   5.407   5.806
10044WAT      O40895   2.025   5.471   5.266
10044WAT     H140896   2.050   5.402   5.218
10044WAT     H240897   1.940   5.479   5.248
10044WAT    EPW40898   2.016   5.462   5.256
10045WAT      O40899   1.806   4.926   4.250
10045WAT     H140900   1.882   4.893   4.277
10045WAT     H240901   1.828   4.974   4.181
10045WAT    EPW40902   1.820   4.929   4.244
10046WAT      O40903   1.208   6.260   4.702
10046WAT     H140904   1.160   6.330   4.682
10046WAT     H240905   1.237   6.232   4.625
10046WAT    EPW40906   1.205   6.266   4.688
10047WAT      O40907   0.633   5.977   5.023
10047WAT     H140908   0.694   6.011   5.074
10047WAT     H240909   0.679   5.923   4.971
10047WAT    EPW40910   0.649   5.974   5.023
10048WAT      O40911   1.493   5.196   4.704
10048WAT     H140912   1.523   5.161   4.778
10048WAT     H240913   1.429   5.142   4.680
10048WAT    EPW40914   1.488   5.183   4.712
10049WAT      O40915   0.379   5.862   4.791
10049WAT     H140916   0.423   5.839   4.719
10049WAT     H240917   0.397   5.947   4.800
10049WAT    EPW40918   0.388   5.871   4.782
10050WAT      O40919   0.929   5.165   4.187
10050WAT     H140920   0.916   5.138   4.105
10050WAT     H240921   0.894   5.245   4.188
10050WAT    EPW40922   0.922   5.173   4.175
10051WAT      O40923   1.788   6.347   5.352
10051WAT     H140924   1.743   6.421   5.361
10051WAT     H240925   1.782   6.330   5.267
10051WAT    EPW40926   1.781   6.355   5.341
10052WAT      O40927   0.725   6.150   4.635
10052WAT     H140928   0.736   6.233   4.659
10052WAT     H240929   0.799   6.111   4.660
10052WAT    EPW40930   0.738   6.157   4.642
10053WAT      O40931   0.520   5.531   5.653
10053WAT     H140932   0.490   5.466   5.702
10053WAT     H240933   0.518   5.499   5.572
10053WAT    EPW40934   0.515   5.517   5.649
10054WAT      O40935   0.544   5.385   4.147
10054WAT     H140936   0.540   5.312   4.195
10054WAT     H240937   0.509   5.360   4.071
10054WAT    EPW40938   0.538   5.370   4.143
10055WAT      O40939   0.610   5.595   4.841
10055WAT     H140940   0.581   5.566   4.764
10055WAT     H240941   0.630   5.522   4.885
10055WAT    EPW40942   0.608   5.580   4.836
10056WAT      O40943   0.575   5.569   5.178
10056WAT     H140944   0.604   5.518   5.114
10056WAT     H240945   0.530   5.631   5.137
10056WAT    EPW40946   0.572   5.570   5.162
10057WAT      O40947   1.642   5.373   4.976
10057WAT     H140948   1.575   5.397   5.026
10057WAT     H240949   1.638   5.428   4.908
10057WAT    EPW40950   1.631   5.385   4.973
10058WAT      O40951   0.989   6.448   5.095
10058WAT     H140952   0.967   6.385   5.039
10058WAT     H240953   0.970   6.521   5.050
10058WAT    EPW40954   0.983   6.450   5.080
10059WAT      O40955   1.207   4.949   5.344
10059WAT     H140956   1.223   4.868   5.316
10059WAT     H240957   1.238   4.948   5.426
10059WAT    EPW40958   1.214   4.937   5.352
10060WAT      O40959   1.443   5.130   4.323
10060WAT     H140960   1.499   5.197   4.334
10060WAT     H240961   1.366   5.169   4.313
10060WAT    EPW40962   1.440   5.146   4.323
10061WAT      O40963   0.399   5.776   5.714
10061WAT     H140964   0.381   5.816   5.639
10061WAT     H240965   0.429   5.698   5.689
10061WAT    EPW40966   0.401   5.770   5.699
10062WAT      O40967   1.548   5.936   5.594
10062WAT     H140968   1.577   6.016   5.571
10062WAT     H240969   1.577   5.885   5.529
10062WAT    EPW40970   1.557   5.940   5.581
10063WAT      O40971   0.972   6.253   5.611
10063WAT     H140972   0.997   6.249   5.695
10063WAT     H240973   0.942   6.173   5.595
10063WAT    EPW40974   0.971   6.241   5.621
10064WAT      O40975   1.028   5.266   4.954
10064WAT     H140976   1.094   5.323   4.958
10064WAT     H240977   1.064   5.192   4.982
10064WAT    EPW40978   1.043   5.264   4.959
10065WAT      O40979   1.290   5.576   4.141
10065WAT     H140980   1.271   5.630   4.076
10065WAT     H240981   1.229   5.594   4.201
10065WAT    EPW40982   1.278   5.587   4.140
10066WAT      O40983   1.818   5.900   4.568
10066WAT     H140984   1.822   5.851   4.640
10066WAT     H240985   1.792   5.844   4.506
10066WAT    EPW40986   1.815   5.884   4.569
10067WAT      O40987   1.386   6.317   4.913
10067WAT     H140988   1.328   6.294   4.852
10067WAT     H240989   1.435   6.377   4.872
10067WAT    EPW40990   1.385   6.323   4.898
10068WAT      O40991   1.373   5.958   4.897
10068WAT     H140992   1.299   5.989   4.931
10068WAT     H240993   1.409   5.913   4.963
10068WAT    EPW40994   1.367   5.956   4.912
10069WAT      O40995   0.759   6.460   4.281
10069WAT     H140996   0.765   6.387   4.328
10069WAT     H240997   0.832   6.460   4.234
10069WAT    EPW40998   0.770   6.449   4.281
10070WAT      O40999   0.728   4.814   4.071
10070WAT     H141000   0.714   4.789   4.153
10070WAT     H241001   0.673   4.881   4.060
10070WAT    EPW41002   0.718   4.820   4.081
10071WAT      O41003   1.001   6.443   4.145
10071WAT     H141004   1.058   6.449   4.211
10071WAT     H241005   1.007   6.521   4.106
10071WAT    EPW41006   1.010   6.455   4.149
10072WAT      O41007   1.627   5.787   5.373
10072WAT     H141008   1.594   5.825   5.302
10072WAT     H241009   1.712   5.805   5.368
10072WAT    EPW41010   1.635   5.795   5.362
10073WAT      O41011   1.329   6.354   5.798
10073WAT     H141012   1.352   6.376   5.879
10073WAT     H241013   1.361   6.419   5.749
10073WAT    EPW41014   1.337   6.367   5.803
10074WAT      O41015   1.767   4.885   5.643
10074WAT     H141016   1.726   4.842   5.579
10074WAT     H241017   1.764   4.829   5.710
10074WAT    EPW41018   1.761   4.871   5.643
10075WAT      O41019   0.493   5.654   4.202
10075WAT     H141020   0.508   5.570   4.185
10075WAT     H241021   0.472   5.654   4.287
10075WAT    EPW41022   0.492   5.641   4.212
10076WAT      O41023   1.272   5.781   5.256
10076WAT     H141024   1.221   5.821   5.315
10076WAT     H241025   1.303   5.713   5.300
10076WAT    EPW41026   1.269   5.777   5.271
10077WAT      O41027   1.131   5.615   4.369
10077WAT     H141028   1.144   5.681   4.425
10077WAT     H241029   1.119   5.546   4.421
10077WAT    EPW41030   1.131   5.615   4.385
10078WAT      O41031   1.623   6.097   4.885
10078WAT     H141032   1.638   6.110   4.800
10078WAT     H241033   1.542   6.066   4.887
10078WAT    EPW41034   1.613   6.095   4.873
10079WAT      O41035   0.587   5.047   4.008
10079WAT     H141036   0.534   5.049   3.939
10079WAT     H241037   0.660   5.086   3.979
10079WAT    EPW41038   0.590   5.053   3.994
10080WAT      O41039   1.048   5.827   4.787
10080WAT     H141040   0.964   5.810   4.803
10080WAT     H241041   1.089   5.796   4.858
10080WAT    EPW41042   1.042   5.820   4.800
10081WAT      O41043   0.727   6.438   3.911
10081WAT     H141044   0.743   6.372   3.966
10081WAT     H241045   0.723   6.507   3.964
10081WAT    EPW41046   0.729   6.439   3.927
10082WAT      O41047   0.435   5.781   5.057
10082WAT     H141048   0.491   5.847   5.064
10082WAT     H241049   0.411   5.783   4.973
10082WAT    EPW41050   0.440   5.791   5.045
10083WAT      O41051   0.738   5.261   4.730
10083WAT     H141052   0.820   5.239   4.714
10083WAT     H241053   0.692   5.190   4.708
10083WAT    EPW41054   0.743   5.247   4.725
10084WAT      O41055   1.996   6.488   4.117
10084WAT     H141056   2.064   6.439   4.091
10084WAT     H241057   1.946   6.431   4.161
10084WAT    EPW41058   1.998   6.472   4.119
10085WAT      O41059   0.231   5.433   4.448
10085WAT     H141060   0.254   5.379   4.513
10085WAT     H241061   0.223   5.379   4.380
10085WAT    EPW41062   0.233   5.417   4.448
10086WAT      O41063   1.745   5.759   5.066
10086WAT     H141064   1.746   5.687   5.115
10086WAT     H241065   1.665   5.791   5.078
10086WAT    EPW41066   1.734   5.753   5.075
10087WAT      O41067   0.730   5.638   3.910
10087WAT     H141068   0.676   5.695   3.948
10087WAT     H241069   0.680   5.600   3.848
10087WAT    EPW41070   0.715   5.641   3.906
10088WAT      O41071   0.369   5.897   5.461
10088WAT     H141072   0.327   5.848   5.403
10088WAT     H241073   0.357   5.978   5.432
10088WAT    EPW41074   0.361   5.902   5.448
10089WAT      O41075   1.845   5.740   4.802
10089WAT     H141076   1.816   5.756   4.882
10089WAT     H241077   1.931   5.732   4.812
10089WAT    EPW41078   1.854   5.742   4.815
10090WAT      O41079   0.819   5.420   4.155
10090WAT     H141080   0.834   5.499   4.190
10090WAT     H241081   0.732   5.417   4.149
10090WAT    EPW41082   0.809   5.431   4.159
10091WAT      O41083   1.640   5.141   5.624
10091WAT     H141084   1.565   5.145   5.669
10091WAT     H241085   1.666   5.058   5.635
10091WAT    EPW41086   1.633   5.130   5.632
10092WAT      O41087   0.275   5.118   4.852
10092WAT     H141088   0.321   5.045   4.861
10092WAT     H241089   0.303   5.168   4.918
10092WAT    EPW41090   0.286   5.115   4.863
10093WAT      O41091   2.001   6.235   4.895
10093WAT     H141092   2.028   6.288   4.832
10093WAT     H241093   2.065   6.238   4.954
10093WAT    EPW41094   2.014   6.243   4.894
10094WAT      O41095   1.474   5.498   5.710
10094WAT     H141096   1.514   5.505   5.787
10094WAT     H241097   1.399   5.542   5.722
10094WAT    EPW41098   1.469   5.506   5.724
10095WAT      O41099   1.704   5.533   5.545
10095WAT     H141100   1.728   5.613   5.570
10095WAT     H241101   1.633   5.516   5.592
10095WAT    EPW41102   1.697   5.542   5.556
10096WAT      O41103   1.676   6.154   4.096
10096WAT     H141104   1.714   6.076   4.105
10096WAT     H241105   1.599   6.145   4.136
10096WAT    EPW41106   1.670   6.141   4.103
10097WAT      O41107   1.736   5.301   4.615
10097WAT     H141108   1.668   5.254   4.642
10097WAT     H241109   1.727   5.377   4.657
10097WAT    EPW41110   1.724   5.306   4.625
10098WAT      O41111   2.019   5.615   5.740
10098WAT     H141112   2.022   5.558   5.674
10098WAT     H241113   2.099   5.651   5.740
10098WAT    EPW41114   2.031   5.612   5.730
10099WAT      O41115   1.896   5.865   5.377
10099WAT     H141116   1.964   5.817   5.353
10099WAT     H241117   1.891   5.925   5.314
10099WAT    EPW41118   1.905   5.867   5.364
10100WAT      O41119   1.352   5.955   4.026
10100WAT     H141120   1.428   5.913   4.017
10100WAT     H241121   1.322   5.959   3.944
10100WAT    EPW41122   1.359   5.949   4.012
10101WAT      O41123   0.877   6.072   5.140
10101WAT     H141124   0.873   6.128   5.206
10101WAT     H241125   0.873   6.122   5.069
10101WAT    EPW41126   0.876   6.087   5.139
10102WAT      O41127   0.647   5.920   5.446
10102WAT     H141128   0.563   5.902   5.459
10102WAT     H241129   0.647   6.006   5.434
10102WAT    EPW41130   0.634   5.930   5.446
10103WAT      O41131   1.588   4.990   5.279
10103WAT     H141132   1.648   5.052   5.294
10103WAT     H241133   1.514   5.035   5.271
10103WAT    EPW41134   1.586   5.006   5.280
10104WAT      O41135   1.130   5.704   5.030
10104WAT     H141136   1.183   5.731   5.093
10104WAT     H241137   1.050   5.716   5.063
10104WAT    EPW41138   1.126   5.710   5.044
10105WAT      O41139   0.763   5.284   5.420
10105WAT     H141140   0.780   5.206   5.457
10105WAT     H241141   0.793   5.275   5.339
10105WAT    EPW41142   0.770   5.271   5.414
10106WAT      O41143   1.036   6.465   4.610
10106WAT     H141144   1.034   6.550   4.627
10106WAT     H241145   1.049   6.461   4.523
10106WAT    EPW41146   1.038   6.477   4.600
10107WAT      O41147   1.651   4.782   5.098
10107WAT     H141148   1.626   4.855   5.138
10107WAT     H241149   1.735   4.775   5.120
10107WAT    EPW41150   1.660   4.792   5.107
10108WAT      O41151   0.937   4.888   5.343
10108WAT     H141152   1.019   4.916   5.331
10108WAT     H241153   0.943   4.802   5.334
10108WAT    EPW41154   0.950   4.880   5.340
10109WAT      O41155   0.877   6.253   4.932
10109WAT     H141156   0.828   6.306   4.883
10109WAT     H241157   0.918   6.202   4.874
10109WAT    EPW41158   0.876   6.253   4.916
10110WAT      O41159   1.283   5.907   5.658
10110WAT     H141160   1.364   5.921   5.630
10110WAT     H241161   1.233   5.926   5.589
10110WAT    EPW41162   1.287   5.912   5.644
10111WAT      O41163   1.624   6.199   5.527
10111WAT     H141164   1.660   6.227   5.601
10111WAT     H241165   1.673   6.236   5.465
10111WAT    EPW41166   1.637   6.208   5.529
10112WAT      O41167   1.866   5.457   4.001
10112WAT     H141168   1.913   5.513   3.953
10112WAT     H241169   1.787   5.493   4.002
10112WAT    EPW41170   1.861   5.471   3.994
10113WAT      O41171   0.975   5.739   3.989
10113WAT     H141172   0.904   5.703   3.953
10113WAT     H241173   0.955   5.824   3.990
10113WAT    EPW41174   0.961   5.746   3.983
10114WAT      O41175   0.649   5.356   4.978
10114WAT     H141176   0.676   5.321   4.903
10114WAT     H241177   0.705   5.325   5.037
10114WAT    EPW41178   0.661   5.347   4.976
10115WAT      O41179   1.368   5.338   5.496
10115WAT     H141180   1.292   5.378   5.508
10115WAT     H241181   1.410   5.350   5.571
10115WAT    EPW41182   1.363   5.346   5.509
10116WAT      O41183   1.416   5.403   5.132
10116WAT     H141184   1.423   5.459   5.199
10116WAT     H241185   1.400   5.327   5.171
10116WAT    EPW41186   1.415   5.400   5.148
10117WAT      O41187   1.138   6.469   5.534
10117WAT     H141188   1.152   6.465   5.448
10117WAT     H241189   1.101   6.393   5.554
10117WAT    EPW41190   1.135   6.457   5.525
10118WAT      O41191   1.624   5.349   4.365
10118WAT     H141192   1.651   5.330   4.446
10118WAT     H241193   1.696   5.379   4.326
10118WAT    EPW41194   1.639   5.351   4.371
10119WAT      O41195   0.917   4.822   4.926
10119WAT     H141196   0.831   4.815   4.942
10119WAT     H241197   0.921   4.830   4.839
10119WAT    EPW41198   0.905   4.822   4.915
10120WAT      O41199   1.756   4.934   4.527
10120WAT     H141200   1.678   4.899   4.546
10120WAT     H241201   1.753   4.945   4.441
10120WAT    EPW41202   1.744   4.930   4.517
10121WAT      O41203   1.757   5.743   4.340
10121WAT     H141204   1.799   5.667   4.327
10121WAT     H241205   1.673   5.721   4.331
10121WAT    EPW41206   1.750   5.728   4.337
10122WAT      O41207   1.120   5.945   5.433
10122WAT     H141208   1.044   5.948   5.476
10122WAT     H241209   1.128   6.026   5.401
10122WAT    EPW41210   1.110   5.958   5.434
10123WAT      O41211   0.655   6.599   5.002
10123WAT     H141212   0.663   6.593   5.089
10123WAT     H241213   0.626   6.520   4.979
10123WAT    EPW41214   0.652   6.587   5.011
10124WAT      O41215   0.536   5.131   4.268
10124WAT     H141216   0.541   5.100   4.187
10124WAT     H241217   0.451   5.127   4.287
10124WAT    EPW41218   0.524   5.126   4.259
10125WAT      O41219   1.415   5.922   4.623
10125WAT     H141220   1.399   5.931   4.709
10125WAT     H241221   1.442   5.839   4.617
10125WAT    EPW41222   1.417   5.911   4.635
10126WAT      O41223   1.163   5.839   4.534
10126WAT     H141224   1.124   5.829   4.611
10126WAT     H241225   1.242   5.870   4.554
10126WAT    EPW41226   1.169   5.842   4.548
10127WAT      O41227   1.160   6.214   5.343
10127WAT     H141228   1.217   6.213   5.409
10127WAT     H241229   1.186   6.282   5.294
10127WAT    EPW41230   1.172   6.224   5.345
10128WAT      O41231   1.973   5.434   5.535
10128WAT     H141232   1.887   5.448   5.536
10128WAT     H241233   1.995   5.449   5.452
10128WAT    EPW41234   1.964   5.438   5.523
10129WAT      O41235   1.431   5.574   5.351
10129WAT     H141236   1.421   5.511   5.410
10129WAT     H241237   1.503   5.616   5.379
10129WAT    EPW41238   1.440   5.571   5.364
10130WAT      O41239   0.378   6.547   5.566
10130WAT     H141240   0.328   6.573   5.633
10130WAT     H241241   0.434   6.613   5.556
10130WAT    EPW41242   0.379   6.560   5.575
10131WAT      O41243   1.223   5.662   5.772
10131WAT     H141244   1.247   5.737   5.734
10131WAT     H241245   1.143   5.680   5.803
10131WAT    EPW41246   1.214   5.676   5.771
10132WAT      O41247   1.527   6.553   4.848
10132WAT     H141248   1.468   6.613   4.872
10132WAT     H241249   1.591   6.564   4.906
10132WAT    EPW41250   1.528   6.564   4.860
10133WAT      O41251   1.161   6.058   5.056
10133WAT     H141252   1.082   6.054   5.092
10133WAT     H241253   1.211   6.090   5.120
10133WAT    EPW41254   1.157   6.062   5.071
10134WAT      O41255   1.748   6.278   5.762
10134WAT     H141256   1.831   6.249   5.762
10134WAT     H241257   1.713   6.237   5.831
10134WAT    EPW41258   1.755   6.267   5.772
10135WAT      O41259   0.516   5.410   5.403
10135WAT     H141260   0.524   5.463   5.335
10135WAT     H241261   0.594   5.370   5.408
10135WAT    EPW41262   0.529   5.412   5.394
10136WAT      O41263   0.370   5.198   5.301
10136WAT     H141264   0.359   5.223   5.218
10136WAT     H241265   0.410   5.266   5.338
10136WAT    EPW41266   0.374   5.211   5.294
10137WAT      O41267   1.853   5.488   4.278
10137WAT     H141268   1.864   5.481   4.192
10137WAT     H241269   1.928   5.460   4.312
10137WAT    EPW41270   1.866   5.483   4.270
10138WAT      O41271   0.596   4.865   5.533
10138WAT     H141272   0.652   4.798   5.525
10138WAT     H241273   0.577   4.884   5.450
10138WAT    EPW41274   0.602   4.858   5.520
10139WAT      O41275   1.245   6.188   4.433
10139WAT     H141276   1.224   6.268   4.407
10139WAT     H241277   1.172   6.142   4.419
10139WAT    EPW41278   1.231   6.193   4.427
10140WAT      O41279   1.749   5.496   5.265
10140WAT     H141280   1.732   5.411   5.263
10140WAT     H241281   1.727   5.520   5.346
10140WAT    EPW41282   1.743   5.487   5.276
10141WAT      O41283   0.243   5.758   5.257
10141WAT     H141284   0.300   5.764   5.191
10141WAT     H241285   0.166   5.773   5.219
10141WAT    EPW41286   0.240   5.761   5.242
10142WAT      O41287   0.417   5.316   3.903
10142WAT     H141288   0.331   5.319   3.914
10142WAT     H241289   0.430   5.242   3.859
10142WAT    EPW41290   0.406   5.306   3.898
10143WAT      O41291   1.289   4.955   5.611
10143WAT     H141292   1.318   5.022   5.659
10143WAT     H241293   1.209   4.941   5.642
10143WAT    EPW41294   1.281   4.963   5.623
10144WAT      O41295   1.263   5.040   4.677
10144WAT     H141296   1.184   5.078   4.676
10144WAT     H241297   1.256   4.978   4.616
10144WAT    EPW41298   1.250   5.036   4.668
10145WAT      O41299   0.741   6.210   4.088
10145WAT     H141300   0.771   6.214   4.169
10145WAT     H241301   0.660   6.178   4.097
10145WAT    EPW41302   0.734   6.206   4.101
10146WAT      O41303   1.586   5.101   4.949
10146WAT     H141304   1.662   5.064   4.969
10146WAT     H241305   1.598   5.185   4.969
10146WAT    EPW41306   1.599   5.108   4.955
10147WAT      O41307   0.759   5.680   5.362
10147WAT     H141308   0.721   5.752   5.391
10147WAT     H241309   0.698   5.644   5.310
10147WAT    EPW41310   0.744   5.685   5.358
10148WAT      O41311   1.668   5.536   4.748
10148WAT     H141312   1.727   5.598   4.763
10148WAT     H241313   1.608   5.576   4.698
10148WAT    EPW41314   1.668   5.551   4.743
10149WAT      O41315   1.679   6.366   4.486
10149WAT     H141316   1.663   6.289   4.523
10149WAT     H241317   1.717   6.345   4.410
10149WAT    EPW41318   1.682   6.351   4.480
10150WAT      O41319   0.494   6.092   4.130
10150WAT     H141320   0.473   6.083   4.214
10150WAT     H241321   0.508   6.010   4.103
10150WAT    EPW41322   0.493   6.078   4.138
10151WAT      O41323   0.811   5.974   3.952
10151WAT     H141324   0.737   5.933   3.971
10151WAT     H241325   0.805   6.050   3.994
10151WAT    EPW41326   0.799   5.979   3.961
10152WAT      O41327   0.751   4.994   5.161
10152WAT     H141328   0.673   4.974   5.195
10152WAT     H241329   0.807   4.950   5.211
10152WAT    EPW41330   0.748   4.985   5.174
10153WAT      O41331   1.908   4.833   5.216
10153WAT     H141332   1.893   4.850   5.301
10153WAT     H241333   1.990   4.805   5.215
10153WAT    EPW41334   1.918   4.832   5.229
10154WAT      O41335   1.102   5.012   5.026
10154WAT     H141336   1.044   4.952   5.000
10154WAT     H241337   1.179   4.977   5.006
10154WAT    EPW41338   1.105   4.998   5.019
10155WAT      O41339   1.428   6.154   5.144
10155WAT     H141340   1.456   6.224   5.189
10155WAT     H241341   1.419   6.184   5.063
10155WAT    EPW41342   1.431   6.169   5.139
10156WAT      O41343   1.405   6.540   5.598
10156WAT     H141344   1.332   6.503   5.567
10156WAT     H241345   1.382   6.623   5.614
10156WAT    EPW41346   1.391   6.547   5.596
10157WAT      O41347   0.878   5.501   5.548
10157WAT     H141348   0.845   5.430   5.509
10157WAT     H241349   0.845   5.567   5.501
10157WAT    EPW41350   0.868   5.500   5.535
10158WAT      O41351   1.000   4.853   4.032
10158WAT     H141352   1.011   4.856   3.945
10158WAT     H241353   0.913   4.853   4.041
10158WAT    EPW41354   0.989   4.854   4.020
10159WAT      O41355   1.886   6.008   5.139
10159WAT     H141356   1.848   5.941   5.097
10159WAT     H241357   1.840   6.077   5.114
10159WAT    EPW41358   1.874   6.008   5.129
10160WAT      O41359   0.807   6.482   5.543
10160WAT     H141360   0.787   6.484   5.628
10160WAT     H241361   0.859   6.412   5.536
10160WAT    EPW41362   0.812   6.472   5.555
10161WAT      O41363   1.773   6.251   5.066
10161WAT     H141364   1.840   6.263   5.012
10161WAT     H241365   1.712   6.215   5.015
10161WAT    EPW41366   1.774   6.248   5.050
10162WAT      O41367   0.505   4.957   5.292
10162WAT     H141368   0.447   4.896   5.273
10162WAT     H241369   0.459   5.031   5.290
10162WAT    EPW41370   0.490   4.959   5.289
10163WAT      O41371   1.353   4.938   4.921
10163WAT     H141372   1.419   4.991   4.942
10163WAT     H241373   1.325   4.970   4.844
10163WAT    EPW41374   1.358   4.951   4.912
10164WAT      O41375   0.531   6.330   5.648
10164WAT     H141376   0.592   6.366   5.698
10164WAT     H241377   0.485   6.398   5.620
10164WAT    EPW41378   0.533   6.345   5.651
10165WAT      O41379   1.338   5.428   4.681
10165WAT     H141380   1.391   5.360   4.692
10165WAT     H241381   1.303   5.441   4.761
10165WAT    EPW41382   1.340   5.420   4.695
10166WAT      O41383   0.356   5.225   4.612
10166WAT     H141384   0.313   5.202   4.684
10166WAT     H241385   0.426   5.174   4.612
10166WAT    EPW41386   0.360   5.214   4.623
10167WAT      O41387   0.378   6.166   5.377
10167WAT     H141388   0.341   6.215   5.439
10167WAT     H241389   0.463   6.175   5.392
10167WAT    EPW41390   0.385   6.175   5.389
10168WAT      O41391   1.512   5.596   4.306
10168WAT     H141392   1.534   5.514   4.324
10168WAT     H241393   1.437   5.588   4.262
10168WAT    EPW41394   1.504   5.583   4.302
10169WAT      O41395   0.484   6.478   4.216
10169WAT     H141396   0.461   6.435   4.144
10169WAT     H241397   0.569   6.461   4.224
10169WAT    EPW41398   0.493   6.469   4.207
10170WAT      O41399   0.891   5.673   4.246
10170WAT     H141400   0.917   5.700   4.167
10170WAT     H241401   0.966   5.654   4.287
10170WAT    EPW41402   0.906   5.674   4.240
10171WAT      O41403   1.784   6.543   3.942
10171WAT     H141404   1.854   6.533   3.992
10171WAT     H241405   1.769   6.463   3.911
10171WAT    EPW41406   1.792   6.530   3.945
10172WAT      O41407   1.816   5.772   5.634
10172WAT     H141408   1.886   5.736   5.672
10172WAT     H241409   1.850   5.815   5.565
10172WAT    EPW41410   1.832   5.773   5.629
10173WAT      O41411   1.429   6.145   4.220
10173WAT     H141412   1.381   6.140   4.293
10173WAT     H241413   1.391   6.088   4.166
10173WAT    EPW41414   1.416   6.136   4.223
10174WAT      O41415   1.870   5.220   5.755
10174WAT     H141416   1.860   5.299   5.789
10174WAT     H241417   1.795   5.206   5.714
10174WAT    EPW41418   1.857   5.229   5.754
10175WAT      O41419   1.910   5.315   5.034
10175WAT     H141420   1.828   5.343   5.020
10175WAT     H241421   1.901   5.228   5.040
10175WAT    EPW41422   1.896   5.306   5.033
10176WAT      O41423   0.818   5.033   5.543
10176WAT     H141424   0.858   4.999   5.473
10176WAT     H241425   0.744   4.988   5.547
10176WAT    EPW41426   0.813   5.021   5.533
10177WAT      O41427   1.592   5.829   5.857
10177WAT     H141428   1.666   5.858   5.893
10177WAT     H241429   1.600   5.853   5.773
10177WAT    EPW41430   1.604   5.837   5.850
10178WAT      O41431   0.507   6.365   4.926
10178WAT     H141432   0.509   6.285   4.890
10178WAT     H241433   0.460   6.411   4.869
10178WAT    EPW41434   0.501   6.360   4.912
10179WAT      O41435   1.094   6.005   4.121
10179WAT     H141436   1.172   5.976   4.096
10179WAT     H241437   1.081   6.074   4.070
10179WAT    EPW41438   1.104   6.011   4.110
10180WAT      O41439   0.321   6.601   5.291
10180WAT     H141440   0.320   6.576   5.374
10180WAT     H241441   0.353   6.532   5.249
10180WAT    EPW41442   0.325   6.587   5.297
10181WAT      O41443   1.270   4.835   2.585
10181WAT     H141444   1.271   4.877   2.509
10181WAT     H241445   1.354   4.814   2.598
10181WAT    EPW41446   1.283   4.838   2.576
10182WAT      O41447   1.226   5.463   3.035
10182WAT     H141448   1.189   5.538   3.060
10182WAT     H241449   1.287   5.449   3.096
10182WAT    EPW41450   1.230   5.472   3.048
10183WAT      O41451   1.825   6.318   2.352
10183WAT     H141452   1.890   6.262   2.368
10183WAT     H241453   1.772   6.272   2.299
10183WAT    EPW41454   1.827   6.303   2.346
10184WAT      O41455   0.567   5.840   2.120
10184WAT     H141456   0.507   5.827   2.059
10184WAT     H241457   0.543   5.786   2.184
10184WAT    EPW41458   0.554   5.831   2.121
10185WAT      O41459   1.470   5.652   2.679
10185WAT     H141460   1.477   5.637   2.593
10185WAT     H241461   1.418   5.588   2.707
10185WAT    EPW41462   1.463   5.640   2.671
10186WAT      O41463   0.410   6.090   2.497
10186WAT     H141464   0.457   6.034   2.545
10186WAT     H241465   0.328   6.064   2.511
10186WAT    EPW41466   0.405   6.078   2.506
10187WAT      O41467   0.951   4.964   2.470
10187WAT     H141468   0.937   5.034   2.419
10187WAT     H241469   1.027   4.933   2.442
10187WAT    EPW41470   0.960   4.970   2.458
10188WAT      O41471   0.399   6.317   2.099
10188WAT     H141472   0.432   6.309   2.019
10188WAT     H241473   0.416   6.240   2.137
10188WAT    EPW41474   0.406   6.305   2.093
10189WAT      O41475   0.883   5.988   3.683
10189WAT     H141476   0.867   5.978   3.768
10189WAT     H241477   0.810   5.958   3.645
10189WAT    EPW41478   0.870   5.982   3.690
10190WAT      O41479   0.424   5.639   2.577
10190WAT     H141480   0.350   5.594   2.566
10190WAT     H241481   0.477   5.582   2.615
10190WAT    EPW41482   0.421   5.624   2.581
10191WAT      O41483   0.836   5.251   3.253
10191WAT     H141484   0.904   5.257   3.200
10191WAT     H241485   0.814   5.167   3.249
10191WAT    EPW41486   0.842   5.240   3.245
10192WAT      O41487   0.887   6.294   3.415
10192WAT     H141488   0.902   6.351   3.351
10192WAT     H241489   0.967   6.270   3.441
10192WAT    EPW41490   0.901   6.299   3.409
10193WAT      O41491   0.552   5.437   2.718
10193WAT     H141492   0.624   5.390   2.735
10193WAT     H241493   0.488   5.378   2.719
10193WAT    EPW41494   0.553   5.421   2.721
10194WAT      O41495   0.987   6.094   2.838
10194WAT     H141496   1.012   6.013   2.859
10194WAT     H241497   1.062   6.137   2.828
10194WAT    EPW41498   1.002   6.088   2.840
10195WAT      O41499   1.021   6.025   2.483
10195WAT     H141500   1.062   5.963   2.529
10195WAT     H241501   1.042   6.007   2.401
10195WAT    EPW41502   1.030   6.013   2.478
10196WAT      O41503   1.148   5.524   3.650
10196WAT     H141504   1.061   5.517   3.645
10196WAT     H241505   1.160   5.571   3.723
10196WAT    EPW41506   1.137   5.530   3.660
10197WAT      O41507   0.674   4.944   2.517
10197WAT     H141508   0.638   5.007   2.467
10197WAT     H241509   0.759   4.949   2.498
10197WAT    EPW41510   0.681   4.954   2.507
10198WAT      O41511   1.651   4.707   3.582
10198WAT     H141512   1.631   4.737   3.502
10198WAT     H241513   1.573   4.693   3.618
10198WAT    EPW41514   1.636   4.710   3.575
10199WAT      O41515   0.958   4.906   2.746
10199WAT     H141516   0.971   4.988   2.775
10199WAT     H241517   0.949   4.916   2.660
10199WAT    EPW41518   0.959   4.920   2.738
10200WAT      O41519   1.400   5.152   1.980
10200WAT     H141520   1.348   5.215   2.010
10200WAT     H241521   1.412   5.100   2.048
10200WAT    EPW41522   1.394   5.154   1.994
10201WAT      O41523   0.805   6.203   2.473
10201WAT     H141524   0.763   6.182   2.546
10201WAT     H241525   0.877   6.154   2.475
10201WAT    EPW41526   0.809   6.192   2.484
10202WAT      O41527   1.390   6.415   2.263
10202WAT     H141528   1.461   6.464   2.267
10202WAT     H241529   1.418   6.335   2.284
10202WAT    EPW41530   1.404   6.410   2.267
10203WAT      O41531   1.190   6.448   2.450
10203WAT     H141532   1.216   6.516   2.498
10203WAT     H241533   1.251   6.442   2.388
10203WAT    EPW41534   1.203   6.457   2.448
10204WAT      O41535   0.452   4.893   2.939
10204WAT     H141536   0.414   4.823   2.903
10204WAT     H241537   0.511   4.859   2.994
10204WAT    EPW41538   0.455   4.878   2.942
10205WAT      O41539   0.831   5.143   3.909
10205WAT     H141540   0.842   5.109   3.829
10205WAT     H241541   0.868   5.222   3.903
10205WAT    EPW41542   0.838   5.150   3.897
10206WAT      O41543   0.403   6.367   2.555
10206WAT     H141544   0.411   6.281   2.542
10206WAT     H241545   0.410   6.401   2.474
10206WAT    EPW41546   0.405   6.360   2.541
10207WAT      O41547   1.949   5.117   2.694
10207WAT     H141548   1.895   5.186   2.700
10207WAT     H241549   1.895   5.049   2.686
10207WAT    EPW41550   1.933   5.117   2.693
10208WAT      O41551   1.448   6.437   3.256
10208WAT     H141552   1.519   6.486   3.245
10208WAT     H241553   1.432   6.406   3.176
10208WAT    EPW41554   1.456   6.440   3.242
10209WAT      O41555   0.440   5.069   3.758
10209WAT     H141556   0.385   5.089   3.694
10209WAT     H241557   0.493   5.009   3.722
10209WAT    EPW41558   0.440   5.063   3.744
10210WAT      O41559   0.505   6.106   2.911
10210WAT     H141560   0.563   6.105   2.846
10210WAT     H241561   0.546   6.067   2.977
10210WAT    EPW41562   0.520   6.100   2.911
10211WAT      O41563   0.785   6.408   2.818
10211WAT     H141564   0.862   6.426   2.781
10211WAT     H241565   0.728   6.457   2.773
10211WAT    EPW41566   0.788   6.418   2.806
10212WAT      O41567   1.034   4.851   3.759
10212WAT     H141568   1.054   4.775   3.720
10212WAT     H241569   0.970   4.883   3.709
10212WAT    EPW41570   1.027   4.844   3.746
10213WAT      O41571   1.121   5.372   2.615
10213WAT     H141572   1.149   5.332   2.543
10213WAT     H241573   1.195   5.386   2.660
10213WAT    EPW41574   1.136   5.368   2.611
10214WAT      O41575   1.221   5.343   2.099
10214WAT     H141576   1.246   5.422   2.129
10214WAT     H241577   1.143   5.358   2.064
10214WAT    EPW41578   1.213   5.357   2.098
10215WAT      O41579   1.602   6.598   2.244
10215WAT     H141580   1.651   6.578   2.175
10215WAT     H241581   1.656   6.644   2.295
10215WAT    EPW41582   1.617   6.602   2.242
10216WAT      O41583   0.665   6.531   3.392
10216WAT     H141584   0.706   6.490   3.457
10216WAT     H241585   0.601   6.476   3.371
10216WAT    EPW41586   0.662   6.517   3.399
10217WAT      O41587   1.860   5.052   3.131
10217WAT     H141588   1.921   5.038   3.070
10217WAT     H241589   1.874   4.988   3.188
10217WAT    EPW41590   1.871   5.040   3.130
10218WAT      O41591   1.345   6.224   3.644
10218WAT     H141592   1.337   6.243   3.729
10218WAT     H241593   1.432   6.220   3.633
10218WAT    EPW41594   1.357   6.226   3.655
10219WAT      O41595   1.079   6.241   2.070
10219WAT     H141596   1.047   6.301   2.124
10219WAT     H241597   1.158   6.272   2.048
10219WAT    EPW41598   1.086   6.254   2.075
10220WAT      O41599   1.432   4.980   2.196
10220WAT     H141600   1.485   4.911   2.206
10220WAT     H241601   1.448   5.028   2.267
10220WAT    EPW41602   1.442   4.977   2.208
10221WAT      O41603   0.272   5.141   2.458
10221WAT     H141604   0.206   5.084   2.465
10221WAT     H241605   0.291   5.160   2.541
10221WAT    EPW41606   0.265   5.136   2.472
10222WAT      O41607   0.454   6.375   3.294
10222WAT     H141608   0.421   6.299   3.324
10222WAT     H241609   0.463   6.360   3.209
10222WAT    EPW41610   0.450   6.361   3.286
10223WAT      O41611   1.185   5.256   2.365
10223WAT     H141612   1.111   5.213   2.351
10223WAT     H241613   1.205   5.288   2.286
10223WAT    EPW41614   1.177   5.254   2.351
10224WAT      O41615   1.204   6.492   3.364
10224WAT     H141616   1.282   6.481   3.326
10224WAT     H241617   1.147   6.487   3.298
10224WAT    EPW41618   1.207   6.489   3.349
10225WAT      O41619   1.193   4.913   2.324
10225WAT     H141620   1.135   4.898   2.261
10225WAT     H241621   1.266   4.935   2.281
10225WAT    EPW41622   1.195   4.914   2.309
10226WAT      O41623   1.897   6.537   2.641
10226WAT     H141624   1.854   6.612   2.654
10226WAT     H241625   1.833   6.479   2.629
10226WAT    EPW41626   1.881   6.540   2.641
10227WAT      O41627   1.015   5.179   2.795
10227WAT     H141628   1.042   5.244   2.742
10227WAT     H241629   1.025   5.213   2.875
10227WAT    EPW41630   1.021   5.194   2.799
10228WAT      O41631   1.635   6.107   2.707
10228WAT     H141632   1.697   6.048   2.691
10228WAT     H241633   1.561   6.062   2.700
10228WAT    EPW41634   1.634   6.092   2.703
10229WAT      O41635   0.646   6.198   3.532
10229WAT     H141636   0.719   6.236   3.503
10229WAT     H241637   0.630   6.241   3.607
10229WAT    EPW41638   0.654   6.210   3.539
10230WAT      O41639   0.599   4.701   2.628
10230WAT     H141640   0.628   4.775   2.593
10230WAT     H241641   0.563   4.658   2.561
10230WAT    EPW41642   0.598   4.705   2.613
10231WAT      O41643   0.786   5.798   2.984
10231WAT     H141644   0.813   5.776   3.064
10231WAT     H241645   0.730   5.735   2.963
10231WAT    EPW41646   0.782   5.785   2.993
10232WAT      O41647   1.353   5.183   3.370
10232WAT     H141648   1.345   5.225   3.446
10232WAT     H241649   1.296   5.117   3.377
10232WAT    EPW41650   1.343   5.180   3.383
10233WAT      O41651   0.884   5.786   3.242
10233WAT     H141652   0.885   5.872   3.258
10233WAT     H241653   0.853   5.752   3.316
10233WAT    EPW41654   0.880   5.794   3.255
10234WAT      O41655   1.496   5.877   3.242
10234WAT     H141656   1.422   5.846   3.276
10234WAT     H241657   1.487   5.964   3.249
10234WAT    EPW41658   1.484   5.885   3.248
10235WAT      O41659   1.529   4.752   2.647
10235WAT     H141660   1.526   4.732   2.732
10235WAT     H241661   1.563   4.680   2.611
10235WAT    EPW41662   1.534   4.738   2.655
10236WAT      O41663   1.755   5.259   3.454
10236WAT     H141664   1.833   5.227   3.475
10236WAT     H241665   1.713   5.263   3.531
10236WAT    EPW41666   1.760   5.255   3.469
10237WAT      O41667   0.574   5.059   2.750
10237WAT     H141668   0.606   5.011   2.685
10237WAT     H241669   0.543   5.000   2.806
10237WAT    EPW41670   0.574   5.043   2.748
10238WAT      O41671   1.799   5.912   2.216
10238WAT     H141672   1.800   5.863   2.289
10238WAT     H241673   1.884   5.920   2.196
10238WAT    EPW41674   1.812   5.906   2.224
10239WAT      O41675   0.532   5.886   2.638
10239WAT     H141676   0.615   5.883   2.611
10239WAT     H241677   0.499   5.810   2.611
10239WAT    EPW41678   0.540   5.874   2.630
10240WAT      O41679   0.384   6.518   2.831
10240WAT     H141680   0.326   6.477   2.780
10240WAT     H241681   0.453   6.528   2.778
10240WAT    EPW41682   0.386   6.513   2.815
10241WAT      O41683   0.383   5.302   3.135
10241WAT     H141684   0.468   5.310   3.116
10241WAT     H241685   0.352   5.383   3.123
10241WAT    EPW41686   0.391   5.315   3.130
10242WAT      O41687   2.034   6.339   3.605
10242WAT     H141688   1.958   6.341   3.561
10242WAT     H241689   2.014   6.294   3.676
10242WAT    EPW41690   2.020   6.333   3.609
10243WAT      O41691   1.618   5.568   2.134
10243WAT     H141692   1.611   5.649   2.105
10243WAT     H241693   1.588   5.572   2.216
10243WAT    EPW41694   1.613   5.580   2.142
10244WAT      O41695   0.784   5.864   2.518
10244WAT     H141696   0.850   5.920   2.509
10244WAT     H241697   0.804   5.800   2.462
10244WAT    EPW41698   0.797   5.862   2.509
10245WAT      O41699   1.944   5.045   2.148
10245WAT     H141700   1.988   4.979   2.111
10245WAT     H241701   1.918   5.093   2.080
10245WAT    EPW41702   1.947   5.042   2.132
10246WAT      O41703   0.951   5.395   3.908
10246WAT     H141704   0.904   5.423   3.976
10246WAT     H241705   0.920   5.441   3.841
10246WAT    EPW41706   0.940   5.406   3.908
10247WAT      O41707   2.048   5.483   3.360
10247WAT     H141708   2.099   5.414   3.340
10247WAT     H241709   1.976   5.470   3.313
10247WAT    EPW41710   2.045   5.471   3.350
10248WAT      O41711   1.799   4.924   2.358
10248WAT     H141712   1.872   4.885   2.383
10248WAT     H241713   1.824   4.979   2.295
10248WAT    EPW41714   1.813   4.926   2.352
10249WAT      O41715   1.209   6.258   2.803
10249WAT     H141716   1.161   6.328   2.783
10249WAT     H241717   1.237   6.230   2.725
10249WAT    EPW41718   1.206   6.264   2.789
10250WAT      O41719   0.629   5.976   3.122
10250WAT     H141720   0.689   6.012   3.174
10250WAT     H241721   0.675   5.923   3.071
10250WAT    EPW41722   0.645   5.974   3.122
10251WAT      O41723   1.488   5.196   2.812
10251WAT     H141724   1.521   5.163   2.886
10251WAT     H241725   1.426   5.139   2.791
10251WAT    EPW41726   1.484   5.183   2.820
10252WAT      O41727   0.373   5.856   2.891
10252WAT     H141728   0.415   5.828   2.820
10252WAT     H241729   0.394   5.941   2.895
10252WAT    EPW41730   0.382   5.865   2.881
10253WAT      O41731   0.925   5.168   2.286
10253WAT     H141732   0.913   5.141   2.205
10253WAT     H241733   0.889   5.248   2.286
10253WAT    EPW41734   0.918   5.176   2.274
10254WAT      O41735   1.785   6.361   3.452
10254WAT     H141736   1.739   6.433   3.468
10254WAT     H241737   1.778   6.350   3.366
10254WAT    EPW41738   1.777   6.370   3.442
10255WAT      O41739   0.725   6.151   2.736
10255WAT     H141740   0.736   6.234   2.761
10255WAT     H241741   0.799   6.112   2.761
10255WAT    EPW41742   0.737   6.157   2.743
10256WAT      O41743   0.517   5.532   3.752
10256WAT     H141744   0.488   5.466   3.801
10256WAT     H241745   0.516   5.500   3.671
10256WAT    EPW41746   0.513   5.517   3.748
10257WAT      O41747   0.539   5.390   2.248
10257WAT     H141748   0.537   5.317   2.296
10257WAT     H241749   0.505   5.365   2.171
10257WAT    EPW41750   0.534   5.375   2.244
10258WAT      O41751   0.609   5.592   2.944
10258WAT     H141752   0.583   5.563   2.866
10258WAT     H241753   0.632   5.519   2.986
10258WAT    EPW41754   0.609   5.577   2.938
10259WAT      O41755   0.574   5.569   3.278
10259WAT     H141756   0.605   5.518   3.214
10259WAT     H241757   0.530   5.630   3.235
10259WAT    EPW41758   0.572   5.570   3.262
10260WAT      O41759   1.642   5.380   3.073
10260WAT     H141760   1.575   5.406   3.123
10260WAT     H241761   1.637   5.433   3.004
10260WAT    EPW41762   1.631   5.392   3.070
10261WAT      O41763   0.987   6.449   3.195
10261WAT     H141764   0.966   6.385   3.140
10261WAT     H241765   0.969   6.521   3.150
10261WAT    EPW41766   0.981   6.450   3.180
10262WAT      O41767   1.211   4.952   3.440
10262WAT     H141768   1.225   4.872   3.409
10262WAT     H241769   1.243   4.948   3.521
10262WAT    EPW41770   1.217   4.940   3.448
10263WAT      O41771   1.434   5.135   2.421
10263WAT     H141772   1.491   5.200   2.434
10263WAT     H241773   1.357   5.175   2.413
10263WAT    EPW41774   1.431   5.150   2.422
10264WAT      O41775   0.397   5.777   3.813
10264WAT     H141776   0.380   5.818   3.737
10264WAT     H241777   0.427   5.699   3.788
10264WAT    EPW41778   0.399   5.772   3.798
10265WAT      O41779   1.547   5.941   3.693
10265WAT     H141780   1.575   6.020   3.669
10265WAT     H241781   1.574   5.889   3.629
10265WAT    EPW41782   1.555   5.945   3.680
10266WAT      O41783   0.970   6.254   3.712
10266WAT     H141784   0.995   6.251   3.796
10266WAT     H241785   0.940   6.174   3.696
10266WAT    EPW41786   0.969   6.242   3.722
10267WAT      O41787   1.035   5.262   3.058
10267WAT     H141788   1.099   5.321   3.060
10267WAT     H241789   1.074   5.188   3.083
10267WAT    EPW41790   1.050   5.259   3.062
10268WAT      O41791   1.287   5.578   2.240
10268WAT     H141792   1.268   5.634   2.176
10268WAT     H241793   1.227   5.594   2.301
10268WAT    EPW41794   1.275   5.589   2.240
10269WAT      O41795   1.818   5.900   2.667
10269WAT     H141796   1.822   5.851   2.739
10269WAT     H241797   1.792   5.844   2.605
10269WAT    EPW41798   1.815   5.885   2.668
10270WAT      O41799   1.393   6.306   3.012
10270WAT     H141800   1.334   6.286   2.951
10270WAT     H241801   1.442   6.366   2.972
10270WAT    EPW41802   1.392   6.312   2.997
10271WAT      O41803   1.379   5.957   2.996
10271WAT     H141804   1.304   5.988   3.028
10271WAT     H241805   1.411   5.910   3.061
10271WAT    EPW41806   1.372   5.955   3.010
10272WAT      O41807   0.758   6.460   2.378
10272WAT     H141808   0.764   6.387   2.427
10272WAT     H241809   0.832   6.459   2.332
10272WAT    EPW41810   0.770   6.449   2.379
10273WAT      O41811   0.724   4.814   2.173
10273WAT     H141812   0.710   4.789   2.255
10273WAT     H241813   0.671   4.882   2.163
10273WAT    EPW41814   0.714   4.820   2.183
10274WAT      O41815   1.001   6.443   2.245
10274WAT     H141816   1.058   6.448   2.311
10274WAT     H241817   1.007   6.520   2.205
10274WAT    EPW41818   1.010   6.455   2.249
10275WAT      O41819   1.625   5.791   3.473
10275WAT     H141820   1.589   5.822   3.400
10275WAT     H241821   1.709   5.816   3.467
10275WAT    EPW41822   1.632   5.799   3.462
10276WAT      O41823   1.326   6.354   3.900
10276WAT     H141824   1.350   6.375   3.981
10276WAT     H241825   1.357   6.419   3.851
10276WAT    EPW41826   1.335   6.367   3.905
10277WAT      O41827   1.830   4.827   3.763
10277WAT     H141828   1.772   4.801   3.703
10277WAT     H241829   1.820   4.769   3.828
10277WAT    EPW41830   1.820   4.815   3.764
10278WAT      O41831   0.489   5.658   2.308
10278WAT     H141832   0.503   5.574   2.291
10278WAT     H241833   0.470   5.659   2.393
10278WAT    EPW41834   0.488   5.646   2.318
10279WAT      O41835   1.267   5.781   3.357
10279WAT     H141836   1.217   5.822   3.417
10279WAT     H241837   1.299   5.713   3.401
10279WAT    EPW41838   1.264   5.777   3.373
10280WAT      O41839   1.129   5.614   2.470
10280WAT     H141840   1.143   5.680   2.526
10280WAT     H241841   1.117   5.545   2.521
10280WAT    EPW41842   1.129   5.614   2.486
10281WAT      O41843   1.638   6.090   2.993
10281WAT     H141844   1.653   6.103   2.908
10281WAT     H241845   1.555   6.061   2.996
10281WAT    EPW41846   1.628   6.087   2.981
10282WAT      O41847   0.586   5.048   2.108
10282WAT     H141848   0.533   5.050   2.039
10282WAT     H241849   0.658   5.087   2.080
10282WAT    EPW41850   0.589   5.054   2.094
10283WAT      O41851   1.045   5.826   2.886
10283WAT     H141852   0.961   5.810   2.902
10283WAT     H241853   1.086   5.796   2.957
10283WAT    EPW41854   1.039   5.819   2.899
10284WAT      O41855   0.725   6.438   2.012
10284WAT     H141856   0.741   6.372   2.066
10284WAT     H241857   0.721   6.507   2.065
10284WAT    EPW41858   0.727   6.439   2.028
10285WAT      O41859   0.432   5.779   3.156
10285WAT     H141860   0.488   5.846   3.163
10285WAT     H241861   0.407   5.782   3.073
10285WAT    EPW41862   0.436   5.790   3.145
10286WAT      O41863   0.742   5.261   2.830
10286WAT     H141864   0.825   5.238   2.815
10286WAT     H241865   0.696   5.190   2.808
10286WAT    EPW41866   0.747   5.247   2.824
10287WAT      O41867   1.999   6.484   2.213
10287WAT     H141868   2.066   6.435   2.186
10287WAT     H241869   1.948   6.429   2.255
10287WAT    EPW41870   2.001   6.469   2.215
10288WAT      O41871   0.234   5.435   2.550
10288WAT     H141872   0.259   5.379   2.612
10288WAT     H241873   0.225   5.384   2.480
10288WAT    EPW41874   0.237   5.419   2.549
10289WAT      O41875   1.743   5.747   3.164
10289WAT     H141876   1.749   5.677   3.215
10289WAT     H241877   1.662   5.776   3.178
10289WAT    EPW41878   1.732   5.741   3.173
10290WAT      O41879   0.733   5.641   2.006
10290WAT     H141880   0.679   5.697   2.046
10290WAT     H241881   0.683   5.602   1.947
10290WAT    EPW41882   0.718   5.643   2.004
10291WAT      O41883   0.367   5.899   3.561
10291WAT     H141884   0.325   5.849   3.502
10291WAT     H241885   0.355   5.980   3.530
10291WAT    EPW41886   0.359   5.903   3.547
10292WAT      O41887   1.842   5.739   2.900
10292WAT     H141888   1.812   5.749   2.981
10292WAT     H241889   1.928   5.733   2.910
10292WAT    EPW41890   1.850   5.739   2.913
10293WAT      O41891   0.815   5.422   2.251
10293WAT     H141892   0.832   5.500   2.287
10293WAT     H241893   0.728   5.420   2.247
10293WAT    EPW41894   0.805   5.434   2.256
10294WAT      O41895   1.605   5.174   3.690
10294WAT     H141896   1.539   5.167   3.747
10294WAT     H241897   1.587   5.112   3.631
10294WAT    EPW41898   1.592   5.164   3.690
10295WAT      O41899   0.275   5.119   2.950
10295WAT     H141900   0.320   5.046   2.959
10295WAT     H241901   0.303   5.169   3.016
10295WAT    EPW41902   0.286   5.116   2.961
10296WAT      O41903   1.982   6.250   2.976
10296WAT     H141904   2.023   6.305   2.923
10296WAT     H241905   2.036   6.242   3.044
10296WAT    EPW41906   1.996   6.257   2.978
10297WAT      O41907   1.468   5.505   3.808
10297WAT     H141908   1.508   5.510   3.885
10297WAT     H241909   1.394   5.549   3.820
10297WAT    EPW41910   1.463   5.512   3.821
10298WAT      O41911   1.699   5.540   3.642
10298WAT     H141912   1.722   5.620   3.666
10298WAT     H241913   1.628   5.523   3.690
10298WAT    EPW41914   1.692   5.549   3.653
10299WAT      O41915   1.672   6.155   2.194
10299WAT     H141916   1.709   6.077   2.203
10299WAT     H241917   1.594   6.146   2.234
10299WAT    EPW41918   1.666   6.142   2.201
10300WAT      O41919   1.727   5.296   2.711
10300WAT     H141920   1.660   5.250   2.742
10300WAT     H241921   1.721   5.373   2.753
10300WAT    EPW41922   1.717   5.301   2.722
10301WAT      O41923   2.017   5.617   3.833
10301WAT     H141924   2.017   5.562   3.766
10301WAT     H241925   2.096   5.655   3.828
10301WAT    EPW41926   2.029   5.615   3.822
10302WAT      O41927   1.883   5.895   3.466
10302WAT     H141928   1.950   5.848   3.435
10302WAT     H241929   1.869   5.953   3.402
10302WAT    EPW41930   1.891   5.897   3.452
10303WAT      O41931   1.348   5.948   2.127
10303WAT     H141932   1.424   5.907   2.119
10303WAT     H241933   1.319   5.952   2.045
10303WAT    EPW41934   1.355   5.942   2.114
10304WAT      O41935   0.872   6.072   3.242
10304WAT     H141936   0.868   6.129   3.308
10304WAT     H241937   0.870   6.123   3.171
10304WAT    EPW41938   0.871   6.088   3.242
10305WAT      O41939   0.645   5.922   3.547
10305WAT     H141940   0.560   5.903   3.559
10305WAT     H241941   0.645   6.008   3.534
10305WAT    EPW41942   0.632   5.932   3.547
10306WAT      O41943   1.583   5.041   3.428
10306WAT     H141944   1.644   5.101   3.413
10306WAT     H241945   1.509   5.079   3.403
10306WAT    EPW41946   1.581   5.055   3.422
10307WAT      O41947   1.125   5.706   3.130
10307WAT     H141948   1.179   5.731   3.194
10307WAT     H241949   1.046   5.719   3.164
10307WAT    EPW41950   1.121   5.712   3.145
10308WAT      O41951   0.763   5.285   3.519
10308WAT     H141952   0.779   5.208   3.557
10308WAT     H241953   0.794   5.276   3.438
10308WAT    EPW41954   0.770   5.272   3.513
10309WAT      O41955   1.037   6.463   2.711
10309WAT     H141956   1.035   6.549   2.727
10309WAT     H241957   1.050   6.460   2.624
10309WAT    EPW41958   1.039   6.475   2.700
10310WAT      O41959   1.608   4.784   3.319
10310WAT     H141960   1.596   4.868   3.340
10310WAT     H241961   1.688   4.783   3.285
10310WAT    EPW41962   1.618   4.796   3.317
10311WAT      O41963   0.942   4.887   3.448
10311WAT     H141964   1.023   4.917   3.435
10311WAT     H241965   0.948   4.801   3.435
10311WAT    EPW41966   0.955   4.879   3.444
10312WAT      O41967   0.877   6.252   3.033
10312WAT     H141968   0.829   6.305   2.984
10312WAT     H241969   0.918   6.201   2.975
10312WAT    EPW41970   0.876   6.252   3.017
10313WAT      O41971   1.281   5.911   3.759
10313WAT     H141972   1.362   5.924   3.730
10313WAT     H241973   1.231   5.928   3.689
10313WAT    EPW41974   1.286   5.915   3.744
10314WAT      O41975   1.625   6.204   3.626
10314WAT     H141976   1.662   6.231   3.700
10314WAT     H241977   1.672   6.242   3.564
10314WAT    EPW41978   1.637   6.213   3.628
10315WAT      O41979   1.871   5.458   2.103
10315WAT     H141980   1.918   5.516   2.057
10315WAT     H241981   1.791   5.491   2.101
10315WAT    EPW41982   1.866   5.472   2.096
10316WAT      O41983   0.980   5.738   2.086
10316WAT     H141984   0.908   5.704   2.050
10316WAT     H241985   0.963   5.824   2.089
10316WAT    EPW41986   0.967   5.746   2.081
10317WAT      O41987   0.654   5.354   3.078
10317WAT     H141988   0.681   5.319   3.003
10317WAT     H241989   0.710   5.323   3.137
10317WAT    EPW41990   0.666   5.344   3.076
10318WAT      O41991   1.349   5.347   3.596
10318WAT     H141992   1.276   5.392   3.612
10318WAT     H241993   1.396   5.356   3.668
10318WAT    EPW41994   1.345   5.355   3.609
10319WAT      O41995   1.415   5.414   3.228
10319WAT     H141996   1.423   5.469   3.295
10319WAT     H241997   1.396   5.338   3.265
10319WAT    EPW41998   1.414   5.411   3.243
10320WAT      O41999   1.135   6.471   3.633
10320WAT     H142000   1.150   6.466   3.547
10320WAT     H242001   1.099   6.394   3.652
10320WAT    EPW42002   1.132   6.459   3.623
10321WAT      O42003   1.615   5.349   2.464
10321WAT     H142004   1.642   5.328   2.544
10321WAT     H242005   1.688   5.378   2.425
10321WAT    EPW42006   1.630   5.351   2.470
10322WAT      O42007   0.916   4.827   3.024
10322WAT     H142008   0.831   4.822   3.040
10322WAT     H242009   0.920   4.835   2.937
10322WAT    EPW42010   0.904   4.828   3.014
10323WAT      O42011   1.755   4.920   2.634
10323WAT     H142012   1.677   4.883   2.648
10323WAT     H242013   1.755   4.937   2.549
10323WAT    EPW42014   1.743   4.917   2.624
10324WAT      O42015   1.753   5.744   2.441
10324WAT     H142016   1.795   5.668   2.429
10324WAT     H242017   1.669   5.722   2.433
10324WAT    EPW42018   1.747   5.729   2.438
10325WAT      O42019   1.118   5.947   3.534
10325WAT     H142020   1.042   5.949   3.577
10325WAT     H242021   1.126   6.028   3.502
10325WAT    EPW42022   1.108   5.959   3.536
10326WAT      O42023   0.657   6.595   3.102
10326WAT     H142024   0.663   6.589   3.188
10326WAT     H242025   0.629   6.516   3.078
10326WAT    EPW42026   0.654   6.582   3.111
10327WAT      O42027   0.536   5.136   2.367
10327WAT     H142028   0.541   5.104   2.286
10327WAT     H242029   0.451   5.130   2.386
10327WAT    EPW42030   0.524   5.131   2.358
10328WAT      O42031   1.414   5.923   2.722
10328WAT     H142032   1.400   5.932   2.807
10328WAT     H242033   1.441   5.840   2.714
10328WAT    EPW42034   1.416   5.912   2.733
10329WAT      O42035   1.161   5.839   2.633
10329WAT     H142036   1.122   5.829   2.711
10329WAT     H242037   1.240   5.870   2.654
10329WAT    EPW42038   1.167   5.842   2.648
10330WAT      O42039   1.157   6.215   3.444
10330WAT     H142040   1.215   6.215   3.510
10330WAT     H242041   1.185   6.280   3.393
10330WAT    EPW42042   1.170   6.225   3.447
10331WAT      O42043   1.968   5.444   3.623
10331WAT     H142044   1.882   5.459   3.622
10331WAT     H242045   1.993   5.464   3.542
10331WAT    EPW42046   1.959   5.449   3.611
10332WAT      O42047   1.428   5.576   3.453
10332WAT     H142048   1.411   5.511   3.510
10332WAT     H242049   1.500   5.613   3.485
10332WAT    EPW42050   1.436   5.572   3.466
10333WAT      O42051   0.379   6.546   3.664
10333WAT     H142052   0.329   6.574   3.730
10333WAT     H242053   0.436   6.611   3.654
10333WAT    EPW42054   0.380   6.560   3.673
10334WAT      O42055   1.219   5.670   3.879
10334WAT     H142056   1.243   5.745   3.841
10334WAT     H242057   1.139   5.687   3.910
10334WAT    EPW42058   1.211   5.683   3.878
10335WAT      O42059   1.536   6.540   2.951
10335WAT     H142060   1.481   6.601   2.978
10335WAT     H242061   1.601   6.544   3.008
10335WAT    EPW42062   1.538   6.549   2.963
10336WAT      O42063   1.163   6.057   3.153
10336WAT     H142064   1.085   6.050   3.192
10336WAT     H242065   1.216   6.085   3.216
10336WAT    EPW42066   1.159   6.060   3.168
10337WAT      O42067   1.751   6.281   3.861
10337WAT     H142068   1.834   6.253   3.861
10337WAT     H242069   1.716   6.239   3.930
10337WAT    EPW42070   1.758   6.270   3.871
10338WAT      O42071   0.516   5.410   3.502
10338WAT     H142072   0.524   5.463   3.434
10338WAT     H242073   0.594   5.370   3.507
10338WAT    EPW42074   0.529   5.412   3.493
10339WAT      O42075   0.368   5.200   3.398
10339WAT     H142076   0.359   5.225   3.315
10339WAT     H242077   0.408   5.268   3.436
10339WAT    EPW42078   0.372   5.214   3.392
10340WAT      O42079   1.842   5.488   2.379
10340WAT     H142080   1.859   5.481   2.294
10340WAT     H242081   1.916   5.459   2.417
10340WAT    EPW42082   1.856   5.483   2.372
10341WAT      O42083   0.597   4.865   3.632
10341WAT     H142084   0.652   4.798   3.625
10341WAT     H242085   0.577   4.884   3.550
10341WAT    EPW42086   0.602   4.858   3.619
10342WAT      O42087   1.244   6.187   2.533
10342WAT     H142088   1.223   6.268   2.507
10342WAT     H242089   1.171   6.142   2.519
10342WAT    EPW42090   1.230   6.193   2.527
10343WAT      O42091   1.751   5.527   3.351
10343WAT     H142092   1.746   5.440   3.358
10343WAT     H242093   1.729   5.556   3.430
10343WAT    EPW42094   1.747   5.518   3.364
10344WAT      O42095   0.242   5.756   3.358
10344WAT     H142096   0.298   5.763   3.292
10344WAT     H242097   0.164   5.768   3.320
10344WAT    EPW42098   0.239   5.759   3.343
10345WAT      O42099   0.417   5.318   2.003
10345WAT     H142100   0.330   5.322   2.012
10345WAT     H242101   0.430   5.244   1.959
10345WAT    EPW42102   0.406   5.308   1.998
10346WAT      O42103   1.290   4.948   3.708
10346WAT     H142104   1.316   5.015   3.758
10346WAT     H242105   1.210   4.931   3.738
10346WAT    EPW42106   1.282   4.956   3.720
10347WAT      O42107   1.268   5.027   2.788
10347WAT     H142108   1.189   5.066   2.790
10347WAT     H242109   1.260   4.967   2.726
10347WAT    EPW42110   1.255   5.024   2.779
10348WAT      O42111   0.741   6.210   2.188
10348WAT     H142112   0.771   6.214   2.269
10348WAT     H242113   0.660   6.177   2.197
10348WAT    EPW42114   0.733   6.205   2.201
10349WAT      O42115   1.593   5.107   3.055
10349WAT     H142116   1.672   5.073   3.071
10349WAT     H242117   1.603   5.192   3.072
10349WAT    EPW42118   1.606   5.115   3.060
10350WAT      O42119   0.756   5.681   3.463
10350WAT     H142120   0.717   5.754   3.492
10350WAT     H242121   0.696   5.645   3.411
10350WAT    EPW42122   0.741   5.686   3.460
10351WAT      O42123   1.666   5.535   2.840
10351WAT     H142124   1.726   5.597   2.856
10351WAT     H242125   1.607   5.576   2.792
10351WAT    EPW42126   1.666   5.550   2.836
10352WAT      O42127   1.680   6.364   2.587
10352WAT     H142128   1.665   6.287   2.624
10352WAT     H242129   1.717   6.344   2.510
10352WAT    EPW42130   1.684   6.350   2.581
10353WAT      O42131   0.494   6.090   2.228
10353WAT     H142132   0.472   6.082   2.312
10353WAT     H242133   0.508   6.008   2.202
10353WAT    EPW42134   0.493   6.077   2.236
10354WAT      O42135   0.811   5.973   2.051
10354WAT     H142136   0.737   5.932   2.071
10354WAT     H242137   0.805   6.049   2.094
10354WAT    EPW42138   0.799   5.978   2.061
10355WAT      O42139   0.752   4.992   3.267
10355WAT     H142140   0.674   4.972   3.300
10355WAT     H242141   0.807   4.947   3.316
10355WAT    EPW42142   0.748   4.983   3.279
10356WAT      O42143   1.898   4.853   3.326
10356WAT     H142144   1.899   4.891   3.405
10356WAT     H242145   1.976   4.815   3.321
10356WAT    EPW42146   1.909   4.853   3.337
10357WAT      O42147   1.120   5.007   3.115
10357WAT     H142148   1.062   4.947   3.092
10357WAT     H242149   1.197   4.967   3.101
10357WAT    EPW42150   1.123   4.992   3.110
10358WAT      O42151   1.427   6.148   3.246
10358WAT     H142152   1.455   6.217   3.291
10358WAT     H242153   1.419   6.179   3.165
10358WAT    EPW42154   1.430   6.163   3.240
10359WAT      O42155   1.400   6.543   3.703
10359WAT     H142156   1.328   6.506   3.670
10359WAT     H242157   1.376   6.625   3.717
10359WAT    EPW42158   1.386   6.549   3.700
10360WAT      O42159   0.871   5.503   3.652
10360WAT     H142160   0.841   5.431   3.612
10360WAT     H242161   0.839   5.568   3.604
10360WAT    EPW42162   0.862   5.502   3.639
10361WAT      O42163   0.997   4.854   2.140
10361WAT     H142164   1.009   4.861   2.054
10361WAT     H242165   0.910   4.853   2.149
10361WAT    EPW42166   0.986   4.855   2.129
10362WAT      O42167   1.847   6.009   3.205
10362WAT     H142168   1.830   5.925   3.186
10362WAT     H242169   1.795   6.053   3.151
10362WAT    EPW42170   1.837   6.003   3.194
10363WAT      O42171   0.804   6.484   3.641
10363WAT     H142172   0.785   6.485   3.726
10363WAT     H242173   0.857   6.415   3.632
10363WAT    EPW42174   0.809   6.474   3.653
10364WAT      O42175   1.750   6.309   3.134
10364WAT     H142176   1.822   6.305   3.085
10364WAT     H242177   1.695   6.253   3.094
10364WAT    EPW42178   1.753   6.300   3.121
10365WAT      O42179   0.502   4.959   3.393
10365WAT     H142180   0.444   4.897   3.373
10365WAT     H242181   0.456   5.033   3.390
10365WAT    EPW42182   0.487   4.961   3.390
10366WAT      O42183   1.378   4.922   3.026
10366WAT     H142184   1.440   4.979   3.048
10366WAT     H242185   1.347   4.953   2.950
10366WAT    EPW42186   1.383   4.935   3.018
10367WAT      O42187   0.530   6.329   3.751
10367WAT     H142188   0.592   6.365   3.800
10367WAT     H242189   0.484   6.398   3.722
10367WAT    EPW42190   0.532   6.345   3.754
10368WAT      O42191   1.336   5.429   2.780
10368WAT     H142192   1.389   5.361   2.793
10368WAT     H242193   1.302   5.443   2.859
10368WAT    EPW42194   1.339   5.421   2.794
10369WAT      O42195   0.358   5.227   2.711
10369WAT     H142196   0.315   5.204   2.783
10369WAT     H242197   0.429   5.175   2.712
10369WAT    EPW42198   0.362   5.216   2.722
10370WAT      O42199   0.377   6.167   3.475
10370WAT     H142200   0.339   6.217   3.536
10370WAT     H242201   0.462   6.176   3.490
10370WAT    EPW42202   0.384   6.176   3.486
10371WAT      O42203   1.510   5.597   2.403
10371WAT     H142204   1.530   5.515   2.423
10371WAT     H242205   1.435   5.590   2.359
10371WAT    EPW42206   1.502   5.584   2.400
10372WAT      O42207   0.483   6.477   2.314
10372WAT     H142208   0.460   6.433   2.242
10372WAT     H242209   0.568   6.460   2.322
10372WAT    EPW42210   0.492   6.468   2.305
10373WAT      O42211   0.892   5.673   2.342
10373WAT     H142212   0.920   5.700   2.264
10373WAT     H242213   0.965   5.654   2.385
10373WAT    EPW42214   0.907   5.674   2.337
10374WAT      O42215   1.783   6.543   2.042
10374WAT     H142216   1.855   6.533   2.090
10374WAT     H242217   1.769   6.463   2.010
10374WAT    EPW42218   1.792   6.530   2.044
10375WAT      O42219   1.818   5.779   3.726
10375WAT     H142220   1.888   5.742   3.762
10375WAT     H242221   1.851   5.826   3.660
10375WAT    EPW42222   1.833   5.781   3.721
10376WAT      O42223   1.425   6.143   2.317
10376WAT     H142224   1.378   6.138   2.391
10376WAT     H242225   1.387   6.084   2.265
10376WAT    EPW42226   1.412   6.134   2.321
10377WAT      O42227   1.838   5.217   3.839
10377WAT     H142228   1.829   5.299   3.869
10377WAT     H242229   1.764   5.204   3.794
10377WAT    EPW42230   1.826   5.227   3.837
10378WAT      O42231   1.910   5.336   3.132
10378WAT     H142232   1.828   5.358   3.117
10378WAT     H242233   1.907   5.249   3.140
10378WAT    EPW42234   1.898   5.326   3.131
10379WAT      O42235   0.817   5.035   3.643
10379WAT     H142236   0.859   5.002   3.574
10379WAT     H242237   0.743   4.989   3.646
10379WAT    EPW42238   0.812   5.024   3.633
10380WAT      O42239   1.593   5.833   3.955
10380WAT     H142240   1.668   5.861   3.990
10380WAT     H242241   1.600   5.857   3.871
10380WAT    EPW42242   1.605   5.841   3.947
10381WAT      O42243   0.508   6.360   3.023
10381WAT     H142244   0.508   6.280   2.987
10381WAT     H242245   0.461   6.407   2.966
10381WAT    EPW42246   0.501   6.355   3.009
10382WAT      O42247   1.090   6.001   2.219
10382WAT     H142248   1.169   5.972   2.196
10382WAT     H242249   1.079   6.072   2.170
10382WAT    EPW42250   1.100   6.007   2.209
10383WAT      O42251   0.320   6.600   3.390
10383WAT     H142252   0.321   6.574   3.473
10383WAT     H242253   0.352   6.532   3.346
10383WAT    EPW42254   0.325   6.586   3.396
10384WAT      O42255   1.301   4.834   0.682
10384WAT     H142256   1.324   4.864   0.604
10384WAT     H242257   1.375   4.804   0.716
10384WAT    EPW42258   1.315   4.834   0.675
10385WAT      O42259   1.226   5.460   1.145
10385WAT     H142260   1.191   5.536   1.170
10385WAT     H242261   1.285   5.444   1.208
10385WAT    EPW42262   1.230   5.469   1.158
10386WAT      O42263   1.822   6.299   0.457
10386WAT     H142264   1.886   6.243   0.476
10386WAT     H242265   1.775   6.257   0.397
10386WAT    EPW42266   1.825   6.285   0.451
10387WAT      O42267   0.549   5.843   0.226
10387WAT     H142268   0.513   5.821   0.149
10387WAT     H242269   0.530   5.775   0.278
10387WAT    EPW42270   0.541   5.830   0.222
10388WAT      O42271   1.470   5.660   0.801
10388WAT     H142272   1.484   5.646   0.716
10388WAT     H242273   1.418   5.594   0.824
10388WAT    EPW42274   1.464   5.648   0.792
10389WAT      O42275   0.410   6.092   0.596
10389WAT     H142276   0.453   6.034   0.645
10389WAT     H242277   0.326   6.070   0.606
10389WAT    EPW42278   0.404   6.080   0.605
10390WAT      O42279   0.945   4.939   0.605
10390WAT     H142280   0.943   5.020   0.574
10390WAT     H242281   0.989   4.894   0.544
10390WAT    EPW42282   0.952   4.944   0.592
10391WAT      O42283   0.427   6.336   0.205
10391WAT     H142284   0.452   6.325   0.123
10391WAT     H242285   0.445   6.259   0.243
10391WAT    EPW42286   0.433   6.323   0.199
10392WAT      O42287   0.883   5.987   1.783
10392WAT     H142288   0.867   5.977   1.868
10392WAT     H242289   0.810   5.957   1.745
10392WAT    EPW42290   0.870   5.981   1.790
10393WAT      O42291   0.423   5.629   0.651
10393WAT     H142292   0.347   5.586   0.649
10393WAT     H242293   0.475   5.576   0.697
10393WAT    EPW42294   0.419   5.615   0.658
10394WAT      O42295   0.835   5.254   1.353
10394WAT     H142296   0.904   5.260   1.299
10394WAT     H242297   0.813   5.169   1.349
10394WAT    EPW42298   0.842   5.242   1.345
10395WAT      O42299   0.887   6.293   1.521
10395WAT     H142300   0.903   6.348   1.456
10395WAT     H242301   0.967   6.269   1.549
10395WAT    EPW42302   0.901   6.297   1.516
10396WAT      O42303   0.548   5.442   0.816
10396WAT     H142304   0.621   5.397   0.833
10396WAT     H242305   0.485   5.381   0.822
10396WAT    EPW42306   0.549   5.426   0.819
10397WAT      O42307   0.984   6.095   0.944
10397WAT     H142308   1.006   6.013   0.966
10397WAT     H242309   1.061   6.136   0.938
10397WAT    EPW42310   0.999   6.089   0.947
10398WAT      O42311   1.008   6.045   0.593
10398WAT     H142312   1.044   5.984   0.643
10398WAT     H242313   1.047   6.033   0.515
10398WAT    EPW42314   1.019   6.034   0.589
10399WAT      O42315   1.152   5.507   1.746
10399WAT     H142316   1.065   5.504   1.740
10399WAT     H242317   1.167   5.557   1.815
10399WAT    EPW42318   1.142   5.514   1.755
10400WAT      O42319   0.664   4.945   0.638
10400WAT     H142320   0.628   4.994   0.575
10400WAT     H242321   0.748   4.940   0.615
10400WAT    EPW42322   0.671   4.952   0.625
10401WAT      O42323   1.631   4.749   1.644
10401WAT     H142324   1.607   4.817   1.594
10401WAT     H242325   1.557   4.726   1.684
10401WAT    EPW42326   1.616   4.756   1.642
10402WAT      O42327   0.971   4.904   0.878
10402WAT     H142328   0.981   4.988   0.901
10402WAT     H242329   0.957   4.908   0.792
10402WAT    EPW42330   0.970   4.917   0.869
10403WAT      O42331   0.817   6.252   0.598
10403WAT     H142332   0.769   6.226   0.665
10403WAT     H242333   0.885   6.197   0.599
10403WAT    EPW42334   0.820   6.240   0.608
10404WAT      O42335   1.389   6.387   0.388
10404WAT     H142336   1.454   6.444   0.374
10404WAT     H242337   1.431   6.315   0.414
10404WAT    EPW42338   1.405   6.385   0.390
10405WAT      O42339   1.190   6.455   0.567
10405WAT     H142340   1.221   6.527   0.605
10405WAT     H242341   1.250   6.437   0.506
10405WAT    EPW42342   1.204   6.463   0.563
10406WAT      O42343   0.455   4.899   1.050
10406WAT     H142344   0.419   4.830   1.011
10406WAT     H242345   0.513   4.864   1.105
10406WAT    EPW42346   0.458   4.884   1.052
10407WAT      O42347   0.829   5.146   2.008
10407WAT     H142348   0.842   5.113   1.928
10407WAT     H242349   0.866   5.225   2.003
10407WAT    EPW42350   0.836   5.153   1.996
10408WAT      O42351   0.406   6.372   0.653
10408WAT     H142352   0.414   6.287   0.637
10408WAT     H242353   0.414   6.408   0.574
10408WAT    EPW42354   0.408   6.365   0.639
10409WAT      O42355   1.941   5.115   0.799
10409WAT     H142356   1.891   5.187   0.807
10409WAT     H242357   1.883   5.051   0.786
10409WAT    EPW42358   1.925   5.117   0.798
10410WAT      O42359   1.456   6.432   1.361
10410WAT     H142360   1.526   6.483   1.351
10410WAT     H242361   1.442   6.399   1.282
10410WAT    EPW42362   1.464   6.435   1.348
10411WAT      O42363   0.440   5.070   1.858
10411WAT     H142364   0.385   5.090   1.793
10411WAT     H242365   0.494   5.012   1.822
10411WAT    EPW42366   0.440   5.064   1.843
10412WAT      O42367   0.507   6.124   1.026
10412WAT     H142368   0.566   6.123   0.961
10412WAT     H242369   0.549   6.083   1.092
10412WAT    EPW42370   0.522   6.118   1.026
10413WAT      O42371   0.793   6.413   0.932
10413WAT     H142372   0.870   6.430   0.895
10413WAT     H242373   0.737   6.458   0.883
10413WAT    EPW42374   0.796   6.422   0.919
10414WAT      O42375   1.030   4.872   1.869
10414WAT     H142376   1.044   4.798   1.824
10414WAT     H242377   0.965   4.910   1.825
10414WAT    EPW42378   1.023   4.867   1.856
10415WAT      O42379   1.118   5.391   0.724
10415WAT     H142380   1.147   5.349   0.654
10415WAT     H242381   1.191   5.405   0.771
10415WAT    EPW42382   1.133   5.387   0.721
10416WAT      O42383   1.143   5.417   0.269
10416WAT     H142384   1.180   5.494   0.287
10416WAT     H242385   1.058   5.432   0.277
10416WAT    EPW42386   1.136   5.430   0.273
10417WAT      O42387   1.588   6.580   0.336
10417WAT     H142388   1.632   6.541   0.271
10417WAT     H242389   1.646   6.636   0.369
10417WAT    EPW42390   1.603   6.583   0.331
10418WAT      O42391   0.666   6.531   1.492
10418WAT     H142392   0.705   6.492   1.559
10418WAT     H242393   0.600   6.476   1.472
10418WAT    EPW42394   0.662   6.517   1.499
10419WAT      O42395   1.859   5.051   1.231
10419WAT     H142396   1.922   5.040   1.171
10419WAT     H242397   1.879   4.991   1.292
10419WAT    EPW42398   1.871   5.040   1.231
10420WAT      O42399   1.346   6.222   1.747
10420WAT     H142400   1.338   6.243   1.831
10420WAT     H242401   1.432   6.218   1.734
10420WAT    EPW42402   1.357   6.225   1.758
10421WAT      O42403   1.184   6.278   0.224
10421WAT     H142404   1.119   6.334   0.242
10421WAT     H242405   1.254   6.319   0.255
10421WAT    EPW42406   1.184   6.292   0.231
10422WAT      O42407   1.372   4.902   0.422
10422WAT     H142408   1.438   4.856   0.388
10422WAT     H242409   1.408   4.981   0.438
10422WAT    EPW42410   1.387   4.907   0.419
10423WAT      O42411   0.259   5.139   0.575
10423WAT     H142412   0.190   5.087   0.586
10423WAT     H242413   0.282   5.159   0.656
10423WAT    EPW42414   0.252   5.135   0.588
10424WAT      O42415   0.450   6.376   1.401
10424WAT     H142416   0.418   6.300   1.427
10424WAT     H242417   0.459   6.367   1.315
10424WAT    EPW42418   0.446   6.364   1.392
10425WAT      O42419   1.188   5.259   0.490
10425WAT     H142420   1.117   5.210   0.480
10425WAT     H242421   1.187   5.311   0.419
10425WAT    EPW42422   1.178   5.260   0.478
10426WAT      O42423   1.210   6.486   1.468
10426WAT     H142424   1.288   6.475   1.430
10426WAT     H242425   1.154   6.481   1.402
10426WAT    EPW42426   1.214   6.483   1.453
10427WAT      O42427   1.101   4.899   0.365
10427WAT     H142428   1.077   4.978   0.337
10427WAT     H242429   1.187   4.905   0.374
10427WAT    EPW42430   1.110   4.911   0.362
10428WAT      O42431   1.891   6.536   0.723
10428WAT     H142432   1.849   6.612   0.736
10428WAT     H242433   1.826   6.478   0.713
10428WAT    EPW42434   1.875   6.539   0.723
10429WAT      O42435   1.019   5.187   0.893
10429WAT     H142436   1.044   5.254   0.843
10429WAT     H242437   1.028   5.218   0.974
10429WAT    EPW42438   1.024   5.201   0.898
10430WAT      O42439   1.573   6.098   0.708
10430WAT     H142440   1.640   6.049   0.734
10430WAT     H242441   1.504   6.060   0.745
10430WAT    EPW42442   1.573   6.085   0.717
10431WAT      O42443   0.644   6.197   1.633
10431WAT     H142444   0.717   6.235   1.604
10431WAT     H242445   0.627   6.239   1.707
10431WAT    EPW42446   0.652   6.209   1.640
10432WAT      O42447   0.610   4.692   0.733
10432WAT     H142448   0.628   4.771   0.702
10432WAT     H242449   0.568   4.653   0.667
10432WAT    EPW42450   0.606   4.698   0.719
10433WAT      O42451   0.774   5.800   1.093
10433WAT     H142452   0.801   5.775   1.172
10433WAT     H242453   0.717   5.738   1.071
10433WAT    EPW42454   0.770   5.787   1.101
10434WAT      O42455   1.362   5.159   1.475
10434WAT     H142456   1.358   5.200   1.552
10434WAT     H242457   1.298   5.099   1.481
10434WAT    EPW42458   1.352   5.156   1.487
10435WAT      O42459   0.882   5.783   1.347
10435WAT     H142460   0.885   5.869   1.363
10435WAT     H242461   0.851   5.749   1.421
10435WAT    EPW42462   0.878   5.791   1.360
10436WAT      O42463   1.500   5.872   1.345
10436WAT     H142464   1.425   5.841   1.380
10436WAT     H242465   1.492   5.958   1.355
10436WAT    EPW42466   1.488   5.880   1.352
10437WAT      O42467   1.541   4.744   0.784
10437WAT     H142468   1.544   4.727   0.870
10437WAT     H242469   1.572   4.671   0.748
10437WAT    EPW42470   1.546   4.730   0.792
10438WAT      O42471   1.740   5.211   1.568
10438WAT     H142472   1.823   5.194   1.586
10438WAT     H242473   1.700   5.205   1.645
10438WAT    EPW42474   1.746   5.207   1.582
10439WAT      O42475   0.574   5.070   0.866
10439WAT     H142476   0.603   5.022   0.799
10439WAT     H242477   0.544   5.011   0.922
10439WAT    EPW42478   0.574   5.054   0.864
10440WAT      O42479   1.792   5.928   0.330
10440WAT     H142480   1.786   5.882   0.403
10440WAT     H242481   1.878   5.926   0.311
10440WAT    EPW42482   1.804   5.921   0.338
10441WAT      O42483   0.514   5.877   0.739
10441WAT     H142484   0.599   5.876   0.720
10441WAT     H242485   0.484   5.802   0.706
10441WAT    EPW42486   0.522   5.865   0.732
10442WAT      O42487   0.385   6.529   0.928
10442WAT     H142488   0.328   6.489   0.877
10442WAT     H242489   0.457   6.533   0.878
10442WAT    EPW42490   0.388   6.524   0.913
10443WAT      O42491   0.384   5.306   1.235
10443WAT     H142492   0.469   5.313   1.215
10443WAT     H242493   0.354   5.387   1.223
10443WAT    EPW42494   0.392   5.319   1.230
10444WAT      O42495   2.035   6.334   1.701
10444WAT     H142496   1.960   6.337   1.656
10444WAT     H242497   2.015   6.289   1.773
10444WAT    EPW42498   2.021   6.328   1.705
10445WAT      O42499   1.626   5.539   0.264
10445WAT     H142500   1.548   5.518   0.231
10445WAT     H242501   1.607   5.579   0.339
10445WAT    EPW42502   1.612   5.542   0.270
10446WAT      O42503   0.776   5.869   0.643
10446WAT     H142504   0.833   5.929   0.617
10446WAT     H242505   0.793   5.800   0.592
10446WAT    EPW42506   0.787   5.867   0.632
10447WAT      O42507   1.920   5.084   0.234
10447WAT     H142508   1.942   5.006   0.202
10447WAT     H242509   1.882   5.124   0.166
10447WAT    EPW42510   1.917   5.078   0.219
10448WAT      O42511   0.952   5.395   2.007
10448WAT     H142512   0.904   5.425   2.075
10448WAT     H242513   0.922   5.441   1.939
10448WAT    EPW42514   0.940   5.406   2.007
10449WAT      O42515   2.040   5.471   1.469
10449WAT     H142516   2.083   5.398   1.448
10449WAT     H242517   1.964   5.462   1.427
10449WAT    EPW42518   2.035   5.459   1.459
10450WAT      O42519   1.776   4.931   0.442
10450WAT     H142520   1.853   4.894   0.461
10450WAT     H242521   1.798   4.998   0.391
10450WAT    EPW42522   1.791   4.935   0.437
10451WAT      O42523   1.211   6.256   0.924
10451WAT     H142524   1.164   6.327   0.907
10451WAT     H242525   1.236   6.229   0.845
10451WAT    EPW42526   1.208   6.262   0.910
10452WAT      O42527   0.628   5.985   1.233
10452WAT     H142528   0.690   6.016   1.285
10452WAT     H242529   0.671   5.930   1.180
10452WAT    EPW42530   0.643   5.981   1.233
10453WAT      O42531   1.491   5.202   0.912
10453WAT     H142532   1.523   5.167   0.985
10453WAT     H242533   1.429   5.146   0.888
10453WAT    EPW42534   1.487   5.189   0.919
10454WAT      O42535   0.384   5.872   0.994
10454WAT     H142536   0.423   5.855   0.918
10454WAT     H242537   0.400   5.957   1.006
10454WAT    EPW42538   0.392   5.882   0.984
10455WAT      O42539   0.935   5.150   0.422
10455WAT     H142540   0.876   5.096   0.388
10455WAT     H242541   0.907   5.229   0.400
10455WAT    EPW42542   0.922   5.154   0.414
10456WAT      O42543   1.785   6.355   1.549
10456WAT     H142544   1.742   6.429   1.563
10456WAT     H242545   1.780   6.343   1.463
10456WAT    EPW42546   1.778   6.364   1.538
10457WAT      O42547   0.720   6.162   0.845
10457WAT     H142548   0.738   6.242   0.875
10457WAT     H242549   0.792   6.117   0.864
10457WAT    EPW42550   0.733   6.167   0.852
10458WAT      O42551   0.520   5.532   1.852
10458WAT     H142552   0.490   5.466   1.901
10458WAT     H242553   0.519   5.499   1.771
10458WAT    EPW42554   0.515   5.517   1.848
10459WAT      O42555   0.579   5.358   0.338
10459WAT     H142556   0.564   5.289   0.390
10459WAT     H242557   0.513   5.357   0.281
10459WAT    EPW42558   0.567   5.348   0.337
10460WAT      O42559   0.597   5.595   1.046
10460WAT     H142560   0.572   5.569   0.966
10460WAT     H242561   0.623   5.521   1.085
10460WAT    EPW42562   0.597   5.580   1.040
10461WAT      O42563   0.575   5.569   1.378
10461WAT     H142564   0.607   5.520   1.313
10461WAT     H242565   0.530   5.632   1.337
10461WAT    EPW42566   0.573   5.571   1.362
10462WAT      O42567   1.636   5.374   1.177
10462WAT     H142568   1.569   5.398   1.228
10462WAT     H242569   1.633   5.431   1.111
10462WAT    EPW42570   1.625   5.386   1.175
10463WAT      O42571   0.992   6.444   1.303
10463WAT     H142572   0.969   6.381   1.247
10463WAT     H242573   0.971   6.517   1.259
10463WAT    EPW42574   0.985   6.445   1.288
10464WAT      O42575   1.210   4.928   1.544
10464WAT     H142576   1.233   4.848   1.519
10464WAT     H242577   1.242   4.935   1.625
10464WAT    EPW42578   1.218   4.917   1.552
10465WAT      O42579   1.449   5.153   0.499
10465WAT     H142580   1.506   5.217   0.517
10465WAT     H242581   1.372   5.194   0.501
10465WAT    EPW42582   1.446   5.169   0.502
10466WAT      O42583   0.396   5.775   1.915
10466WAT     H142584   0.379   5.816   1.840
10466WAT     H242585   0.428   5.698   1.889
10466WAT    EPW42586   0.398   5.769   1.900
10467WAT      O42587   1.547   5.940   1.794
10467WAT     H142588   1.576   6.019   1.770
10467WAT     H242589   1.576   5.887   1.731
10467WAT    EPW42590   1.556   5.944   1.781
10468WAT      O42591   0.969   6.254   1.815
10468WAT     H142592   0.995   6.250   1.898
10468WAT     H242593   0.940   6.173   1.798
10468WAT    EPW42594   0.968   6.241   1.825
10469WAT      O42595   1.034   5.261   1.158
10469WAT     H142596   1.098   5.321   1.163
10469WAT     H242597   1.074   5.188   1.185
10469WAT    EPW42598   1.050   5.259   1.163
10470WAT      O42599   1.297   5.633   0.371
10470WAT     H142600   1.317   5.714   0.345
10470WAT     H242601   1.239   5.645   0.435
10470WAT    EPW42602   1.292   5.647   0.377
10471WAT      O42603   1.762   5.917   0.807
10471WAT     H142604   1.789   5.863   0.871
10471WAT     H242605   1.772   5.869   0.735
10471WAT    EPW42606   1.768   5.902   0.806
10472WAT      O42607   1.411   6.297   1.118
10472WAT     H142608   1.347   6.279   1.062
10472WAT     H242609   1.455   6.362   1.079
10472WAT    EPW42610   1.408   6.304   1.104
10473WAT      O42611   1.381   5.962   1.103
10473WAT     H142612   1.307   5.992   1.138
10473WAT     H242613   1.415   5.913   1.167
10473WAT    EPW42614   1.375   5.959   1.118
10474WAT      O42615   0.763   6.496   0.448
10474WAT     H142616   0.768   6.433   0.509
10474WAT     H242617   0.834   6.483   0.399
10474WAT    EPW42618   0.774   6.485   0.450
10475WAT      O42619   0.767   4.935   0.345
10475WAT     H142620   0.766   4.855   0.379
10475WAT     H242621   0.692   4.940   0.301
10475WAT    EPW42622   0.755   4.924   0.343
10476WAT      O42623   1.017   6.470   0.343
10476WAT     H142624   1.057   6.455   0.419
10476WAT     H242625   1.040   6.552   0.324
10476WAT    EPW42626   1.026   6.480   0.351
10477WAT      O42627   1.626   5.785   1.578
10477WAT     H142628   1.592   5.818   1.505
10477WAT     H242629   1.711   5.805   1.572
10477WAT    EPW42630   1.634   5.793   1.566
10478WAT      O42631   1.327   6.354   2.000
10478WAT     H142632   1.351   6.376   2.081
10478WAT     H242633   1.358   6.420   1.952
10478WAT    EPW42634   1.335   6.367   2.005
10479WAT      O42635   1.765   4.886   1.845
10479WAT     H142636   1.726   4.839   1.782
10479WAT     H242637   1.765   4.831   1.913
10479WAT    EPW42638   1.759   4.871   1.846
10480WAT      O42639   0.494   5.625   0.384
10480WAT     H142640   0.535   5.548   0.381
10480WAT     H242641   0.471   5.633   0.467
10480WAT    EPW42642   0.497   5.615   0.396
10481WAT      O42643   1.270   5.777   1.461
10481WAT     H142644   1.220   5.818   1.520
10481WAT     H242645   1.301   5.708   1.505
10481WAT    EPW42646   1.267   5.773   1.476
10482WAT      O42647   1.115   5.636   0.578
10482WAT     H142648   1.123   5.701   0.636
10482WAT     H242649   1.106   5.565   0.629
10482WAT    EPW42650   1.115   5.635   0.594
10483WAT      O42651   1.656   6.066   1.104
10483WAT     H142652   1.691   6.051   1.025
10483WAT     H242653   1.571   6.051   1.091
10483WAT    EPW42654   1.648   6.061   1.090
10484WAT      O42655   0.524   4.988   0.208
10484WAT     H142656   0.471   4.922   0.183
10484WAT     H242657   0.544   5.027   0.133
10484WAT    EPW42658   0.519   4.984   0.193
10485WAT      O42659   1.033   5.827   0.999
10485WAT     H142660   0.949   5.811   1.016
10485WAT     H242661   1.075   5.795   1.068
10485WAT    EPW42662   1.027   5.820   1.012
10486WAT      O42663   0.434   5.783   1.259
10486WAT     H142664   0.487   5.851   1.269
10486WAT     H242665   0.413   5.785   1.174
10486WAT    EPW42666   0.439   5.793   1.248
10487WAT      O42667   0.746   5.273   0.928
10487WAT     H142668   0.828   5.249   0.912
10487WAT     H242669   0.700   5.201   0.910
10487WAT    EPW42670   0.751   5.259   0.923
10488WAT      O42671   1.984   6.467   0.311
10488WAT     H142672   2.060   6.425   0.299
10488WAT     H242673   1.939   6.413   0.362
10488WAT    EPW42674   1.989   6.453   0.317
10489WAT      O42675   0.224   5.431   0.658
10489WAT     H142676   0.252   5.381   0.723
10489WAT     H242677   0.204   5.375   0.594
10489WAT    EPW42678   0.225   5.416   0.658
10490WAT      O42679   1.747   5.734   1.279
10490WAT     H142680   1.748   5.662   1.329
10490WAT     H242681   1.666   5.764   1.289
10490WAT    EPW42682   1.735   5.728   1.288
10491WAT      O42683   0.366   5.896   1.662
10491WAT     H142684   0.324   5.846   1.604
10491WAT     H242685   0.354   5.977   1.633
10491WAT    EPW42686   0.358   5.900   1.649
10492WAT      O42687   1.848   5.743   1.016
10492WAT     H142688   1.821   5.745   1.099
10492WAT     H242689   1.934   5.734   1.022
10492WAT    EPW42690   1.856   5.742   1.029
10493WAT      O42691   0.856   5.413   0.351
10493WAT     H142692   0.855   5.489   0.393
10493WAT     H242693   0.772   5.397   0.335
10493WAT    EPW42694   0.843   5.422   0.355
10494WAT      O42695   1.640   5.142   1.826
10494WAT     H142696   1.566   5.147   1.872
10494WAT     H242697   1.665   5.059   1.836
10494WAT    EPW42698   1.633   5.131   1.834
10495WAT      O42699   0.270   5.119   1.059
10495WAT     H142700   0.317   5.046   1.068
10495WAT     H242701   0.301   5.171   1.123
10495WAT    EPW42702   0.282   5.116   1.070
10496WAT      O42703   1.986   6.226   1.076
10496WAT     H142704   2.018   6.284   1.019
10496WAT     H242705   2.045   6.226   1.140
10496WAT    EPW42706   1.999   6.235   1.077
10497WAT      O42707   1.469   5.498   1.908
10497WAT     H142708   1.510   5.504   1.985
10497WAT     H242709   1.395   5.543   1.920
10497WAT    EPW42710   1.464   5.505   1.921
10498WAT      O42711   1.703   5.533   1.746
10498WAT     H142712   1.725   5.614   1.770
10498WAT     H242713   1.631   5.517   1.794
10498WAT    EPW42714   1.695   5.543   1.757
10499WAT      O42715   1.671   6.170   0.269
10499WAT     H142716   1.712   6.093   0.274
10499WAT     H242717   1.596   6.156   0.312
10499WAT    EPW42718   1.666   6.157   0.276
10500WAT      O42719   1.730   5.306   0.817
10500WAT     H142720   1.661   5.261   0.846
10500WAT     H242721   1.726   5.381   0.860
10500WAT    EPW42722   1.720   5.310   0.828
10501WAT      O42723   2.022   5.621   1.938
10501WAT     H142724   2.026   5.564   1.872
10501WAT     H242725   2.102   5.657   1.938
10501WAT    EPW42726   2.035   5.618   1.929
10502WAT      O42727   1.891   5.877   1.573
10502WAT     H142728   1.960   5.831   1.547
10502WAT     H242729   1.881   5.936   1.510
10502WAT    EPW42730   1.900   5.879   1.560
10503WAT      O42731   1.397   5.884   0.291
10503WAT     H142732   1.431   5.944   0.345
10503WAT     H242733   1.452   5.884   0.223
10503WAT    EPW42734   1.410   5.893   0.289
10504WAT      O42735   0.876   6.069   1.351
10504WAT     H142736   0.872   6.126   1.417
10504WAT     H242737   0.874   6.120   1.280
10504WAT    EPW42738   0.875   6.085   1.350
10505WAT      O42739   0.643   5.920   1.648
10505WAT     H142740   0.559   5.902   1.661
10505WAT     H242741   0.644   6.007   1.636
10505WAT    EPW42742   0.631   5.930   1.648
10506WAT      O42743   1.585   4.988   1.490
10506WAT     H142744   1.643   5.051   1.503
10506WAT     H242745   1.510   5.032   1.479
10506WAT    EPW42746   1.582   5.004   1.490
10507WAT      O42747   1.123   5.703   1.237
10507WAT     H142748   1.177   5.729   1.300
10507WAT     H242749   1.044   5.715   1.272
10507WAT    EPW42750   1.119   5.708   1.252
10508WAT      O42751   0.764   5.280   1.620
10508WAT     H142752   0.784   5.203   1.656
10508WAT     H242753   0.795   5.273   1.539
10508WAT    EPW42754   0.772   5.268   1.613
10509WAT      O42755   1.049   6.467   0.831
10509WAT     H142756   1.045   6.552   0.849
10509WAT     H242757   1.067   6.465   0.745
10509WAT    EPW42758   1.051   6.479   0.821
10510WAT      O42759   1.656   4.782   1.311
10510WAT     H142760   1.628   4.854   1.351
10510WAT     H242761   1.741   4.779   1.331
10510WAT    EPW42762   1.664   4.792   1.320
10511WAT      O42763   0.938   4.880   1.545
10511WAT     H142764   1.022   4.901   1.534
10511WAT     H242765   0.940   4.793   1.556
10511WAT    EPW42766   0.951   4.870   1.545
10512WAT      O42767   0.876   6.249   1.143
10512WAT     H142768   0.831   6.306   1.094
10512WAT     H242769   0.916   6.199   1.083
10512WAT    EPW42770   0.875   6.250   1.127
10513WAT      O42771   1.282   5.909   1.859
10513WAT     H142772   1.363   5.923   1.830
10513WAT     H242773   1.232   5.926   1.789
10513WAT    EPW42774   1.286   5.913   1.844
10514WAT      O42775   1.625   6.202   1.725
10514WAT     H142776   1.661   6.231   1.799
10514WAT     H242777   1.672   6.240   1.662
10514WAT    EPW42778   1.637   6.212   1.726
10515WAT      O42779   1.899   5.493   0.223
10515WAT     H142780   1.924   5.558   0.171
10515WAT     H242781   1.812   5.498   0.222
10515WAT    EPW42782   1.890   5.503   0.215
10516WAT      O42783   0.655   5.358   1.177
10516WAT     H142784   0.685   5.326   1.102
10516WAT     H242785   0.711   5.326   1.236
10516WAT    EPW42786   0.668   5.349   1.175
10517WAT      O42787   1.359   5.332   1.697
10517WAT     H142788   1.284   5.375   1.709
10517WAT     H242789   1.402   5.343   1.772
10517WAT    EPW42790   1.354   5.340   1.710
10518WAT      O42791   1.412   5.400   1.338
10518WAT     H142792   1.421   5.454   1.406
10518WAT     H242793   1.397   5.323   1.376
10518WAT    EPW42794   1.411   5.396   1.354
10519WAT      O42795   1.133   6.470   1.735
10519WAT     H142796   1.151   6.463   1.650
10519WAT     H242797   1.097   6.393   1.756
10519WAT    EPW42798   1.130   6.458   1.726
10520WAT      O42799   1.627   5.362   0.567
10520WAT     H142800   1.653   5.339   0.647
10520WAT     H242801   1.699   5.395   0.531
10520WAT    EPW42802   1.642   5.363   0.574
10521WAT      O42803   0.923   4.823   1.148
10521WAT     H142804   0.837   4.822   1.163
10521WAT     H242805   0.928   4.835   1.061
10521WAT    EPW42806   0.911   4.825   1.137
10522WAT      O42807   1.747   4.925   0.724
10522WAT     H142808   1.673   4.885   0.746
10522WAT     H242809   1.738   4.940   0.639
10522WAT    EPW42810   1.735   4.922   0.715
10523WAT      O42811   1.760   5.768   0.563
10523WAT     H142812   1.809   5.697   0.551
10523WAT     H242813   1.678   5.738   0.557
10523WAT    EPW42814   1.755   5.753   0.560
10524WAT      O42815   1.118   5.944   1.634
10524WAT     H142816   1.042   5.947   1.678
10524WAT     H242817   1.126   6.025   1.603
10524WAT    EPW42818   1.108   5.956   1.636
10525WAT      O42819   0.654   6.607   1.209
10525WAT     H142820   0.659   6.597   1.295
10525WAT     H242821   0.624   6.530   1.182
10525WAT    EPW42822   0.650   6.594   1.218
10526WAT      O42823   0.514   5.115   0.461
10526WAT     H142824   0.506   5.071   0.386
10526WAT     H242825   0.432   5.118   0.492
10526WAT    EPW42826   0.501   5.109   0.455
10527WAT      O42827   1.389   5.925   0.830
10527WAT     H142828   1.383   5.938   0.916
10527WAT     H242829   1.423   5.845   0.824
10527WAT    EPW42830   1.393   5.915   0.842
10528WAT      O42831   1.137   5.854   0.744
10528WAT     H142832   1.099   5.839   0.821
10528WAT     H242833   1.217   5.881   0.766
10528WAT    EPW42834   1.143   5.856   0.759
10529WAT      O42835   1.158   6.213   1.548
10529WAT     H142836   1.215   6.212   1.614
10529WAT     H242837   1.185   6.278   1.498
10529WAT    EPW42838   1.170   6.222   1.550
10530WAT      O42839   1.971   5.439   1.734
10530WAT     H142840   1.885   5.453   1.736
10530WAT     H242841   1.992   5.455   1.651
10530WAT    EPW42842   1.961   5.443   1.722
10531WAT      O42843   1.430   5.570   1.558
10531WAT     H142844   1.418   5.506   1.616
10531WAT     H242845   1.503   5.609   1.586
10531WAT    EPW42846   1.439   5.566   1.571
10532WAT      O42847   0.377   6.548   1.772
10532WAT     H142848   0.327   6.575   1.838
10532WAT     H242849   0.436   6.611   1.763
10532WAT    EPW42850   0.378   6.561   1.780
10533WAT      O42851   1.220   5.663   1.969
10533WAT     H142852   1.245   5.738   1.933
10533WAT     H242853   1.141   5.681   2.001
10533WAT    EPW42854   1.212   5.677   1.969
10534WAT      O42855   1.537   6.541   1.058
10534WAT     H142856   1.478   6.603   1.078
10534WAT     H242857   1.599   6.552   1.118
10534WAT    EPW42858   1.537   6.552   1.070
10535WAT      O42859   1.166   6.057   1.263
10535WAT     H142860   1.088   6.050   1.302
10535WAT     H242861   1.219   6.085   1.327
10535WAT    EPW42862   1.162   6.060   1.278
10536WAT      O42863   1.749   6.281   1.960
10536WAT     H142864   1.832   6.254   1.959
10536WAT     H242865   1.715   6.240   2.028
10536WAT    EPW42866   1.756   6.271   1.970
10537WAT      O42867   0.519   5.409   1.603
10537WAT     H142868   0.527   5.462   1.534
10537WAT     H242869   0.596   5.369   1.607
10537WAT    EPW42870   0.532   5.411   1.593
10538WAT      O42871   0.371   5.200   1.497
10538WAT     H142872   0.361   5.226   1.414
10538WAT     H242873   0.410   5.268   1.535
10538WAT    EPW42874   0.375   5.214   1.490
10539WAT      O42875   1.854   5.509   0.499
10539WAT     H142876   1.876   5.508   0.415
10539WAT     H242877   1.922   5.471   0.538
10539WAT    EPW42878   1.867   5.503   0.492
10540WAT      O42879   0.599   4.867   1.732
10540WAT     H142880   0.653   4.799   1.724
10540WAT     H242881   0.578   4.887   1.650
10540WAT    EPW42882   0.604   4.860   1.719
10541WAT      O42883   1.240   6.195   0.654
10541WAT     H142884   1.223   6.276   0.628
10541WAT     H242885   1.167   6.151   0.634
10541WAT    EPW42886   1.227   6.200   0.647
10542WAT      O42887   1.747   5.496   1.465
10542WAT     H142888   1.733   5.410   1.464
10542WAT     H242889   1.728   5.520   1.546
10542WAT    EPW42890   1.742   5.487   1.477
10543WAT      O42891   0.243   5.754   1.458
10543WAT     H142892   0.299   5.762   1.392
10543WAT     H242893   0.165   5.767   1.420
10543WAT    EPW42894   0.239   5.757   1.443
10544WAT      O42895   1.288   4.960   1.810
10544WAT     H142896   1.319   5.027   1.856
10544WAT     H242897   1.208   4.948   1.843
10544WAT    EPW42898   1.280   4.968   1.821
10545WAT      O42899   1.273   5.035   0.875
10545WAT     H142900   1.194   5.071   0.872
10545WAT     H242901   1.270   4.975   0.811
10545WAT    EPW42902   1.261   5.031   0.865
10546WAT      O42903   0.778   6.136   0.344
10546WAT     H142904   0.788   6.179   0.419
10546WAT     H242905   0.691   6.131   0.335
10546WAT    EPW42906   0.766   6.142   0.353
10547WAT      O42907   1.591   5.099   1.151
10547WAT     H142908   1.669   5.065   1.169
10547WAT     H242909   1.599   5.183   1.173
10547WAT    EPW42910   1.603   5.107   1.157
10548WAT      O42911   0.754   5.678   1.568
10548WAT     H142912   0.716   5.751   1.596
10548WAT     H242913   0.694   5.644   1.514
10548WAT    EPW42914   0.739   5.684   1.564
10549WAT      O42915   1.670   5.542   0.954
10549WAT     H142916   1.730   5.602   0.970
10549WAT     H242917   1.609   5.584   0.908
10549WAT    EPW42918   1.670   5.557   0.949
10550WAT      O42919   1.666   6.365   0.673
10550WAT     H142920   1.634   6.287   0.698
10550WAT     H242921   1.709   6.347   0.600
10550WAT    EPW42922   1.667   6.351   0.666
10551WAT      O42923   0.502   6.099   0.330
10551WAT     H142924   0.475   6.090   0.413
10551WAT     H242925   0.508   6.017   0.302
10551WAT    EPW42926   0.499   6.086   0.338
10552WAT      O42927   0.827   5.867   0.279
10552WAT     H142928   0.745   5.855   0.254
10552WAT     H242929   0.831   5.952   0.297
10552WAT    EPW42930   0.816   5.878   0.278
10553WAT      O42931   0.753   4.995   1.368
10553WAT     H142932   0.674   4.974   1.400
10553WAT     H242933   0.807   4.946   1.415
10553WAT    EPW42934   0.749   4.985   1.380
10554WAT      O42935   1.913   4.852   1.424
10554WAT     H142936   1.901   4.880   1.506
10554WAT     H242937   1.995   4.823   1.424
10554WAT    EPW42938   1.923   4.852   1.436
10555WAT      O42939   1.124   5.010   1.223
10555WAT     H142940   1.064   4.949   1.207
10555WAT     H242941   1.199   4.972   1.200
10555WAT    EPW42942   1.126   4.995   1.217
10556WAT      O42943   1.433   6.143   1.357
10556WAT     H142944   1.461   6.212   1.401
10556WAT     H242945   1.428   6.172   1.274
10556WAT    EPW42946   1.437   6.157   1.351
10557WAT      O42947   1.400   6.542   1.801
10557WAT     H142948   1.328   6.505   1.770
10557WAT     H242949   1.376   6.625   1.816
10557WAT    EPW42950   1.386   6.549   1.799
10558WAT      O42951   0.875   5.498   1.750
10558WAT     H142952   0.843   5.427   1.711
10558WAT     H242953   0.841   5.564   1.704
10558WAT    EPW42954   0.865   5.498   1.737
10559WAT      O42955   1.861   5.995   1.317
10559WAT     H142956   1.839   5.912   1.299
10559WAT     H242957   1.807   6.042   1.268
10559WAT    EPW42958   1.850   5.990   1.307
10560WAT      O42959   0.801   6.485   1.743
10560WAT     H142960   0.783   6.484   1.828
10560WAT     H242961   0.853   6.417   1.731
10560WAT    EPW42962   0.806   6.475   1.754
10561WAT      O42963   1.761   6.290   1.247
10561WAT     H142964   1.832   6.288   1.196
10561WAT     H242965   1.705   6.238   1.205
10561WAT    EPW42966   1.764   6.282   1.233
10562WAT      O42967   0.503   4.959   1.492
10562WAT     H142968   0.443   4.898   1.475
10562WAT     H242969   0.458   5.033   1.489
10562WAT    EPW42970   0.487   4.961   1.489
10563WAT      O42971   1.369   4.923   1.114
10563WAT     H142972   1.433   4.978   1.137
10563WAT     H242973   1.341   4.956   1.038
10563WAT    EPW42974   1.374   4.936   1.106
10564WAT      O42975   0.528   6.329   1.851
10564WAT     H142976   0.590   6.365   1.901
10564WAT     H242977   0.481   6.398   1.824
10564WAT    EPW42978   0.530   6.344   1.854
10565WAT      O42979   1.335   5.434   0.890
10565WAT     H142980   1.388   5.366   0.900
10565WAT     H242981   1.302   5.446   0.970
10565WAT    EPW42982   1.338   5.426   0.903
10566WAT      O42983   0.355   5.230   0.822
10566WAT     H142984   0.311   5.206   0.893
10566WAT     H242985   0.426   5.179   0.824
10566WAT    EPW42986   0.359   5.219   0.833
10567WAT      O42987   0.374   6.164   1.576
10567WAT     H142988   0.337   6.214   1.638
10567WAT     H242989   0.460   6.174   1.591
10567WAT    EPW42990   0.381   6.173   1.588
10568WAT      O42991   1.523   5.614   0.530
10568WAT     H142992   1.543   5.530   0.541
10568WAT     H242993   1.448   5.611   0.485
10568WAT    EPW42994   1.515   5.601   0.525
10569WAT      O42995   0.483   6.503   0.420
10569WAT     H142996   0.463   6.457   0.349
10569WAT     H242997   0.570   6.501   0.421
10569WAT    EPW42998   0.493   6.496   0.410
10570WAT      O42999   0.862   5.666   0.466
10570WAT     H143000   0.862   5.727   0.403
10570WAT     H243001   0.944   5.667   0.495
10570WAT    EPW43002   0.874   5.675   0.461
10571WAT      O43003   1.743   6.434   0.157
10571WAT     H143004   1.823   6.444   0.189
10571WAT     H243005   1.726   6.350   0.173
10571WAT    EPW43006   1.752   6.423   0.164
10572WAT      O43007   1.817   5.774   1.831
10572WAT     H143008   1.887   5.739   1.869
10572WAT     H243009   1.850   5.819   1.764
10572WAT    EPW43010   1.832   5.776   1.827
10573WAT      O43011   1.457   6.115   0.453
10573WAT     H143012   1.498   6.108   0.530
10573WAT     H243013   1.372   6.115   0.475
10573WAT    EPW43014   1.450   6.114   0.468
10574WAT      O43015   1.875   5.219   1.950
10574WAT     H143016   1.866   5.300   1.982
10574WAT     H243017   1.798   5.204   1.910
10574WAT    EPW43018   1.862   5.229   1.949
10575WAT      O43019   1.906   5.332   1.233
10575WAT     H143020   1.822   5.354   1.219
10575WAT     H243021   1.903   5.245   1.239
10575WAT    EPW43022   1.893   5.322   1.232
10576WAT      O43023   0.824   5.030   1.743
10576WAT     H143024   0.864   4.996   1.673
10576WAT     H243025   0.749   4.987   1.747
10576WAT    EPW43026   0.819   5.019   1.733
10577WAT      O43027   1.589   5.829   2.055
10577WAT     H143028   1.663   5.858   2.092
10577WAT     H243029   1.597   5.854   1.972
10577WAT    EPW43030   1.601   5.837   2.048
10578WAT      O43031   0.502   6.378   1.129
10578WAT     H143032   0.505   6.297   1.095
10578WAT     H243033   0.456   6.423   1.070
10578WAT    EPW43034   0.496   6.373   1.115
10579WAT      O43035   1.174   6.045   0.371
10579WAT     H143036   1.222   5.988   0.326
10579WAT     H243037   1.167   6.113   0.318
10579WAT    EPW43038   1.180   6.046   0.357
10580WAT      O43039   0.313   6.599   1.498
10580WAT     H143040   0.316   6.574   1.582
10580WAT     H243041   0.346   6.530   1.456
10580WAT    EPW43042   0.319   6.585   1.504
10581WAT      O43043   1.276   2.984   6.390
10581WAT     H143044   1.280   3.027   6.314
10581WAT     H243045   1.359   2.965   6.407
10581WAT    EPW43046   1.289   2.988   6.382
10582WAT      O43047   1.240   3.609   6.839
10582WAT     H143048   1.204   3.686   6.858
10582WAT     H243049   1.295   3.595   6.905
10582WAT    EPW43050   1.243   3.618   6.851
10583WAT      O43051   1.824   4.468   6.158
10583WAT     H143052   1.888   4.412   6.179
10583WAT     H243053   1.772   4.421   6.106
10583WAT    EPW43054   1.826   4.453   6.153
10584WAT      O43055   0.564   3.989   5.922
10584WAT     H143056   0.505   3.976   5.860
10584WAT     H243057   0.539   3.937   5.987
10584WAT    EPW43058   0.552   3.980   5.923
10585WAT      O43059   1.473   3.805   6.484
10585WAT     H143060   1.482   3.792   6.398
10585WAT     H243061   1.419   3.741   6.509
10585WAT    EPW43062   1.466   3.794   6.475
10586WAT      O43063   0.391   4.226   6.294
10586WAT     H143064   0.445   4.178   6.344
10586WAT     H243065   0.314   4.186   6.305
10586WAT    EPW43066   0.388   4.213   6.303
10587WAT      O43067   0.947   3.114   6.260
10587WAT     H143068   0.933   3.184   6.210
10587WAT     H243069   1.024   3.084   6.233
10587WAT    EPW43070   0.956   3.120   6.248
10588WAT      O43071   0.407   4.481   5.925
10588WAT     H143072   0.432   4.473   5.842
10588WAT     H243073   0.419   4.401   5.958
10588WAT    EPW43074   0.413   4.468   5.918
10589WAT      O43075   0.906   4.152   7.481
10589WAT     H143076   0.925   4.112   7.556
10589WAT     H243077   0.829   4.118   7.458
10589WAT    EPW43078   0.897   4.141   7.489
10590WAT      O43079   0.422   3.803   6.389
10590WAT     H143080   0.348   3.759   6.376
10590WAT     H243081   0.476   3.742   6.421
10590WAT    EPW43082   0.419   3.787   6.392
10591WAT      O43083   0.837   3.410   7.035
10591WAT     H143084   0.905   3.418   6.981
10591WAT     H243085   0.818   3.325   7.031
10591WAT    EPW43086   0.844   3.399   7.026
10592WAT      O43087   0.852   4.398   7.220
10592WAT     H143088   0.829   4.472   7.179
10592WAT     H243089   0.937   4.409   7.235
10592WAT    EPW43090   0.861   4.411   7.216
10593WAT      O43091   0.552   3.590   6.511
10593WAT     H143092   0.624   3.544   6.527
10593WAT     H243093   0.488   3.531   6.512
10593WAT    EPW43094   0.553   3.575   6.513
10594WAT      O43095   0.990   4.262   6.652
10594WAT     H143096   1.014   4.180   6.668
10594WAT     H243097   1.065   4.304   6.637
10594WAT    EPW43098   1.004   4.256   6.652
10595WAT      O43099   1.024   4.182   6.282
10595WAT     H143100   1.065   4.120   6.328
10595WAT     H243101   1.045   4.164   6.199
10595WAT    EPW43102   1.034   4.170   6.277
10596WAT      O43103   1.185   3.631   7.448
10596WAT     H143104   1.101   3.639   7.425
10596WAT     H243105   1.193   3.687   7.514
10596WAT    EPW43106   1.174   3.640   7.454
10597WAT      O43107   0.670   3.091   6.310
10597WAT     H143108   0.634   3.155   6.264
10597WAT     H243109   0.755   3.096   6.291
10597WAT    EPW43110   0.677   3.101   6.300
10598WAT      O43111   1.646   2.901   7.337
10598WAT     H143112   1.631   2.972   7.289
10598WAT     H243113   1.568   2.882   7.370
10598WAT    EPW43114   1.632   2.909   7.335
10599WAT      O43115   0.961   3.062   6.534
10599WAT     H143116   0.972   3.144   6.560
10599WAT     H243117   0.949   3.069   6.448
10599WAT    EPW43118   0.961   3.075   6.525
10600WAT      O43119   1.378   3.309   5.789
10600WAT     H143120   1.327   3.373   5.822
10600WAT     H243121   1.395   3.259   5.858
10600WAT    EPW43122   1.373   3.311   5.804
10601WAT      O43123   0.809   4.360   6.277
10601WAT     H143124   0.767   4.338   6.350
10601WAT     H243125   0.881   4.310   6.279
10601WAT    EPW43126   0.814   4.349   6.288
10602WAT      O43127   1.392   4.573   6.061
10602WAT     H143128   1.463   4.623   6.067
10602WAT     H243129   1.421   4.493   6.082
10602WAT    EPW43130   1.407   4.569   6.065
10603WAT      O43131   1.194   4.607   6.249
10603WAT     H143132   1.217   4.678   6.296
10603WAT     H243133   1.256   4.602   6.188
10603WAT    EPW43134   1.207   4.617   6.247
10604WAT      O43135   0.460   3.045   6.741
10604WAT     H143136   0.419   2.976   6.708
10604WAT     H243137   0.518   3.011   6.796
10604WAT    EPW43138   0.462   3.030   6.744
10605WAT      O43139   0.346   4.495   6.368
10605WAT     H143140   0.362   4.410   6.356
10605WAT     H243141   0.378   4.533   6.297
10605WAT    EPW43142   0.353   4.488   6.356
10606WAT      O43143   1.949   3.276   6.489
10606WAT     H143144   1.898   3.345   6.498
10606WAT     H243145   1.893   3.209   6.481
10606WAT    EPW43146   1.933   3.276   6.489
10607WAT      O43147   1.459   4.596   7.061
10607WAT     H143148   1.526   4.652   7.051
10607WAT     H243149   1.442   4.570   6.980
10607WAT    EPW43150   1.467   4.601   7.048
10608WAT      O43151   0.389   3.121   7.551
10608WAT     H143152   0.362   3.196   7.516
10608WAT     H243153   0.470   3.111   7.518
10608WAT    EPW43154   0.397   3.130   7.541
10609WAT      O43155   0.502   4.245   6.704
10609WAT     H143156   0.561   4.245   6.639
10609WAT     H243157   0.545   4.208   6.770
10609WAT    EPW43158   0.517   4.239   6.704
10610WAT      O43159   0.777   4.572   6.606
10610WAT     H143160   0.855   4.590   6.573
10610WAT     H243161   0.722   4.617   6.554
10610WAT    EPW43162   0.780   4.581   6.593
10611WAT      O43163   1.055   3.059   7.558
10611WAT     H143164   1.057   2.979   7.522
10611WAT     H243165   0.993   3.100   7.513
10611WAT    EPW43166   1.046   3.053   7.546
10612WAT      O43167   1.123   3.527   6.415
10612WAT     H143168   1.150   3.488   6.342
10612WAT     H243169   1.196   3.541   6.459
10612WAT    EPW43170   1.138   3.523   6.410
10613WAT      O43171   1.211   3.505   5.907
10613WAT     H143172   1.237   3.584   5.935
10613WAT     H243173   1.133   3.521   5.870
10613WAT    EPW43174   1.203   3.519   5.906
10614WAT      O43175   1.602   4.762   6.045
10614WAT     H143176   1.649   4.739   5.976
10614WAT     H243177   1.658   4.807   6.094
10614WAT    EPW43178   1.617   4.765   6.042
10615WAT      O43179   0.703   4.620   7.132
10615WAT     H143180   0.708   4.644   7.216
10615WAT     H243181   0.626   4.580   7.127
10615WAT    EPW43182   0.693   4.618   7.144
10616WAT      O43183   1.859   3.199   6.903
10616WAT     H143184   1.924   3.189   6.845
10616WAT     H243185   1.880   3.144   6.967
10616WAT    EPW43186   1.872   3.189   6.904
10617WAT      O43187   1.302   4.362   7.458
10617WAT     H143188   1.297   4.289   7.506
10617WAT     H243189   1.387   4.369   7.440
10617WAT    EPW43190   1.314   4.352   7.463
10618WAT      O43191   1.086   4.391   5.869
10618WAT     H143192   1.053   4.453   5.922
10618WAT     H243193   1.163   4.424   5.846
10618WAT    EPW43194   1.093   4.405   5.874
10619WAT      O43195   1.429   3.139   6.003
10619WAT     H143196   1.482   3.070   6.009
10619WAT     H243197   1.447   3.185   6.076
10619WAT    EPW43198   1.440   3.136   6.015
10620WAT      O43199   0.268   3.297   6.255
10620WAT     H143200   0.199   3.244   6.261
10620WAT     H243201   0.288   3.315   6.338
10620WAT    EPW43202   0.261   3.292   6.268
10621WAT      O43203   0.457   4.499   7.088
10621WAT     H143204   0.425   4.422   7.114
10621WAT     H243205   0.458   4.492   7.001
10621WAT    EPW43206   0.453   4.486   7.079
10622WAT      O43207   1.185   3.406   6.168
10622WAT     H143208   1.110   3.363   6.154
10622WAT     H243209   1.202   3.443   6.091
10622WAT    EPW43210   1.177   3.405   6.155
10623WAT      O43211   1.210   4.637   7.165
10623WAT     H143212   1.290   4.627   7.133
10623WAT     H243213   1.160   4.642   7.094
10623WAT    EPW43214   1.214   4.636   7.150
10624WAT      O43215   1.193   3.061   6.126
10624WAT     H143216   1.136   3.046   6.061
10624WAT     H243217   1.265   3.087   6.083
10624WAT    EPW43218   1.195   3.062   6.110
10625WAT      O43219   1.890   4.690   6.443
10625WAT     H143220   1.850   4.766   6.457
10625WAT     H243221   1.825   4.634   6.431
10625WAT    EPW43222   1.875   4.693   6.443
10626WAT      O43223   1.016   3.333   6.587
10626WAT     H143224   1.041   3.398   6.535
10626WAT     H243225   1.026   3.366   6.667
10626WAT    EPW43226   1.021   3.348   6.591
10627WAT      O43227   1.625   4.266   6.500
10627WAT     H143228   1.687   4.206   6.489
10627WAT     H243229   1.551   4.221   6.494
10627WAT    EPW43230   1.623   4.251   6.497
10628WAT      O43231   0.623   4.333   7.363
10628WAT     H143232   0.695   4.359   7.322
10628WAT     H243233   0.604   4.399   7.416
10628WAT    EPW43234   0.631   4.346   7.365
10629WAT      O43235   0.597   2.851   6.433
10629WAT     H143236   0.624   2.923   6.392
10629WAT     H243237   0.557   2.806   6.371
10629WAT    EPW43238   0.595   2.855   6.418
10630WAT      O43239   0.787   3.945   6.773
10630WAT     H143240   0.816   3.923   6.852
10630WAT     H243241   0.730   3.882   6.754
10630WAT    EPW43242   0.783   3.933   6.782
10631WAT      O43243   1.343   3.301   7.159
10631WAT     H143244   1.332   3.332   7.240
10631WAT     H243245   1.282   3.239   7.152
10631WAT    EPW43246   1.332   3.297   7.169
10632WAT      O43247   0.898   3.936   7.025
10632WAT     H143248   0.898   4.022   7.034
10632WAT     H243249   0.859   3.907   7.097
10632WAT    EPW43250   0.892   3.944   7.037
10633WAT      O43251   1.513   4.041   7.036
10633WAT     H143252   1.440   4.007   7.069
10633WAT     H243253   1.502   4.127   7.044
10633WAT    EPW43254   1.501   4.048   7.042
10634WAT      O43255   1.533   2.906   6.476
10634WAT     H143256   1.534   2.894   6.562
10634WAT     H243257   1.567   2.832   6.444
10634WAT    EPW43258   1.538   2.893   6.484
10635WAT      O43259   1.731   3.382   7.227
10635WAT     H143260   1.814   3.354   7.228
10635WAT     H243261   1.715   3.401   7.311
10635WAT    EPW43262   1.741   3.381   7.240
10636WAT      O43263   0.574   3.209   6.545
10636WAT     H143264   0.604   3.159   6.480
10636WAT     H243265   0.544   3.152   6.603
10636WAT    EPW43266   0.574   3.193   6.544
10637WAT      O43267   1.804   4.058   6.015
10637WAT     H143268   1.804   4.011   6.089
10637WAT     H243269   1.889   4.070   5.998
10637WAT    EPW43270   1.817   4.053   6.024
10638WAT      O43271   0.541   4.048   6.438
10638WAT     H143272   0.623   4.044   6.408
10638WAT     H243273   0.508   3.970   6.416
10638WAT    EPW43274   0.549   4.036   6.431
10639WAT      O43275   0.389   4.655   6.605
10639WAT     H143276   0.341   4.603   6.553
10639WAT     H243277   0.459   4.674   6.555
10639WAT    EPW43278   0.392   4.650   6.590
10640WAT      O43279   0.374   3.455   6.917
10640WAT     H143280   0.458   3.466   6.899
10640WAT     H243281   0.341   3.535   6.911
10640WAT    EPW43282   0.381   3.468   6.913
10641WAT      O43283   2.028   4.497   7.377
10641WAT     H143284   1.962   4.501   7.320
10641WAT     H243285   1.989   4.488   7.454
10641WAT    EPW43286   2.013   4.496   7.380
10642WAT      O43287   1.620   3.721   5.939
10642WAT     H143288   1.613   3.803   5.909
10642WAT     H243289   1.591   3.728   6.021
10642WAT    EPW43290   1.615   3.734   5.947
10643WAT      O43291   0.789   4.019   6.314
10643WAT     H143292   0.856   4.075   6.304
10643WAT     H243293   0.808   3.954   6.259
10643WAT    EPW43294   0.802   4.018   6.305
10644WAT      O43295   1.930   3.196   5.924
10644WAT     H143296   1.968   3.130   5.883
10644WAT     H243297   1.899   3.246   5.859
10644WAT    EPW43298   1.931   3.194   5.908
10645WAT      O43299   2.037   3.615   7.164
10645WAT     H143300   2.056   3.544   7.116
10645WAT     H243301   1.953   3.629   7.147
10645WAT    EPW43302   2.028   3.606   7.154
10646WAT      O43303   1.795   3.087   6.152
10646WAT     H143304   1.869   3.049   6.178
10646WAT     H243305   1.819   3.135   6.083
10646WAT    EPW43306   1.809   3.089   6.146
10647WAT      O43307   1.209   4.427   6.603
10647WAT     H143308   1.160   4.496   6.581
10647WAT     H243309   1.237   4.396   6.526
10647WAT    EPW43310   1.206   4.432   6.589
10648WAT      O43311   0.632   4.122   6.914
10648WAT     H143312   0.696   4.161   6.960
10648WAT     H243313   0.675   4.067   6.862
10648WAT    EPW43314   0.648   4.120   6.913
10649WAT      O43315   1.491   3.345   6.609
10649WAT     H143316   1.521   3.312   6.684
10649WAT     H243317   1.427   3.290   6.587
10649WAT    EPW43318   1.486   3.332   6.617
10650WAT      O43319   0.362   3.997   6.690
10650WAT     H143320   0.396   3.958   6.620
10650WAT     H243321   0.392   4.079   6.685
10650WAT    EPW43322   0.371   4.003   6.679
10651WAT      O43323   0.925   3.322   6.082
10651WAT     H143324   0.913   3.295   6.000
10651WAT     H243325   0.888   3.401   6.084
10651WAT    EPW43326   0.918   3.330   6.070
10652WAT      O43327   1.775   4.508   7.235
10652WAT     H143328   1.740   4.588   7.240
10652WAT     H243329   1.771   4.489   7.150
10652WAT    EPW43330   1.769   4.517   7.223
10653WAT      O43331   0.730   4.308   6.540
10653WAT     H143332   0.735   4.392   6.563
10653WAT     H243333   0.805   4.274   6.568
10653WAT    EPW43334   0.742   4.315   6.547
10654WAT      O43335   0.465   3.643   7.537
10654WAT     H143336   0.547   3.637   7.566
10654WAT     H243337   0.470   3.612   7.456
10654WAT    EPW43338   0.478   3.637   7.530
10655WAT      O43339   0.535   3.545   6.051
10655WAT     H143340   0.532   3.471   6.098
10655WAT     H243341   0.503   3.521   5.974
10655WAT    EPW43342   0.530   3.531   6.047
10656WAT      O43343   0.606   3.743   6.738
10656WAT     H143344   0.580   3.715   6.659
10656WAT     H243345   0.626   3.670   6.781
10656WAT    EPW43346   0.605   3.728   6.732
10657WAT      O43347   0.573   3.721   7.072
10657WAT     H143348   0.602   3.672   7.006
10657WAT     H243349   0.524   3.782   7.033
10657WAT    EPW43350   0.570   3.723   7.057
10658WAT      O43351   1.633   3.526   6.886
10658WAT     H143352   1.566   3.551   6.937
10658WAT     H243353   1.628   3.581   6.818
10658WAT    EPW43354   1.622   3.538   6.883
10659WAT      O43355   1.002   4.643   6.981
10659WAT     H143356   0.968   4.571   6.946
10659WAT     H243357   0.988   4.704   6.921
10659WAT    EPW43358   0.995   4.641   6.967
10660WAT      O43359   1.203   3.063   7.236
10660WAT     H143360   1.229   2.982   7.217
10660WAT     H243361   1.235   3.076   7.316
10660WAT    EPW43362   1.211   3.053   7.245
10661WAT      O43363   1.433   3.285   6.235
10661WAT     H143364   1.489   3.351   6.244
10661WAT     H243365   1.356   3.326   6.222
10661WAT    EPW43366   1.430   3.301   6.234
10662WAT      O43367   0.363   3.893   7.619
10662WAT     H143368   0.359   3.937   7.544
10662WAT     H243369   0.386   3.812   7.595
10662WAT    EPW43370   0.366   3.887   7.605
10663WAT      O43371   1.542   4.120   7.477
10663WAT     H143372   1.570   4.200   7.457
10663WAT     H243373   1.573   4.071   7.411
10663WAT    EPW43374   1.551   4.124   7.464
10664WAT      O43375   0.925   4.447   7.521
10664WAT     H143376   0.933   4.442   7.608
10664WAT     H243377   0.915   4.363   7.497
10664WAT    EPW43378   0.924   4.434   7.530
10665WAT      O43379   1.043   3.415   6.848
10665WAT     H143380   1.107   3.473   6.853
10665WAT     H243381   1.077   3.342   6.881
10665WAT    EPW43382   1.057   3.412   6.853
10666WAT      O43383   1.291   3.737   6.045
10666WAT     H143384   1.271   3.794   5.982
10666WAT     H243385   1.231   3.753   6.106
10666WAT    EPW43386   1.279   3.748   6.045
10667WAT      O43387   1.802   4.054   6.478
10667WAT     H143388   1.812   4.000   6.546
10667WAT     H243389   1.793   4.000   6.410
10667WAT    EPW43390   1.802   4.038   6.478
10668WAT      O43391   1.392   4.479   6.814
10668WAT     H143392   1.333   4.457   6.753
10668WAT     H243393   1.440   4.540   6.775
10668WAT    EPW43394   1.390   4.484   6.799
10669WAT      O43395   1.381   4.111   6.795
10669WAT     H143396   1.307   4.140   6.830
10669WAT     H243397   1.419   4.067   6.860
10669WAT    EPW43398   1.376   4.109   6.810
10670WAT      O43399   0.777   4.618   6.182
10670WAT     H143400   0.783   4.544   6.229
10670WAT     H243401   0.848   4.614   6.130
10670WAT    EPW43402   0.788   4.606   6.181
10671WAT      O43403   0.723   2.969   5.980
10671WAT     H143404   0.705   2.945   6.062
10671WAT     H243405   0.670   3.037   5.966
10671WAT    EPW43406   0.712   2.975   5.990
10672WAT      O43407   1.011   4.597   6.039
10672WAT     H143408   1.067   4.605   6.105
10672WAT     H243409   1.016   4.674   5.999
10672WAT    EPW43410   1.020   4.610   6.043
10673WAT      O43411   1.637   3.961   7.276
10673WAT     H143412   1.606   3.984   7.198
10673WAT     H243413   1.724   3.971   7.268
10673WAT    EPW43414   1.646   3.966   7.263
10674WAT      O43415   1.846   2.931   7.532
10674WAT     H143416   1.786   2.921   7.470
10674WAT     H243417   1.799   2.950   7.603
10674WAT    EPW43418   1.830   2.932   7.533
10675WAT      O43419   0.485   3.813   6.116
10675WAT     H143420   0.498   3.729   6.100
10675WAT     H243421   0.467   3.815   6.202
10675WAT    EPW43422   0.484   3.801   6.127
10676WAT      O43423   1.283   3.937   7.138
10676WAT     H143424   1.228   3.980   7.190
10676WAT     H243425   1.309   3.869   7.188
10676WAT    EPW43426   1.279   3.933   7.153
10677WAT      O43427   1.128   3.769   6.270
10677WAT     H143428   1.141   3.835   6.326
10677WAT     H243429   1.117   3.700   6.322
10677WAT    EPW43430   1.128   3.769   6.286
10678WAT      O43431   1.627   4.254   6.783
10678WAT     H143432   1.641   4.267   6.698
10678WAT     H243433   1.547   4.219   6.786
10678WAT    EPW43434   1.617   4.251   6.771
10679WAT      O43435   0.587   3.202   5.909
10679WAT     H143436   0.533   3.202   5.841
10679WAT     H243437   0.659   3.241   5.879
10679WAT    EPW43438   0.590   3.208   5.895
10680WAT      O43439   1.046   3.991   6.683
10680WAT     H143440   0.962   3.971   6.697
10680WAT     H243441   1.087   3.956   6.751
10680WAT    EPW43442   1.039   3.983   6.695
10681WAT      O43443   0.728   4.583   5.812
10681WAT     H143444   0.743   4.517   5.868
10681WAT     H243445   0.725   4.653   5.863
10681WAT    EPW43446   0.729   4.584   5.828
10682WAT      O43447   0.428   3.932   6.955
10682WAT     H143448   0.485   3.998   6.961
10682WAT     H243449   0.400   3.935   6.872
10682WAT    EPW43450   0.432   3.942   6.944
10683WAT      O43451   0.741   3.413   6.620
10683WAT     H143452   0.824   3.390   6.605
10683WAT     H243453   0.696   3.341   6.598
10683WAT    EPW43454   0.747   3.399   6.614
10684WAT      O43455   1.990   4.640   6.017
10684WAT     H143456   2.058   4.592   5.990
10684WAT     H243457   1.941   4.582   6.061
10684WAT    EPW43458   1.993   4.624   6.020
10685WAT      O43459   0.238   3.594   6.349
10685WAT     H143460   0.261   3.535   6.410
10685WAT     H243461   0.226   3.546   6.278
10685WAT    EPW43462   0.240   3.578   6.348
10686WAT      O43463   1.755   3.907   6.962
10686WAT     H143464   1.760   3.837   7.014
10686WAT     H243465   1.675   3.937   6.975
10686WAT    EPW43466   1.744   3.901   6.971
10687WAT      O43467   0.730   3.790   5.804
10687WAT     H143468   0.676   3.846   5.844
10687WAT     H243469   0.681   3.755   5.742
10687WAT    EPW43470   0.715   3.793   5.801
10688WAT      O43471   0.373   4.022   7.365
10688WAT     H143472   0.333   3.968   7.309
10688WAT     H243473   0.362   4.101   7.329
10688WAT    EPW43474   0.365   4.026   7.351
10689WAT      O43475   1.849   3.881   6.699
10689WAT     H143476   1.824   3.896   6.781
10689WAT     H243477   1.936   3.876   6.705
10689WAT    EPW43478   1.858   3.883   6.712
10690WAT      O43479   0.811   3.574   6.051
10690WAT     H143480   0.829   3.652   6.086
10690WAT     H243481   0.723   3.573   6.048
10690WAT    EPW43482   0.800   3.586   6.055
10691WAT      O43483   1.606   3.304   7.500
10691WAT     H143484   1.555   3.295   7.570
10691WAT     H243485   1.584   3.235   7.450
10691WAT    EPW43486   1.595   3.292   7.503
10692WAT      O43487   0.272   3.264   6.739
10692WAT     H143488   0.321   3.193   6.752
10692WAT     H243489   0.295   3.317   6.804
10692WAT    EPW43490   0.283   3.261   6.750
10693WAT      O43491   1.997   4.388   6.788
10693WAT     H143492   2.029   4.443   6.727
10693WAT     H243493   2.062   4.385   6.847
10693WAT    EPW43494   2.012   4.396   6.788
10694WAT      O43495   1.508   3.730   7.542
10694WAT     H143496   1.556   3.791   7.581
10694WAT     H243497   1.429   3.741   7.576
10694WAT    EPW43498   1.503   3.741   7.553
10695WAT      O43499   1.760   3.665   7.422
10695WAT     H143500   1.801   3.737   7.449
10695WAT     H243501   1.682   3.670   7.459
10695WAT    EPW43502   1.755   3.676   7.431
10696WAT      O43503   1.673   4.302   6.002
10696WAT     H143504   1.710   4.223   6.011
10696WAT     H243505   1.596   4.293   6.041
10696WAT    EPW43506   1.667   4.289   6.009
10697WAT      O43507   1.728   3.454   6.515
10697WAT     H143508   1.662   3.406   6.544
10697WAT     H243509   1.720   3.529   6.560
10697WAT    EPW43510   1.717   3.458   6.526
10698WAT      O43511   1.911   4.021   7.260
10698WAT     H143512   1.978   3.972   7.235
10698WAT     H243513   1.904   4.080   7.196
10698WAT    EPW43514   1.920   4.022   7.247
10699WAT      O43515   1.353   4.099   5.930
10699WAT     H143516   1.430   4.059   5.921
10699WAT     H243517   1.324   4.105   5.848
10699WAT    EPW43518   1.360   4.094   5.916
10700WAT      O43519   0.881   4.220   7.016
10700WAT     H143520   0.869   4.266   7.089
10700WAT     H243521   0.876   4.280   6.953
10700WAT    EPW43522   0.878   4.236   7.018
10701WAT      O43523   0.651   4.060   7.390
10701WAT     H143524   0.570   4.031   7.400
10701WAT     H243525   0.641   4.146   7.379
10701WAT    EPW43526   0.638   4.069   7.390
10702WAT      O43527   1.577   3.150   7.203
10702WAT     H143528   1.632   3.218   7.199
10702WAT     H243529   1.500   3.185   7.182
10702WAT    EPW43530   1.574   3.166   7.199
10703WAT      O43531   1.138   3.856   6.915
10703WAT     H143532   1.192   3.886   6.976
10703WAT     H243533   1.059   3.868   6.950
10703WAT    EPW43534   1.134   3.862   6.929
10704WAT      O43535   0.783   3.437   7.303
10704WAT     H143536   0.811   3.362   7.337
10704WAT     H243537   0.806   3.431   7.219
10704WAT    EPW43538   0.790   3.425   7.296
10705WAT      O43539   1.033   4.629   6.506
10705WAT     H143540   1.034   4.715   6.519
10705WAT     H243541   1.047   4.621   6.420
10705WAT    EPW43542   1.035   4.640   6.495
10706WAT      O43543   1.659   2.947   7.016
10706WAT     H143544   1.625   3.018   7.054
10706WAT     H243545   1.744   2.951   7.037
10706WAT    EPW43546   1.667   2.958   7.025
10707WAT      O43547   0.938   2.984   7.191
10707WAT     H143548   1.019   3.015   7.195
10707WAT     H243549   0.943   2.921   7.131
10707WAT    EPW43550   0.951   2.979   7.183
10708WAT      O43551   0.879   4.433   6.838
10708WAT     H143552   0.827   4.482   6.789
10708WAT     H243553   0.921   4.384   6.779
10708WAT    EPW43554   0.878   4.433   6.822
10709WAT      O43555   1.275   4.081   7.534
10709WAT     H143556   1.360   4.086   7.514
10709WAT     H243557   1.236   4.083   7.456
10709WAT    EPW43558   1.282   4.082   7.519
10710WAT      O43559   1.586   4.394   7.415
10710WAT     H143560   1.591   4.459   7.472
10710WAT     H243561   1.642   4.417   7.352
10710WAT    EPW43562   1.595   4.407   7.414
10711WAT      O43563   1.867   3.605   5.899
10711WAT     H143564   1.916   3.667   5.860
10711WAT     H243565   1.788   3.641   5.902
10711WAT    EPW43566   1.863   3.620   5.893
10712WAT      O43567   0.975   3.890   5.885
10712WAT     H143568   0.904   3.855   5.849
10712WAT     H243569   0.957   3.975   5.889
10712WAT    EPW43570   0.962   3.897   5.880
10713WAT      O43571   0.646   3.504   6.866
10713WAT     H143572   0.674   3.470   6.791
10713WAT     H243573   0.703   3.474   6.925
10713WAT    EPW43574   0.658   3.494   6.864
10714WAT      O43575   1.336   3.399   7.419
10714WAT     H143576   1.282   3.466   7.434
10714WAT     H243577   1.415   3.432   7.436
10714WAT    EPW43578   1.340   3.414   7.424
10715WAT      O43579   1.410   3.554   7.050
10715WAT     H143580   1.407   3.604   7.121
10715WAT     H243581   1.390   3.474   7.081
10715WAT    EPW43582   1.406   3.549   7.065
10716WAT      O43583   1.101   4.657   7.430
10716WAT     H143584   1.130   4.643   7.349
10716WAT     H243585   1.069   4.579   7.454
10716WAT    EPW43586   1.101   4.643   7.422
10717WAT      O43587   1.616   3.501   6.267
10717WAT     H143588   1.643   3.484   6.348
10717WAT     H243589   1.688   3.529   6.227
10717WAT    EPW43590   1.630   3.503   6.273
10718WAT      O43591   0.921   2.992   6.806
10718WAT     H143592   0.836   2.978   6.822
10718WAT     H243593   0.923   3.001   6.719
10718WAT    EPW43594   0.909   2.991   6.795
10719WAT      O43595   1.749   3.084   6.431
10719WAT     H143596   1.672   3.046   6.448
10719WAT     H243597   1.745   3.101   6.346
10719WAT    EPW43598   1.737   3.081   6.421
10720WAT      O43599   1.763   3.895   6.243
10720WAT     H143600   1.806   3.820   6.231
10720WAT     H243601   1.679   3.873   6.237
10720WAT    EPW43602   1.757   3.881   6.240
10721WAT      O43603   1.120   4.104   7.301
10721WAT     H143604   1.047   4.106   7.348
10721WAT     H243605   1.127   4.185   7.269
10721WAT    EPW43606   1.111   4.116   7.303
10722WAT      O43607   0.660   4.732   6.873
10722WAT     H143608   0.675   4.713   6.957
10722WAT     H243609   0.627   4.658   6.841
10722WAT    EPW43610   0.657   4.718   6.881
10723WAT      O43611   0.533   3.289   6.167
10723WAT     H143612   0.539   3.258   6.086
10723WAT     H243613   0.448   3.283   6.185
10723WAT    EPW43614   0.522   3.284   6.158
10724WAT      O43615   1.411   4.076   6.521
10724WAT     H143616   1.397   4.086   6.606
10724WAT     H243617   1.441   3.995   6.514
10724WAT    EPW43618   1.413   4.066   6.532
10725WAT      O43619   1.160   3.994   6.431
10725WAT     H143620   1.120   3.987   6.508
10725WAT     H243621   1.239   4.024   6.452
10725WAT    EPW43622   1.166   3.998   6.446
10726WAT      O43623   1.133   4.382   7.245
10726WAT     H143624   1.183   4.377   7.316
10726WAT     H243625   1.164   4.453   7.204
10726WAT    EPW43626   1.145   4.392   7.249
10727WAT      O43627   1.961   3.469   7.466
10727WAT     H143628   1.905   3.535   7.452
10727WAT     H243629   2.039   3.508   7.468
10727WAT    EPW43630   1.964   3.485   7.464
10728WAT      O43631   1.383   3.719   7.277
10728WAT     H143632   1.317   3.690   7.326
10728WAT     H243633   1.445   3.740   7.336
10728WAT    EPW43634   1.383   3.718   7.293
10729WAT      O43635   0.313   4.713   7.469
10729WAT     H143636   0.232   4.700   7.499
10729WAT     H243637   0.332   4.793   7.495
10729WAT    EPW43638   0.303   4.723   7.477
10730WAT      O43639   1.255   3.822   7.638
10730WAT     H143640   1.259   3.905   7.611
10730WAT     H243641   1.230   3.829   7.721
10730WAT    EPW43642   1.252   3.835   7.646
10731WAT      O43643   1.528   4.721   6.756
10731WAT     H143644   1.468   4.780   6.779
10731WAT     H243645   1.592   4.733   6.814
10731WAT    EPW43646   1.528   4.731   6.768
10732WAT      O43647   1.166   4.207   6.949
10732WAT     H143648   1.085   4.210   6.980
10732WAT     H243649   1.213   4.248   7.010
10732WAT    EPW43650   1.161   4.213   6.962
10733WAT      O43651   0.523   3.540   7.284
10733WAT     H143652   0.531   3.600   7.221
10733WAT     H243653   0.604   3.507   7.291
10733WAT    EPW43654   0.536   3.544   7.276
10734WAT      O43655   0.381   3.331   7.170
10734WAT     H143656   0.364   3.363   7.090
10734WAT     H243657   0.418   3.397   7.212
10734WAT    EPW43658   0.384   3.346   7.164
10735WAT      O43659   1.844   3.634   6.178
10735WAT     H143660   1.861   3.629   6.092
10735WAT     H243661   1.918   3.603   6.214
10735WAT    EPW43662   1.858   3.629   6.171
10736WAT      O43663   0.622   3.054   7.414
10736WAT     H143664   0.665   2.978   7.409
10736WAT     H243665   0.589   3.064   7.334
10736WAT    EPW43666   0.623   3.044   7.401
10737WAT      O43667   1.245   4.347   6.335
10737WAT     H143668   1.224   4.427   6.308
10737WAT     H243669   1.172   4.301   6.320
10737WAT    EPW43670   1.231   4.352   6.329
10738WAT      O43671   1.764   3.672   7.139
10738WAT     H143672   1.738   3.590   7.127
10738WAT     H243673   1.755   3.684   7.225
10738WAT    EPW43674   1.759   3.662   7.150
10739WAT      O43675   0.249   3.879   7.162
10739WAT     H143676   0.300   3.898   7.094
10739WAT     H243677   0.170   3.872   7.127
10739WAT    EPW43678   0.245   3.881   7.147
10740WAT      O43679   0.421   3.474   5.801
10740WAT     H143680   0.334   3.481   5.809
10740WAT     H243681   0.431   3.398   5.760
10740WAT    EPW43682   0.409   3.464   5.796
10741WAT      O43683   1.310   3.131   7.489
10741WAT     H143684   1.311   3.217   7.475
10741WAT     H243685   1.232   3.117   7.527
10741WAT    EPW43686   1.298   3.141   7.492
10742WAT      O43687   1.264   3.184   6.585
10742WAT     H143688   1.187   3.225   6.581
10742WAT     H243689   1.258   3.122   6.524
10742WAT    EPW43690   1.252   3.181   6.576
10743WAT      O43691   0.739   4.361   5.996
10743WAT     H143692   0.768   4.364   6.078
10743WAT     H243693   0.658   4.329   6.004
10743WAT    EPW43694   0.731   4.356   6.009
10744WAT      O43695   1.585   3.252   6.855
10744WAT     H143696   1.666   3.220   6.862
10744WAT     H243697   1.595   3.336   6.877
10744WAT    EPW43698   1.599   3.260   6.859
10745WAT      O43699   0.758   3.847   7.244
10745WAT     H143700   0.719   3.911   7.288
10745WAT     H243701   0.693   3.810   7.199
10745WAT    EPW43702   0.743   3.851   7.244
10746WAT      O43703   1.661   3.686   6.654
10746WAT     H143704   1.724   3.744   6.667
10746WAT     H243705   1.603   3.728   6.604
10746WAT    EPW43706   1.662   3.701   6.649
10747WAT      O43707   1.671   4.523   6.386
10747WAT     H143708   1.655   4.446   6.423
10747WAT     H243709   1.710   4.502   6.311
10747WAT    EPW43710   1.674   4.509   6.381
10748WAT      O43711   0.492   4.239   6.032
10748WAT     H143712   0.464   4.229   6.114
10748WAT     H243713   0.505   4.158   6.004
10748WAT    EPW43714   0.490   4.226   6.040
10749WAT      O43715   0.809   4.124   5.859
10749WAT     H143716   0.734   4.083   5.878
10749WAT     H243717   0.802   4.200   5.902
10749WAT    EPW43718   0.797   4.129   5.868
10750WAT      O43719   0.763   3.148   7.041
10750WAT     H143720   0.684   3.126   7.070
10750WAT     H243721   0.816   3.092   7.082
10750WAT    EPW43722   0.759   3.137   7.052
10751WAT      O43723   1.920   3.032   7.118
10751WAT     H143724   1.934   3.096   7.177
10751WAT     H243725   1.996   2.991   7.113
10751WAT    EPW43726   1.933   3.036   7.126
10752WAT      O43727   1.111   3.162   6.932
10752WAT     H143728   1.051   3.111   6.895
10752WAT     H243729   1.187   3.127   6.908
10752WAT    EPW43730   1.114   3.149   6.923
10753WAT      O43731   1.429   4.309   7.044
10753WAT     H143732   1.456   4.378   7.090
10753WAT     H243733   1.422   4.341   6.962
10753WAT    EPW43734   1.432   4.324   7.038
10754WAT      O43735   1.400   4.710   7.462
10754WAT     H143736   1.326   4.664   7.473
10754WAT     H243737   1.377   4.791   7.482
10754WAT    EPW43738   1.386   4.715   7.467
10755WAT      O43739   0.920   3.664   7.381
10755WAT     H143740   0.878   3.590   7.362
10755WAT     H243741   0.874   3.725   7.340
10755WAT    EPW43742   0.907   3.662   7.372
10756WAT      O43743   0.995   3.005   5.941
10756WAT     H143744   1.004   3.012   5.855
10756WAT     H243745   0.909   3.006   5.953
10756WAT    EPW43746   0.984   3.006   5.930
10757WAT      O43747   1.884   4.160   7.019
10757WAT     H143748   1.848   4.089   6.984
10757WAT     H243749   1.833   4.225   6.991
10757WAT    EPW43750   1.871   4.159   7.010
10758WAT      O43751   0.790   4.674   7.398
10758WAT     H143752   0.859   4.716   7.364
10758WAT     H243753   0.826   4.604   7.436
10758WAT    EPW43754   0.806   4.670   7.399
10759WAT      O43755   1.770   4.418   6.956
10759WAT     H143756   1.840   4.427   6.905
10759WAT     H243757   1.711   4.380   6.905
10759WAT    EPW43758   1.772   4.414   6.941
10760WAT      O43759   0.519   3.093   7.163
10760WAT     H143760   0.459   3.030   7.156
10760WAT     H243761   0.472   3.167   7.162
10760WAT    EPW43762   0.503   3.095   7.162
10761WAT      O43763   1.359   3.083   6.827
10761WAT     H143764   1.424   3.138   6.847
10761WAT     H243765   1.330   3.113   6.750
10761WAT    EPW43766   1.365   3.095   6.818
10762WAT      O43767   0.541   4.553   7.508
10762WAT     H143768   0.605   4.613   7.507
10762WAT     H243769   0.468   4.601   7.501
10762WAT    EPW43770   0.540   4.569   7.507
10763WAT      O43771   1.340   3.579   6.579
10763WAT     H143772   1.393   3.510   6.590
10763WAT     H243773   1.308   3.592   6.659
10763WAT    EPW43774   1.343   3.570   6.593
10764WAT      O43775   0.360   3.380   6.506
10764WAT     H143776   0.315   3.354   6.576
10764WAT     H243777   0.429   3.327   6.506
10764WAT    EPW43778   0.363   3.368   6.516
10765WAT      O43779   0.372   4.286   7.261
10765WAT     H143780   0.320   4.332   7.314
10765WAT     H243781   0.452   4.301   7.293
10765WAT    EPW43782   0.376   4.295   7.274
10766WAT      O43783   1.516   3.752   6.208
10766WAT     H143784   1.534   3.669   6.227
10766WAT     H243785   1.441   3.747   6.164
10766WAT    EPW43786   1.507   3.739   6.204
10767WAT      O43787   0.498   4.608   6.161
10767WAT     H143788   0.468   4.579   6.084
10767WAT     H243789   0.585   4.603   6.151
10767WAT    EPW43790   0.506   4.603   6.148
10768WAT      O43791   0.890   3.823   6.141
10768WAT     H143792   0.918   3.851   6.063
10768WAT     H243793   0.964   3.806   6.184
10768WAT    EPW43794   0.905   3.825   6.136
10769WAT      O43795   1.778   4.693   5.843
10769WAT     H143796   1.849   4.683   5.893
10769WAT     H243797   1.763   4.612   5.813
10769WAT    EPW43798   1.787   4.680   5.846
10770WAT      O43799   1.889   3.894   7.512
10770WAT     H143800   1.969   3.871   7.539
10770WAT     H243801   1.903   3.946   7.444
10770WAT    EPW43802   1.903   3.898   7.506
10771WAT      O43803   1.424   4.300   6.119
10771WAT     H143804   1.377   4.296   6.193
10771WAT     H243805   1.386   4.241   6.068
10771WAT    EPW43806   1.411   4.291   6.122
10772WAT      O43807   1.843   3.295   7.658
10772WAT     H143808   1.897   3.351   7.618
10772WAT     H243809   1.772   3.296   7.608
10772WAT    EPW43810   1.841   3.304   7.644
10773WAT      O43811   1.909   3.476   6.913
10773WAT     H143812   1.826   3.503   6.908
10773WAT     H243813   1.903   3.389   6.913
10773WAT    EPW43814   1.896   3.467   6.912
10774WAT      O43815   0.864   3.181   7.388
10774WAT     H143816   0.886   3.137   7.317
10774WAT     H243817   0.784   3.152   7.407
10774WAT    EPW43818   0.856   3.170   7.381
10775WAT      O43819   1.652   3.934   7.656
10775WAT     H143820   1.733   3.926   7.625
10775WAT     H243821   1.620   4.003   7.614
10775WAT    EPW43822   1.659   3.943   7.645
10776WAT      O43823   0.498   4.501   6.809
10776WAT     H143824   0.500   4.421   6.776
10776WAT     H243825   0.453   4.547   6.750
10776WAT    EPW43826   0.492   4.496   6.795
10777WAT      O43827   1.095   4.153   6.020
10777WAT     H143828   1.174   4.123   5.996
10777WAT     H243829   1.084   4.223   5.969
10777WAT    EPW43830   1.105   4.159   6.009
10778WAT      O43831   0.343   4.734   7.188
10778WAT     H143832   0.329   4.718   7.272
10778WAT     H243833   0.369   4.657   7.156
10778WAT    EPW43834   0.344   4.720   7.195
10779WAT      O43835   1.275   2.988   4.488
10779WAT     H143836   1.277   3.032   4.413
10779WAT     H243837   1.357   2.963   4.500
10779WAT    EPW43838   1.287   2.991   4.479
10780WAT      O43839   1.219   3.629   4.930
10780WAT     H143840   1.182   3.704   4.957
10780WAT     H243841   1.271   3.607   4.996
10780WAT    EPW43842   1.221   3.637   4.944
10781WAT      O43843   1.838   4.448   4.279
10781WAT     H143844   1.905   4.395   4.298
10781WAT     H243845   1.790   4.402   4.222
10781WAT    EPW43846   1.841   4.433   4.273
10782WAT      O43847   0.565   3.985   4.029
10782WAT     H143848   0.505   3.971   3.968
10782WAT     H243849   0.540   3.934   4.095
10782WAT    EPW43850   0.552   3.975   4.030
10783WAT      O43851   1.492   3.820   4.551
10783WAT     H143852   1.475   3.797   4.468
10783WAT     H243853   1.451   3.759   4.598
10783WAT    EPW43854   1.483   3.808   4.546
10784WAT      O43855   0.389   4.231   4.389
10784WAT     H143856   0.446   4.185   4.437
10784WAT     H243857   0.313   4.191   4.403
10784WAT    EPW43858   0.386   4.219   4.398
10785WAT      O43859   0.944   3.110   4.372
10785WAT     H143860   0.931   3.181   4.324
10785WAT     H243861   1.022   3.081   4.346
10785WAT    EPW43862   0.954   3.116   4.361
10786WAT      O43863   0.408   4.483   4.024
10786WAT     H143864   0.432   4.476   3.941
10786WAT     H243865   0.419   4.402   4.056
10786WAT    EPW43866   0.413   4.470   4.016
10787WAT      O43867   0.882   4.141   5.591
10787WAT     H143868   0.865   4.132   5.676
10787WAT     H243869   0.808   4.114   5.553
10787WAT    EPW43870   0.869   4.136   5.598
10788WAT      O43871   0.426   3.812   4.517
10788WAT     H143872   0.358   3.764   4.493
10788WAT     H243873   0.479   3.754   4.556
10788WAT    EPW43874   0.424   3.796   4.519
10789WAT      O43875   0.838   3.397   5.145
10789WAT     H143876   0.907   3.404   5.091
10789WAT     H243877   0.821   3.312   5.145
10789WAT    EPW43878   0.846   3.386   5.137
10790WAT      O43879   0.887   4.462   5.324
10790WAT     H143880   0.903   4.514   5.256
10790WAT     H243881   0.966   4.429   5.342
10790WAT    EPW43882   0.901   4.465   5.317
10791WAT      O43883   0.552   3.604   4.653
10791WAT     H143884   0.626   3.558   4.652
10791WAT     H243885   0.490   3.543   4.646
10791WAT    EPW43886   0.554   3.588   4.652
10792WAT      O43887   0.988   4.248   4.738
10792WAT     H143888   1.013   4.167   4.760
10792WAT     H243889   1.063   4.290   4.726
10792WAT    EPW43890   1.003   4.242   4.740
10793WAT      O43891   1.029   4.183   4.372
10793WAT     H143892   1.068   4.121   4.420
10793WAT     H243893   1.051   4.163   4.291
10793WAT    EPW43894   1.038   4.171   4.367
10794WAT      O43895   1.150   3.681   5.539
10794WAT     H143896   1.063   3.673   5.533
10794WAT     H243897   1.162   3.725   5.613
10794WAT    EPW43898   1.139   3.686   5.549
10795WAT      O43899   0.665   3.080   4.414
10795WAT     H143900   0.631   3.144   4.366
10795WAT     H243901   0.750   3.084   4.396
10795WAT    EPW43902   0.672   3.090   4.404
10796WAT      O43903   1.614   2.895   5.462
10796WAT     H143904   1.595   2.968   5.420
10796WAT     H243905   1.540   2.877   5.505
10796WAT    EPW43906   1.600   2.903   5.462
10797WAT      O43907   0.964   3.055   4.651
10797WAT     H143908   0.983   3.136   4.676
10797WAT     H243909   0.947   3.064   4.566
10797WAT    EPW43910   0.964   3.068   4.642
10798WAT      O43911   1.407   3.305   3.874
10798WAT     H143912   1.352   3.366   3.901
10798WAT     H243913   1.416   3.252   3.943
10798WAT    EPW43914   1.401   3.306   3.888
10799WAT      O43915   0.812   4.360   4.373
10799WAT     H143916   0.771   4.339   4.447
10799WAT     H243917   0.883   4.310   4.375
10799WAT    EPW43918   0.816   4.349   4.384
10800WAT      O43919   1.399   4.570   4.153
10800WAT     H143920   1.469   4.622   4.156
10800WAT     H243921   1.431   4.492   4.175
10800WAT    EPW43922   1.414   4.566   4.157
10801WAT      O43923   1.202   4.609   4.343
10801WAT     H143924   1.224   4.680   4.389
10801WAT     H243925   1.264   4.604   4.282
10801WAT    EPW43926   1.215   4.619   4.341
10802WAT      O43927   0.463   3.061   4.855
10802WAT     H143928   0.424   2.990   4.824
10802WAT     H243929   0.524   3.028   4.909
10802WAT    EPW43930   0.466   3.046   4.858
10803WAT      O43931   0.829   3.300   5.805
10803WAT     H143932   0.839   3.268   5.725
10803WAT     H243933   0.864   3.380   5.800
10803WAT    EPW43934   0.836   3.308   5.793
10804WAT      O43935   0.355   4.500   4.467
10804WAT     H143936   0.367   4.415   4.452
10804WAT     H243937   0.384   4.538   4.394
10804WAT    EPW43938   0.361   4.493   4.454
10805WAT      O43939   1.947   3.247   4.618
10805WAT     H143940   1.896   3.318   4.617
10805WAT     H243941   1.892   3.182   4.599
10805WAT    EPW43942   1.931   3.248   4.615
10806WAT      O43943   1.446   4.602   5.155
10806WAT     H143944   1.515   4.654   5.147
10806WAT     H243945   1.429   4.577   5.073
10806WAT    EPW43946   1.453   4.606   5.142
10807WAT      O43947   0.436   3.219   5.665
10807WAT     H143948   0.374   3.235   5.606
10807WAT     H243949   0.490   3.164   5.624
10807WAT    EPW43950   0.435   3.214   5.650
10808WAT      O43951   0.494   4.236   4.789
10808WAT     H143952   0.556   4.237   4.727
10808WAT     H243953   0.534   4.201   4.858
10808WAT    EPW43954   0.509   4.231   4.790
10809WAT      O43955   0.787   4.569   4.712
10809WAT     H143956   0.865   4.586   4.677
10809WAT     H243957   0.731   4.614   4.663
10809WAT    EPW43958   0.790   4.578   4.700
10810WAT      O43959   1.020   3.021   5.668
10810WAT     H143960   1.034   2.947   5.624
10810WAT     H243961   0.956   3.060   5.624
10810WAT    EPW43962   1.012   3.016   5.655
10811WAT      O43963   1.129   3.527   4.515
10811WAT     H143964   1.160   3.489   4.442
10811WAT     H243965   1.202   3.551   4.557
10811WAT    EPW43966   1.144   3.525   4.510
10812WAT      O43967   1.218   3.489   3.990
10812WAT     H143968   1.241   3.568   4.022
10812WAT     H243969   1.139   3.503   3.956
10812WAT    EPW43970   1.210   3.503   3.990
10813WAT      O43971   1.613   4.757   4.136
10813WAT     H143972   1.664   4.721   4.075
10813WAT     H243973   1.668   4.804   4.184
10813WAT    EPW43974   1.629   4.758   4.134
10814WAT      O43975   0.664   4.674   5.266
10814WAT     H143976   0.698   4.642   5.340
10814WAT     H243977   0.600   4.618   5.247
10814WAT    EPW43978   0.660   4.661   5.274
10815WAT      O43979   1.888   3.157   5.013
10815WAT     H143980   1.955   3.154   4.957
10815WAT     H243981   1.906   3.094   5.070
10815WAT    EPW43982   1.900   3.147   5.013
10816WAT      O43983   1.338   4.380   5.548
10816WAT     H143984   1.330   4.405   5.631
10816WAT     H243985   1.424   4.370   5.538
10816WAT    EPW43986   1.350   4.382   5.559
10817WAT      O43987   1.085   4.387   3.967
10817WAT     H143988   1.055   4.450   4.019
10817WAT     H243989   1.162   4.417   3.941
10817WAT    EPW43990   1.092   4.401   3.970
10818WAT      O43991   1.429   3.131   4.090
10818WAT     H143992   1.480   3.061   4.100
10818WAT     H243993   1.447   3.179   4.161
10818WAT    EPW43994   1.439   3.128   4.102
10819WAT      O43995   0.276   3.296   4.362
10819WAT     H143996   0.208   3.242   4.368
10819WAT     H243997   0.294   3.317   4.445
10819WAT    EPW43998   0.269   3.291   4.375
10820WAT      O43999   0.451   4.516   5.175
10820WAT     H144000   0.420   4.442   5.207
10820WAT     H244001   0.459   4.501   5.090
10820WAT    EPW44002   0.448   4.503   5.168
10821WAT      O44003   1.190   3.408   4.262
10821WAT     H144004   1.114   3.365   4.253
10821WAT     H244005   1.206   3.438   4.182
10821WAT    EPW44006   1.181   3.406   4.249
10822WAT      O44007   1.202   4.680   5.262
10822WAT     H144008   1.280   4.656   5.228
10822WAT     H244009   1.145   4.656   5.200
10822WAT    EPW44010   1.205   4.673   5.248
10823WAT      O44011   1.192   3.065   4.225
10823WAT     H144012   1.132   3.052   4.163
10823WAT     H244013   1.263   3.088   4.180
10823WAT    EPW44014   1.194   3.067   4.209
10824WAT      O44015   1.899   4.694   4.545
10824WAT     H144016   1.859   4.770   4.558
10824WAT     H244017   1.833   4.638   4.532
10824WAT    EPW44018   1.883   4.697   4.545
10825WAT      O44019   1.032   3.327   4.690
10825WAT     H144020   1.057   3.392   4.638
10825WAT     H244021   1.034   3.363   4.770
10825WAT    EPW44022   1.036   3.342   4.694
10826WAT      O44023   1.609   4.286   4.591
10826WAT     H144024   1.677   4.233   4.578
10826WAT     H244025   1.541   4.232   4.591
10826WAT    EPW44026   1.609   4.270   4.589
10827WAT      O44027   0.643   4.357   5.441
10827WAT     H144028   0.717   4.397   5.418
10827WAT     H244029   0.623   4.394   5.518
10827WAT    EPW44030   0.651   4.369   5.449
10828WAT      O44031   0.600   2.848   4.561
10828WAT     H144032   0.620   2.911   4.505
10828WAT     H244033   0.551   2.793   4.514
10828WAT    EPW44034   0.596   2.849   4.546
10829WAT      O44035   0.788   3.941   4.903
10829WAT     H144036   0.819   3.939   4.984
10829WAT     H244037   0.741   3.867   4.897
10829WAT    EPW44038   0.786   3.929   4.914
10830WAT      O44039   1.365   3.312   5.296
10830WAT     H144040   1.354   3.358   5.369
10830WAT     H244041   1.303   3.251   5.300
10830WAT    EPW44042   1.355   3.310   5.307
10831WAT      O44043   0.892   3.970   5.156
10831WAT     H144044   0.875   4.055   5.168
10831WAT     H244045   0.856   3.932   5.226
10831WAT    EPW44046   0.884   3.977   5.168
10832WAT      O44047   1.480   4.091   5.167
10832WAT     H144048   1.419   4.036   5.196
10832WAT     H244049   1.443   4.169   5.178
10832WAT    EPW44050   1.466   4.094   5.173
10833WAT      O44051   1.528   2.890   4.554
10833WAT     H144052   1.525   2.871   4.639
10833WAT     H244053   1.567   2.820   4.519
10833WAT    EPW44054   1.533   2.877   4.562
10834WAT      O44055   1.781   3.380   5.406
10834WAT     H144056   1.856   3.355   5.444
10834WAT     H244057   1.727   3.389   5.474
10834WAT    EPW44058   1.784   3.378   5.422
10835WAT      O44059   0.574   3.210   4.644
10835WAT     H144060   0.600   3.155   4.582
10835WAT     H244061   0.546   3.157   4.708
10835WAT    EPW44062   0.573   3.194   4.644
10836WAT      O44063   1.833   4.031   4.123
10836WAT     H144064   1.852   3.986   4.195
10836WAT     H244065   1.910   4.060   4.096
10836WAT    EPW44066   1.847   4.028   4.130
10837WAT      O44067   0.551   4.061   4.528
10837WAT     H144068   0.631   4.054   4.495
10837WAT     H244069   0.518   3.981   4.520
10837WAT    EPW44070   0.558   4.048   4.522
10838WAT      O44071   0.393   4.657   4.704
10838WAT     H144072   0.346   4.607   4.650
10838WAT     H244073   0.465   4.676   4.657
10838WAT    EPW44074   0.397   4.653   4.689
10839WAT      O44075   0.377   3.456   5.019
10839WAT     H144076   0.461   3.446   4.997
10839WAT     H244077   0.363   3.542   5.009
10839WAT    EPW44078   0.387   3.467   5.014
10840WAT      O44079   2.017   4.474   5.511
10840WAT     H144080   1.937   4.483   5.479
10840WAT     H244081   2.005   4.432   5.586
10840WAT    EPW44082   2.004   4.469   5.517
10841WAT      O44083   1.645   3.719   4.027
10841WAT     H144084   1.635   3.800   3.997
10841WAT     H244085   1.604   3.720   4.104
10841WAT    EPW44086   1.637   3.731   4.034
10842WAT      O44087   0.795   4.020   4.404
10842WAT     H144088   0.861   4.075   4.392
10842WAT     H244089   0.813   3.954   4.349
10842WAT    EPW44090   0.807   4.018   4.394
10843WAT      O44091   1.856   3.195   4.000
10843WAT     H144092   1.836   3.149   3.929
10843WAT     H244093   1.873   3.275   3.968
10843WAT    EPW44094   1.856   3.200   3.984
10844WAT      O44095   0.946   3.553   5.803
10844WAT     H144096   0.897   3.582   5.870
10844WAT     H244097   0.916   3.599   5.735
10844WAT    EPW44098   0.934   3.564   5.803
10845WAT      O44099   2.068   3.679   5.191
10845WAT     H144100   2.064   3.680   5.104
10845WAT     H244101   1.984   3.676   5.214
10845WAT    EPW44102   2.055   3.679   5.182
10846WAT      O44103   1.780   3.088   4.248
10846WAT     H144104   1.857   3.056   4.271
10846WAT     H244105   1.797   3.134   4.176
10846WAT    EPW44106   1.794   3.090   4.241
10847WAT      O44107   1.208   4.414   4.694
10847WAT     H144108   1.161   4.484   4.674
10847WAT     H244109   1.239   4.387   4.617
10847WAT    EPW44110   1.206   4.420   4.680
10848WAT      O44111   0.611   4.123   5.012
10848WAT     H144112   0.665   4.167   5.064
10848WAT     H244113   0.664   4.068   4.970
10848WAT    EPW44114   0.627   4.122   5.014
10849WAT      O44115   1.472   3.374   4.704
10849WAT     H144116   1.488   3.381   4.790
10849WAT     H244117   1.418   3.306   4.699
10849WAT    EPW44118   1.467   3.365   4.716
10850WAT      O44119   0.370   3.968   4.775
10850WAT     H144120   0.378   3.928   4.698
10850WAT     H244121   0.401   4.049   4.759
10850WAT    EPW44122   0.376   3.974   4.761
10851WAT      O44123   0.928   3.318   4.190
10851WAT     H144124   0.915   3.289   4.109
10851WAT     H244125   0.890   3.397   4.189
10851WAT    EPW44126   0.920   3.326   4.178
10852WAT      O44127   1.773   4.518   5.380
10852WAT     H144128   1.729   4.593   5.385
10852WAT     H244129   1.785   4.506   5.295
10852WAT    EPW44130   1.768   4.527   5.368
10853WAT      O44131   0.731   4.309   4.636
10853WAT     H144132   0.737   4.392   4.662
10853WAT     H244133   0.806   4.273   4.662
10853WAT    EPW44134   0.743   4.316   4.643
10854WAT      O44135   0.522   3.683   5.641
10854WAT     H144136   0.493   3.617   5.690
10854WAT     H244137   0.519   3.652   5.560
10854WAT    EPW44138   0.517   3.669   5.636
10855WAT      O44139   0.535   3.545   4.159
10855WAT     H144140   0.535   3.470   4.203
10855WAT     H244141   0.504   3.523   4.081
10855WAT    EPW44142   0.531   3.531   4.154
10856WAT      O44143   0.632   3.711   4.905
10856WAT     H144144   0.592   3.710   4.828
10856WAT     H244145   0.650   3.627   4.921
10856WAT    EPW44146   0.629   3.699   4.896
10857WAT      O44147   0.559   3.754   5.175
10857WAT     H144148   0.592   3.733   5.097
10857WAT     H244149   0.499   3.814   5.157
10857WAT    EPW44150   0.555   3.759   5.161
10858WAT      O44151   1.543   3.429   4.965
10858WAT     H144152   1.493   3.471   5.023
10858WAT     H244153   1.608   3.485   4.949
10858WAT    EPW44154   1.545   3.444   4.971
10859WAT      O44155   0.985   4.611   5.099
10859WAT     H144156   0.966   4.544   5.046
10859WAT     H244157   0.966   4.681   5.051
10859WAT    EPW44158   0.979   4.612   5.084
10860WAT      O44159   1.208   3.084   5.349
10860WAT     H144160   1.232   3.005   5.321
10860WAT     H244161   1.237   3.086   5.431
10860WAT    EPW44162   1.216   3.072   5.357
10861WAT      O44163   1.438   3.284   4.316
10861WAT     H144164   1.495   3.348   4.330
10861WAT     H244165   1.361   3.325   4.309
10861WAT    EPW44166   1.435   3.300   4.317
10862WAT      O44167   0.398   3.924   5.712
10862WAT     H144168   0.380   3.968   5.639
10862WAT     H244169   0.430   3.848   5.683
10862WAT    EPW44170   0.400   3.919   5.697
10863WAT      O44171   1.548   4.079   5.585
10863WAT     H144172   1.574   4.160   5.567
10863WAT     H244173   1.580   4.031   5.520
10863WAT    EPW44174   1.556   4.084   5.573
10864WAT      O44175   0.972   4.409   5.616
10864WAT     H144176   1.000   4.405   5.699
10864WAT     H244177   0.942   4.329   5.600
10864WAT    EPW44178   0.972   4.397   5.626
10865WAT      O44179   1.040   3.413   4.952
10865WAT     H144180   1.100   3.476   4.953
10865WAT     H244181   1.084   3.342   4.978
10865WAT    EPW44182   1.055   3.412   4.956
10866WAT      O44183   1.281   3.723   4.130
10866WAT     H144184   1.261   3.780   4.066
10866WAT     H244185   1.224   3.742   4.193
10866WAT    EPW44186   1.270   3.735   4.130
10867WAT      O44187   1.822   4.105   4.538
10867WAT     H144188   1.837   4.053   4.607
10867WAT     H244189   1.788   4.052   4.479
10867WAT    EPW44190   1.819   4.090   4.540
10868WAT      O44191   1.385   4.477   4.905
10868WAT     H144192   1.331   4.451   4.841
10868WAT     H244193   1.430   4.543   4.868
10868WAT    EPW44194   1.384   4.483   4.890
10869WAT      O44195   1.394   4.107   4.890
10869WAT     H144196   1.315   4.133   4.916
10869WAT     H244197   1.428   4.072   4.962
10869WAT    EPW44198   1.387   4.106   4.904
10870WAT      O44199   0.782   4.619   4.279
10870WAT     H144200   0.788   4.545   4.326
10870WAT     H244201   0.852   4.615   4.227
10870WAT    EPW44202   0.793   4.607   4.279
10871WAT      O44203   0.722   2.973   4.074
10871WAT     H144204   0.699   2.945   4.153
10871WAT     H244205   0.669   3.040   4.060
10871WAT    EPW44206   0.711   2.978   4.084
10872WAT      O44207   1.016   4.598   4.135
10872WAT     H144208   1.073   4.606   4.200
10872WAT     H244209   1.019   4.675   4.095
10872WAT    EPW44210   1.025   4.610   4.138
10873WAT      O44211   1.641   3.939   5.362
10873WAT     H144212   1.612   3.982   5.292
10873WAT     H244213   1.727   3.953   5.360
10873WAT    EPW44214   1.649   3.948   5.351
10874WAT      O44215   1.328   4.516   5.797
10874WAT     H144216   1.352   4.538   5.877
10874WAT     H244217   1.356   4.582   5.747
10874WAT    EPW44218   1.335   4.529   5.801
10875WAT      O44219   1.805   2.998   5.632
10875WAT     H144220   1.743   2.970   5.578
10875WAT     H244221   1.793   2.951   5.705
10875WAT    EPW44222   1.794   2.987   5.635
10876WAT      O44223   0.488   3.814   4.233
10876WAT     H144224   0.501   3.729   4.216
10876WAT     H244225   0.477   3.816   4.319
10876WAT    EPW44226   0.489   3.802   4.243
10877WAT      O44227   1.272   3.934   5.263
10877WAT     H144228   1.222   3.966   5.326
10877WAT     H244229   1.311   3.865   5.301
10877WAT    EPW44230   1.271   3.929   5.278
10878WAT      O44231   1.132   3.767   4.365
10878WAT     H144232   1.144   3.834   4.419
10878WAT     H244233   1.120   3.699   4.418
10878WAT    EPW44234   1.132   3.767   4.381
10879WAT      O44235   1.658   4.252   5.004
10879WAT     H144236   1.617   4.260   4.928
10879WAT     H244237   1.605   4.199   5.050
10879WAT    EPW44238   1.644   4.245   5.000
10880WAT      O44239   0.586   3.205   4.009
10880WAT     H144240   0.532   3.207   3.941
10880WAT     H244241   0.658   3.244   3.980
10880WAT    EPW44242   0.588   3.211   3.995
10881WAT      O44243   1.036   3.971   4.776
10881WAT     H144244   0.952   3.957   4.796
10881WAT     H244245   1.080   3.939   4.843
10881WAT    EPW44246   1.030   3.964   4.789
10882WAT      O44247   0.727   4.584   3.911
10882WAT     H144248   0.742   4.518   3.967
10882WAT     H244249   0.725   4.654   3.963
10882WAT    EPW44250   0.729   4.584   3.927
10883WAT      O44251   0.396   3.951   5.055
10883WAT     H144252   0.457   4.013   5.056
10883WAT     H244253   0.375   3.943   4.971
10883WAT    EPW44254   0.402   3.959   5.043
10884WAT      O44255   0.755   3.409   4.700
10884WAT     H144256   0.838   3.383   4.687
10884WAT     H244257   0.708   3.339   4.677
10884WAT    EPW44258   0.761   3.395   4.694
10885WAT      O44259   2.017   4.615   4.151
10885WAT     H144260   2.082   4.561   4.133
10885WAT     H244261   1.960   4.566   4.196
10885WAT    EPW44262   2.018   4.600   4.155
10886WAT      O44263   0.255   3.603   4.450
10886WAT     H144264   0.279   3.540   4.506
10886WAT     H244265   0.242   3.560   4.375
10886WAT    EPW44266   0.257   3.587   4.447
10887WAT      O44267   1.803   3.864   5.108
10887WAT     H144268   1.786   3.806   5.172
10887WAT     H244269   1.797   3.816   5.036
10887WAT    EPW44270   1.800   3.848   5.107
10888WAT      O44271   0.734   3.792   3.905
10888WAT     H144272   0.679   3.846   3.947
10888WAT     H244273   0.685   3.757   3.842
10888WAT    EPW44274   0.719   3.795   3.902
10889WAT      O44275   0.365   4.054   5.463
10889WAT     H144276   0.319   4.005   5.408
10889WAT     H244277   0.356   4.135   5.432
10889WAT    EPW44278   0.357   4.058   5.450
10890WAT      O44279   1.896   3.915   4.722
10890WAT     H144280   1.855   3.846   4.755
10890WAT     H244281   1.979   3.903   4.746
10890WAT    EPW44282   1.902   3.903   4.731
10891WAT      O44283   0.813   3.570   4.149
10891WAT     H144284   0.832   3.648   4.183
10891WAT     H244285   0.725   3.569   4.149
10891WAT    EPW44286   0.803   3.581   4.154
10892WAT      O44287   1.602   3.324   5.622
10892WAT     H144288   1.532   3.324   5.675
10892WAT     H244289   1.585   3.260   5.566
10892WAT    EPW44290   1.589   3.315   5.622
10893WAT      O44291   0.266   3.272   4.840
10893WAT     H144292   0.316   3.202   4.854
10893WAT     H244293   0.288   3.327   4.904
10893WAT    EPW44294   0.276   3.270   4.851
10894WAT      O44295   2.040   4.502   4.931
10894WAT     H144296   2.050   4.507   4.845
10894WAT     H244297   2.106   4.549   4.963
10894WAT    EPW44298   2.051   4.509   4.923
10895WAT      O44299   1.465   3.658   5.715
10895WAT     H144300   1.505   3.661   5.792
10895WAT     H244301   1.391   3.702   5.728
10895WAT    EPW44302   1.460   3.665   5.728
10896WAT      O44303   1.707   3.688   5.565
10896WAT     H144304   1.730   3.769   5.587
10896WAT     H244305   1.632   3.676   5.607
10896WAT    EPW44306   1.699   3.698   5.574
10897WAT      O44307   1.701   4.280   4.110
10897WAT     H144308   1.731   4.199   4.125
10897WAT     H244309   1.621   4.279   4.144
10897WAT    EPW44310   1.694   4.268   4.117
10898WAT      O44311   1.728   3.431   4.610
10898WAT     H144312   1.655   3.395   4.640
10898WAT     H244313   1.749   3.490   4.670
10898WAT    EPW44314   1.721   3.434   4.623
10899WAT      O44315   2.027   3.779   5.751
10899WAT     H144316   2.030   3.725   5.682
10899WAT     H244317   2.103   3.821   5.748
10899WAT    EPW44318   2.038   3.777   5.740
10900WAT      O44319   1.921   4.016   5.373
10900WAT     H144320   2.000   3.983   5.355
10900WAT     H244321   1.905   4.069   5.306
10900WAT    EPW44322   1.930   4.019   5.361
10901WAT      O44323   1.367   4.103   4.025
10901WAT     H144324   1.443   4.061   4.017
10901WAT     H244325   1.338   4.108   3.943
10901WAT    EPW44326   1.374   4.098   4.012
10902WAT      O44327   0.823   4.245   5.151
10902WAT     H144328   0.830   4.303   5.216
10902WAT     H244329   0.842   4.291   5.080
10902WAT    EPW44330   0.827   4.260   5.150
10903WAT      O44331   0.644   4.079   5.455
10903WAT     H144332   0.559   4.061   5.466
10903WAT     H244333   0.644   4.166   5.441
10903WAT    EPW44334   0.631   4.089   5.454
10904WAT      O44335   1.587   3.167   5.383
10904WAT     H144336   1.655   3.218   5.359
10904WAT     H244337   1.519   3.206   5.345
10904WAT    EPW44338   1.587   3.180   5.374
10905WAT      O44339   1.124   3.878   5.037
10905WAT     H144340   1.180   3.884   5.103
10905WAT     H244341   1.046   3.888   5.075
10905WAT    EPW44342   1.120   3.881   5.052
10906WAT      O44343   0.765   3.439   5.410
10906WAT     H144344   0.781   3.362   5.447
10906WAT     H244345   0.795   3.428   5.328
10906WAT    EPW44346   0.772   3.426   5.403
10907WAT      O44347   1.040   4.626   4.605
10907WAT     H144348   1.041   4.712   4.623
10907WAT     H244349   1.053   4.623   4.519
10907WAT    EPW44350   1.042   4.638   4.595
10908WAT      O44351   1.645   2.916   5.139
10908WAT     H144352   1.625   2.997   5.114
10908WAT     H244353   1.732   2.917   5.145
10908WAT    EPW44354   1.655   2.928   5.136
10909WAT      O44355   0.937   3.029   5.352
10909WAT     H144356   1.021   3.051   5.341
10909WAT     H244357   0.939   2.942   5.361
10909WAT    EPW44358   0.950   3.020   5.352
10910WAT      O44359   0.882   4.411   4.935
10910WAT     H144360   0.835   4.462   4.882
10910WAT     H244361   0.922   4.357   4.880
10910WAT    EPW44362   0.881   4.411   4.919
10911WAT      O44363   1.284   4.060   5.663
10911WAT     H144364   1.365   4.069   5.631
10911WAT     H244365   1.233   4.078   5.595
10911WAT    EPW44366   1.289   4.064   5.648
10912WAT      O44367   1.617   4.346   5.537
10912WAT     H144368   1.652   4.372   5.612
10912WAT     H244369   1.660   4.392   5.477
10912WAT    EPW44370   1.628   4.357   5.539
10913WAT      O44371   0.983   3.888   3.981
10913WAT     H144372   0.910   3.857   3.945
10913WAT     H244373   0.967   3.974   3.988
10913WAT    EPW44374   0.970   3.896   3.977
10914WAT      O44375   0.647   3.444   4.954
10914WAT     H144376   0.687   3.422   4.879
10914WAT     H244377   0.707   3.426   5.015
10914WAT    EPW44378   0.662   3.438   4.952
10915WAT      O44379   1.355   3.504   5.499
10915WAT     H144380   1.282   3.549   5.508
10915WAT     H244381   1.397   3.516   5.574
10915WAT    EPW44382   1.351   3.512   5.511
10916WAT      O44383   1.371   3.546   5.144
10916WAT     H144384   1.397   3.604   5.203
10916WAT     H244385   1.362   3.472   5.190
10916WAT    EPW44386   1.374   3.543   5.160
10917WAT      O44387   1.122   4.633   5.525
10917WAT     H144388   1.141   4.626   5.440
10917WAT     H244389   1.087   4.555   5.544
10917WAT    EPW44390   1.119   4.621   5.515
10918WAT      O44391   1.619   3.498   4.364
10918WAT     H144392   1.642   3.476   4.446
10918WAT     H244393   1.694   3.530   4.331
10918WAT    EPW44394   1.634   3.500   4.371
10919WAT      O44395   0.926   2.978   4.931
10919WAT     H144396   0.841   2.974   4.950
10919WAT     H244397   0.928   2.986   4.844
10919WAT    EPW44398   0.914   2.978   4.921
10920WAT      O44399   1.742   3.071   4.529
10920WAT     H144400   1.666   3.030   4.543
10920WAT     H244401   1.737   3.096   4.446
10920WAT    EPW44402   1.730   3.069   4.519
10921WAT      O44403   1.727   3.886   4.391
10921WAT     H144404   1.696   3.862   4.469
10921WAT     H244405   1.660   3.870   4.337
10921WAT    EPW44406   1.713   3.880   4.394
10922WAT      O44407   1.116   4.091   5.443
10922WAT     H144408   1.040   4.093   5.487
10922WAT     H244409   1.123   4.173   5.412
10922WAT    EPW44410   1.106   4.103   5.445
10923WAT      O44411   0.649   4.740   4.984
10923WAT     H144412   0.656   4.732   5.070
10923WAT     H244413   0.625   4.660   4.958
10923WAT    EPW44414   0.646   4.727   4.993
10924WAT      O44415   0.539   3.286   4.270
10924WAT     H144416   0.543   3.256   4.189
10924WAT     H244417   0.454   3.281   4.290
10924WAT    EPW44418   0.527   3.281   4.261
10925WAT      O44419   1.412   4.080   4.614
10925WAT     H144420   1.408   4.086   4.701
10925WAT     H244421   1.445   4.000   4.601
10925WAT    EPW44422   1.416   4.069   4.625
10926WAT      O44423   1.160   3.994   4.526
10926WAT     H144424   1.118   3.983   4.602
10926WAT     H244425   1.237   4.025   4.551
10926WAT    EPW44426   1.165   3.997   4.541
10927WAT      O44427   1.149   4.353   5.351
10927WAT     H144428   1.200   4.365   5.420
10927WAT     H244429   1.204   4.355   5.283
10927WAT    EPW44430   1.164   4.355   5.351
10928WAT      O44431   1.985   3.611   5.535
10928WAT     H144432   1.899   3.607   5.552
10928WAT     H244433   1.989   3.644   5.455
10928WAT    EPW44434   1.973   3.615   5.526
10929WAT      O44435   1.441   3.728   5.344
10929WAT     H144436   1.429   3.669   5.408
10929WAT     H244437   1.513   3.770   5.369
10929WAT    EPW44438   1.450   3.725   5.357
10930WAT      O44439   0.379   4.691   5.561
10930WAT     H144440   0.320   4.726   5.616
10930WAT     H244441   0.442   4.751   5.558
10930WAT    EPW44442   0.379   4.705   5.569
10931WAT      O44443   1.219   3.817   5.775
10931WAT     H144444   1.243   3.893   5.739
10931WAT     H244445   1.139   3.834   5.806
10931WAT    EPW44446   1.210   3.831   5.774
10932WAT      O44447   1.514   4.724   4.852
10932WAT     H144448   1.454   4.784   4.872
10932WAT     H244449   1.577   4.736   4.911
10932WAT    EPW44450   1.515   4.734   4.864
10933WAT      O44451   1.151   4.162   5.013
10933WAT     H144452   1.129   4.078   5.028
10933WAT     H244453   1.157   4.196   5.093
10933WAT    EPW44454   1.148   4.154   5.027
10934WAT      O44455   1.747   4.428   5.768
10934WAT     H144456   1.830   4.402   5.768
10934WAT     H244457   1.713   4.387   5.838
10934WAT    EPW44458   1.754   4.418   5.779
10935WAT      O44459   0.519   3.567   5.386
10935WAT     H144460   0.527   3.623   5.320
10935WAT     H244461   0.597   3.528   5.389
10935WAT    EPW44462   0.532   3.569   5.377
10936WAT      O44463   0.373   3.354   5.282
10936WAT     H144464   0.362   3.379   5.199
10936WAT     H244465   0.412   3.423   5.319
10936WAT    EPW44466   0.377   3.368   5.275
10937WAT      O44467   1.846   3.649   4.300
10937WAT     H144468   1.820   3.724   4.336
10937WAT     H244469   1.922   3.633   4.339
10937WAT    EPW44470   1.853   3.658   4.311
10938WAT      O44471   0.595   3.022   5.529
10938WAT     H144472   0.650   2.954   5.520
10938WAT     H244473   0.574   3.042   5.446
10938WAT    EPW44474   0.600   3.015   5.515
10939WAT      O44475   1.252   4.346   4.423
10939WAT     H144476   1.231   4.427   4.398
10939WAT     H244477   1.179   4.301   4.407
10939WAT    EPW44478   1.238   4.352   4.417
10940WAT      O44479   1.808   3.650   5.302
10940WAT     H144480   1.797   3.564   5.296
10940WAT     H244481   1.762   3.672   5.373
10940WAT    EPW44482   1.799   3.641   5.311
10941WAT      O44483   0.222   3.918   5.268
10941WAT     H144484   0.271   3.930   5.197
10941WAT     H244485   0.141   3.926   5.239
10941WAT    EPW44486   0.217   3.921   5.253
10942WAT      O44487   0.421   3.479   3.905
10942WAT     H144488   0.335   3.488   3.912
10942WAT     H244489   0.431   3.403   3.865
10942WAT    EPW44490   0.410   3.469   3.900
10943WAT      O44491   1.276   3.115   5.618
10943WAT     H144492   1.304   3.181   5.668
10943WAT     H244493   1.195   3.100   5.647
10943WAT    EPW44494   1.268   3.122   5.630
10944WAT      O44495   1.280   3.173   4.699
10944WAT     H144496   1.203   3.214   4.700
10944WAT     H244497   1.272   3.116   4.633
10944WAT    EPW44498   1.267   3.170   4.690
10945WAT      O44499   0.738   4.362   4.094
10945WAT     H144500   0.767   4.364   4.176
10945WAT     H244501   0.657   4.330   4.102
10945WAT    EPW44502   0.730   4.357   4.107
10946WAT      O44503   1.609   3.167   5.016
10946WAT     H144504   1.695   3.166   5.000
10946WAT     H244505   1.588   3.252   5.011
10946WAT    EPW44506   1.618   3.179   5.013
10947WAT      O44507   0.754   3.843   5.360
10947WAT     H144508   0.717   3.914   5.395
10947WAT     H244509   0.692   3.812   5.307
10947WAT    EPW44510   0.739   3.849   5.357
10948WAT      O44511   1.672   4.537   4.485
10948WAT     H144512   1.646   4.463   4.524
10948WAT     H244513   1.714   4.510   4.414
10948WAT    EPW44514   1.675   4.522   4.480
10949WAT      O44515   0.491   4.239   4.128
10949WAT     H144516   0.462   4.230   4.210
10949WAT     H244517   0.505   4.157   4.103
10949WAT    EPW44518   0.489   4.226   4.137
10950WAT      O44519   0.809   4.122   3.966
10950WAT     H144520   0.735   4.080   3.986
10950WAT     H244521   0.801   4.199   4.005
10950WAT    EPW44522   0.797   4.127   3.975
10951WAT      O44523   0.758   3.139   5.167
10951WAT     H144524   0.677   3.122   5.197
10951WAT     H244525   0.809   3.090   5.218
10951WAT    EPW44526   0.753   3.129   5.179
10952WAT      O44527   1.922   2.961   5.211
10952WAT     H144528   1.905   2.957   5.296
10952WAT     H244529   2.008   2.948   5.206
10952WAT    EPW44530   1.932   2.959   5.223
10953WAT      O44531   1.133   3.159   5.011
10953WAT     H144532   1.070   3.101   4.993
10953WAT     H244533   1.206   3.113   4.998
10953WAT    EPW44534   1.134   3.144   5.006
10954WAT      O44535   1.352   4.338   5.158
10954WAT     H144536   1.397   4.406   5.188
10954WAT     H244537   1.348   4.353   5.072
10954WAT    EPW44538   1.358   4.350   5.150
10955WAT      O44539   1.395   4.701   5.592
10955WAT     H144540   1.323   4.664   5.559
10955WAT     H244541   1.370   4.783   5.607
10955WAT    EPW44542   1.381   4.707   5.589
10956WAT      O44543   0.872   3.658   5.542
10956WAT     H144544   0.842   3.587   5.502
10956WAT     H244545   0.838   3.723   5.496
10956WAT    EPW44546   0.863   3.657   5.529
10957WAT      O44547   0.995   3.007   4.041
10957WAT     H144548   1.007   3.014   3.954
10957WAT     H244549   0.908   3.009   4.049
10957WAT    EPW44550   0.984   3.008   4.029
10958WAT      O44551   1.884   4.129   5.118
10958WAT     H144552   1.869   4.044   5.102
10958WAT     H244553   1.818   4.169   5.079
10958WAT    EPW44554   1.872   4.122   5.110
10959WAT      O44555   0.779   4.641   5.539
10959WAT     H144556   0.774   4.625   5.625
10959WAT     H244557   0.841   4.587   5.512
10959WAT    EPW44558   0.787   4.631   5.548
10960WAT      O44559   1.826   4.456   5.111
10960WAT     H144560   1.874   4.485   5.045
10960WAT     H244561   1.767   4.405   5.073
10960WAT    EPW44562   1.824   4.453   5.096
10961WAT      O44563   0.504   3.111   5.287
10961WAT     H144564   0.444   3.050   5.269
10961WAT     H244565   0.459   3.186   5.280
10961WAT    EPW44566   0.488   3.113   5.283
10962WAT      O44567   1.378   3.037   4.927
10962WAT     H144568   1.446   3.085   4.954
10962WAT     H244569   1.354   3.076   4.853
10962WAT    EPW44570   1.384   3.050   4.920
10963WAT      O44571   0.519   4.476   5.665
10963WAT     H144572   0.584   4.512   5.711
10963WAT     H244573   0.476   4.544   5.633
10963WAT    EPW44574   0.523   4.491   5.667
10964WAT      O44575   1.340   3.615   4.672
10964WAT     H144576   1.388   3.542   4.681
10964WAT     H244577   1.305   3.626   4.751
10964WAT    EPW44578   1.342   3.606   4.685
10965WAT      O44579   0.365   3.389   4.612
10965WAT     H144580   0.319   3.362   4.680
10965WAT     H244581   0.434   3.336   4.611
10965WAT    EPW44582   0.368   3.378   4.622
10966WAT      O44583   0.378   4.319   5.370
10966WAT     H144584   0.336   4.371   5.428
10966WAT     H244585   0.462   4.332   5.389
10966WAT    EPW44586   0.384   4.329   5.382
10967WAT      O44587   1.513   3.739   4.275
10967WAT     H144588   1.528   3.658   4.304
10967WAT     H244589   1.436   3.732   4.234
10967WAT    EPW44590   1.504   3.726   4.273
10968WAT      O44591   0.502   4.612   4.256
10968WAT     H144592   0.472   4.581   4.181
10968WAT     H244593   0.589   4.605   4.248
10968WAT    EPW44594   0.511   4.607   4.244
10969WAT      O44595   0.895   3.820   4.235
10969WAT     H144596   0.923   3.847   4.157
10969WAT     H244597   0.968   3.803   4.279
10969WAT    EPW44598   0.910   3.821   4.230
10970WAT      O44599   1.807   4.644   3.967
10970WAT     H144600   1.877   4.636   4.018
10970WAT     H244601   1.798   4.565   3.930
10970WAT    EPW44602   1.816   4.631   3.969
10971WAT      O44603   1.826   3.931   5.631
10971WAT     H144604   1.895   3.899   5.675
10971WAT     H244605   1.863   3.971   5.563
10971WAT    EPW44606   1.842   3.932   5.627
10972WAT      O44607   1.444   4.300   4.214
10972WAT     H144608   1.394   4.297   4.286
10972WAT     H244609   1.405   4.244   4.160
10972WAT    EPW44610   1.431   4.291   4.217
10973WAT      O44611   1.852   3.376   5.728
10973WAT     H144612   1.845   3.451   5.772
10973WAT     H244613   1.770   3.358   5.704
10973WAT    EPW44614   1.839   3.384   5.731
10974WAT      O44615   1.941   3.411   5.107
10974WAT     H144616   1.901   3.464   5.050
10974WAT     H244617   1.916   3.331   5.081
10974WAT    EPW44618   1.932   3.407   5.095
10975WAT      O44619   0.818   3.189   5.540
10975WAT     H144620   0.859   3.153   5.472
10975WAT     H244621   0.742   3.145   5.543
10975WAT    EPW44622   0.812   3.177   5.531
10976WAT      O44623   1.594   3.979   5.851
10976WAT     H144624   1.668   4.009   5.887
10976WAT     H244625   1.600   4.003   5.767
10976WAT    EPW44626   1.606   3.987   5.844
10977WAT      O44627   0.503   4.495   4.901
10977WAT     H144628   0.501   4.415   4.866
10977WAT     H244629   0.461   4.544   4.842
10977WAT    EPW44630   0.496   4.490   4.887
10978WAT      O44631   1.104   4.146   4.112
10978WAT     H144632   1.185   4.122   4.090
10978WAT     H244633   1.090   4.217   4.063
10978WAT    EPW44634   1.114   4.153   4.101
10979WAT      O44635   0.329   4.743   5.286
10979WAT     H144636   0.331   4.715   5.368
10979WAT     H244637   0.357   4.674   5.239
10979WAT    EPW44638   0.333   4.729   5.291
10980WAT      O44639   1.276   2.984   2.587
10980WAT     H144640   1.280   3.027   2.512
10980WAT     H244641   1.359   2.963   2.603
10980WAT    EPW44642   1.289   2.987   2.578
10981WAT      O44643   1.223   3.616   3.039
10981WAT     H144644   1.189   3.692   3.066
10981WAT     H244645   1.280   3.597   3.102
10981WAT    EPW44646   1.227   3.624   3.053
10982WAT      O44647   1.848   4.456   2.346
10982WAT     H144648   1.907   4.397   2.373
10982WAT     H244649   1.797   4.410   2.292
10982WAT    EPW44650   1.849   4.440   2.342
10983WAT      O44651   0.566   3.986   2.129
10983WAT     H144652   0.506   3.973   2.068
10983WAT     H244653   0.541   3.935   2.194
10983WAT    EPW44654   0.554   3.977   2.129
10984WAT      O44655   1.483   3.800   2.692
10984WAT     H144656   1.492   3.789   2.605
10984WAT     H244657   1.428   3.737   2.715
10984WAT    EPW44658   1.477   3.789   2.682
10985WAT      O44659   0.388   4.230   2.488
10985WAT     H144660   0.445   4.185   2.537
10985WAT     H244661   0.313   4.188   2.499
10985WAT    EPW44662   0.385   4.217   2.497
10986WAT      O44663   0.945   3.110   2.471
10986WAT     H144664   0.931   3.181   2.423
10986WAT     H244665   1.023   3.081   2.443
10986WAT    EPW44666   0.954   3.116   2.460
10987WAT      O44667   0.405   4.481   2.123
10987WAT     H144668   0.429   4.474   2.040
10987WAT     H244669   0.418   4.401   2.155
10987WAT    EPW44670   0.410   4.468   2.116
10988WAT      O44671   0.880   4.133   3.697
10988WAT     H144672   0.863   4.125   3.783
10988WAT     H244673   0.806   4.107   3.659
10988WAT    EPW44674   0.867   4.128   3.704
10989WAT      O44675   0.422   3.810   2.612
10989WAT     H144676   0.353   3.761   2.589
10989WAT     H244677   0.474   3.753   2.653
10989WAT    EPW44678   0.419   3.794   2.615
10990WAT      O44679   0.834   3.395   3.244
10990WAT     H144680   0.901   3.405   3.189
10990WAT     H244681   0.821   3.309   3.245
10990WAT    EPW44682   0.842   3.384   3.236
10991WAT      O44683   0.878   4.466   3.424
10991WAT     H144684   0.893   4.517   3.355
10991WAT     H244685   0.957   4.432   3.441
10991WAT    EPW44686   0.892   4.469   3.416
10992WAT      O44687   0.544   3.604   2.754
10992WAT     H144688   0.619   3.559   2.755
10992WAT     H244689   0.483   3.543   2.747
10992WAT    EPW44690   0.546   3.588   2.753
10993WAT      O44691   0.973   4.245   2.849
10993WAT     H144692   1.001   4.164   2.865
10993WAT     H244693   1.046   4.291   2.837
10993WAT    EPW44694   0.988   4.240   2.850
10994WAT      O44695   1.023   4.179   2.479
10994WAT     H144696   1.063   4.117   2.525
10994WAT     H244697   1.046   4.161   2.397
10994WAT    EPW44698   1.032   4.167   2.474
10995WAT      O44699   1.153   3.665   3.640
10995WAT     H144700   1.066   3.663   3.633
10995WAT     H244701   1.168   3.715   3.710
10995WAT    EPW44702   1.143   3.672   3.649
10996WAT      O44703   0.665   3.077   2.509
10996WAT     H144704   0.631   3.142   2.462
10996WAT     H244705   0.750   3.082   2.492
10996WAT    EPW44706   0.673   3.087   2.499
10997WAT      O44707   1.650   2.915   3.544
10997WAT     H144708   1.619   2.978   3.491
10997WAT     H244709   1.579   2.887   3.586
10997WAT    EPW44710   1.635   2.920   3.542
10998WAT      O44711   0.959   3.053   2.748
10998WAT     H144712   0.974   3.135   2.776
10998WAT     H244713   0.944   3.063   2.663
10998WAT    EPW44714   0.959   3.067   2.740
10999WAT      O44715   1.398   3.307   1.980
10999WAT     H144716   1.348   3.371   2.010
10999WAT     H244717   1.409   3.256   2.050
10999WAT    EPW44718   1.392   3.309   1.995
11000WAT      O44719   0.807   4.357   2.472
11000WAT     H144720   0.765   4.337   2.546
11000WAT     H244721   0.879   4.308   2.476
11000WAT    EPW44722   0.811   4.346   2.484
11001WAT      O44723   1.392   4.572   2.261
11001WAT     H144724   1.463   4.622   2.267
11001WAT     H244725   1.421   4.492   2.281
11001WAT    EPW44726   1.407   4.568   2.265
11002WAT      O44727   1.197   4.604   2.451
11002WAT     H144728   1.220   4.675   2.496
11002WAT     H244729   1.259   4.596   2.391
11002WAT    EPW44730   1.209   4.613   2.449
11003WAT      O44731   0.461   3.059   2.952
11003WAT     H144732   0.421   2.988   2.921
11003WAT     H244733   0.521   3.026   3.007
11003WAT    EPW44734   0.464   3.043   2.955
11004WAT      O44735   0.831   3.296   3.910
11004WAT     H144736   0.835   3.266   3.828
11004WAT     H244737   0.866   3.376   3.904
11004WAT    EPW44738   0.837   3.304   3.897
11005WAT      O44739   0.339   4.498   2.565
11005WAT     H144740   0.356   4.413   2.553
11005WAT     H244741   0.375   4.536   2.495
11005WAT    EPW44742   0.347   4.491   2.553
11006WAT      O44743   1.943   3.266   2.705
11006WAT     H144744   1.894   3.338   2.711
11006WAT     H244745   1.885   3.202   2.695
11006WAT    EPW44746   1.927   3.267   2.705
11007WAT      O44747   1.425   4.567   3.286
11007WAT     H144748   1.484   4.631   3.283
11007WAT     H244749   1.407   4.551   3.202
11007WAT    EPW44750   1.431   4.574   3.273
11008WAT      O44751   0.434   3.224   3.767
11008WAT     H144752   0.368   3.238   3.712
11008WAT     H244753   0.485   3.168   3.724
11008WAT    EPW44754   0.432   3.218   3.753
11009WAT      O44755   0.492   4.238   2.891
11009WAT     H144756   0.554   4.241   2.829
11009WAT     H244757   0.533   4.202   2.959
11009WAT    EPW44758   0.507   4.233   2.892
11010WAT      O44759   0.775   4.570   2.806
11010WAT     H144760   0.854   4.589   2.774
11010WAT     H244761   0.721   4.617   2.755
11010WAT    EPW44762   0.779   4.580   2.794
11011WAT      O44763   1.036   3.015   3.768
11011WAT     H144764   1.058   2.940   3.730
11011WAT     H244765   0.974   3.047   3.715
11011WAT    EPW44766   1.030   3.009   3.754
11012WAT      O44767   1.124   3.524   2.613
11012WAT     H144768   1.153   3.486   2.540
11012WAT     H244769   1.197   3.539   2.658
11012WAT    EPW44770   1.139   3.521   2.609
11013WAT      O44771   1.221   3.501   2.101
11013WAT     H144772   1.246   3.580   2.130
11013WAT     H244773   1.143   3.515   2.066
11013WAT    EPW44774   1.214   3.515   2.100
11014WAT      O44775   1.602   4.761   2.242
11014WAT     H144776   1.652   4.738   2.175
11014WAT     H244777   1.657   4.806   2.293
11014WAT    EPW44778   1.618   4.765   2.240
11015WAT      O44779   0.659   4.680   3.366
11015WAT     H144780   0.696   4.645   3.437
11015WAT     H244781   0.595   4.623   3.347
11015WAT    EPW44782   0.655   4.666   3.374
11016WAT      O44783   1.863   3.173   3.106
11016WAT     H144784   1.931   3.167   3.051
11016WAT     H244785   1.883   3.116   3.169
11016WAT    EPW44786   1.876   3.163   3.107
11017WAT      O44787   1.345   4.371   3.624
11017WAT     H144788   1.333   4.389   3.708
11017WAT     H244789   1.431   4.366   3.615
11017WAT    EPW44790   1.356   4.373   3.635
11018WAT      O44791   1.086   4.391   2.069
11018WAT     H144792   1.055   4.452   2.123
11018WAT     H244793   1.164   4.422   2.046
11018WAT    EPW44794   1.093   4.405   2.073
11019WAT      O44795   1.429   3.136   2.199
11019WAT     H144796   1.482   3.067   2.207
11019WAT     H244797   1.446   3.182   2.271
11019WAT    EPW44798   1.440   3.132   2.211
11020WAT      O44799   0.274   3.296   2.457
11020WAT     H144800   0.205   3.243   2.463
11020WAT     H244801   0.292   3.316   2.541
11020WAT    EPW44802   0.266   3.291   2.471
11021WAT      O44803   0.448   4.519   3.276
11021WAT     H144804   0.418   4.443   3.308
11021WAT     H244805   0.456   4.503   3.191
11021WAT    EPW44806   0.445   4.505   3.269
11022WAT      O44807   1.187   3.406   2.364
11022WAT     H144808   1.111   3.364   2.351
11022WAT     H244809   1.205   3.440   2.286
11022WAT    EPW44810   1.178   3.404   2.351
11023WAT      O44811   1.186   4.679   3.364
11023WAT     H144812   1.262   4.642   3.340
11023WAT     H244813   1.131   4.654   3.301
11023WAT    EPW44814   1.189   4.670   3.351
11024WAT      O44815   1.191   3.063   2.326
11024WAT     H144816   1.132   3.049   2.263
11024WAT     H244817   1.262   3.088   2.282
11024WAT    EPW44818   1.193   3.065   2.310
11025WAT      O44819   1.890   4.673   2.630
11025WAT     H144820   1.853   4.750   2.651
11025WAT     H244821   1.822   4.622   2.613
11025WAT    EPW44822   1.874   4.677   2.630
11026WAT      O44823   1.018   3.330   2.786
11026WAT     H144824   1.044   3.395   2.733
11026WAT     H244825   1.024   3.364   2.866
11026WAT    EPW44826   1.023   3.344   2.790
11027WAT      O44827   1.556   4.259   2.565
11027WAT     H144828   1.630   4.214   2.576
11027WAT     H244829   1.498   4.216   2.614
11027WAT    EPW44830   1.558   4.246   2.574
11028WAT      O44831   0.641   4.354   3.543
11028WAT     H144832   0.714   4.395   3.518
11028WAT     H244833   0.621   4.392   3.619
11028WAT    EPW44834   0.649   4.366   3.551
11029WAT      O44835   0.600   2.846   2.659
11029WAT     H144836   0.621   2.909   2.601
11029WAT     H244837   0.551   2.791   2.612
11029WAT    EPW44838   0.596   2.848   2.643
11030WAT      O44839   0.788   3.938   3.003
11030WAT     H144840   0.821   3.937   3.084
11030WAT     H244841   0.742   3.864   2.998
11030WAT    EPW44842   0.786   3.927   3.014
11031WAT      O44843   1.360   3.309   3.383
11031WAT     H144844   1.358   3.353   3.458
11031WAT     H244845   1.294   3.251   3.391
11031WAT    EPW44846   1.350   3.307   3.395
11032WAT      O44847   0.897   3.970   3.253
11032WAT     H144848   0.883   4.055   3.265
11032WAT     H244849   0.860   3.933   3.323
11032WAT    EPW44850   0.890   3.977   3.265
11033WAT      O44851   1.522   4.023   3.239
11033WAT     H144852   1.445   4.001   3.275
11033WAT     H244853   1.532   4.106   3.262
11033WAT    EPW44854   1.512   4.032   3.248
11034WAT      O44855   1.531   2.898   2.671
11034WAT     H144856   1.530   2.884   2.757
11034WAT     H244857   1.566   2.824   2.639
11034WAT    EPW44858   1.536   2.885   2.679
11035WAT      O44859   1.742   3.354   3.461
11035WAT     H144860   1.827   3.337   3.470
11035WAT     H244861   1.711   3.349   3.542
11035WAT    EPW44862   1.750   3.351   3.474
11036WAT      O44863   0.570   3.207   2.739
11036WAT     H144864   0.597   3.152   2.677
11036WAT     H244865   0.543   3.154   2.802
11036WAT    EPW44866   0.570   3.191   2.739
11037WAT      O44867   1.812   4.057   2.197
11037WAT     H144868   1.810   4.008   2.270
11037WAT     H244869   1.897   4.068   2.182
11037WAT    EPW44870   1.824   4.051   2.206
11038WAT      O44871   0.546   4.058   2.628
11038WAT     H144872   0.627   4.051   2.596
11038WAT     H244873   0.514   3.977   2.618
11038WAT    EPW44874   0.554   4.045   2.621
11039WAT      O44875   0.389   4.655   2.800
11039WAT     H144876   0.342   4.604   2.748
11039WAT     H244877   0.459   4.675   2.752
11039WAT    EPW44878   0.393   4.650   2.785
11040WAT      O44879   0.371   3.457   3.123
11040WAT     H144880   0.455   3.448   3.102
11040WAT     H244881   0.357   3.543   3.116
11040WAT    EPW44882   0.382   3.468   3.119
11041WAT      O44883   2.062   4.475   3.630
11041WAT     H144884   1.988   4.482   3.585
11041WAT     H244885   2.045   4.413   3.689
11041WAT    EPW44886   2.049   4.467   3.632
11042WAT      O44887   1.618   3.716   2.134
11042WAT     H144888   1.612   3.798   2.104
11042WAT     H244889   1.587   3.722   2.216
11042WAT    EPW44890   1.612   3.729   2.142
11043WAT      O44891   0.791   4.015   2.505
11043WAT     H144892   0.857   4.071   2.496
11043WAT     H244893   0.810   3.951   2.450
11043WAT    EPW44894   0.803   4.014   2.496
11044WAT      O44895   1.939   3.191   2.150
11044WAT     H144896   1.982   3.126   2.111
11044WAT     H244897   1.911   3.240   2.083
11044WAT    EPW44898   1.941   3.189   2.134
11045WAT      O44899   0.948   3.548   3.902
11045WAT     H144900   0.901   3.577   3.969
11045WAT     H244901   0.919   3.595   3.834
11045WAT    EPW44902   0.937   3.559   3.902
11046WAT      O44903   2.010   3.634   3.355
11046WAT     H144904   2.024   3.573   3.294
11046WAT     H244905   1.924   3.649   3.349
11046WAT    EPW44906   1.999   3.627   3.345
11047WAT      O44907   1.794   3.073   2.362
11047WAT     H144908   1.867   3.032   2.384
11047WAT     H244909   1.819   3.127   2.299
11047WAT    EPW44910   1.808   3.075   2.356
11048WAT      O44911   1.186   4.419   2.818
11048WAT     H144912   1.140   4.490   2.796
11048WAT     H244913   1.218   4.391   2.742
11048WAT    EPW44914   1.184   4.425   2.803
11049WAT      O44915   0.611   4.121   3.111
11049WAT     H144916   0.664   4.165   3.164
11049WAT     H244917   0.664   4.066   3.069
11049WAT    EPW44918   0.626   4.119   3.113
11050WAT      O44919   1.488   3.343   2.814
11050WAT     H144920   1.521   3.303   2.884
11050WAT     H244921   1.424   3.291   2.788
11050WAT    EPW44922   1.484   3.330   2.821
11051WAT      O44923   0.365   3.972   2.874
11051WAT     H144924   0.375   3.932   2.797
11051WAT     H244925   0.398   4.052   2.860
11051WAT    EPW44926   0.371   3.978   2.860
11052WAT      O44927   0.926   3.318   2.289
11052WAT     H144928   0.914   3.290   2.207
11052WAT     H244929   0.888   3.397   2.289
11052WAT    EPW44930   0.919   3.325   2.277
11053WAT      O44931   1.815   4.499   3.492
11053WAT     H144932   1.767   4.567   3.519
11053WAT     H244933   1.812   4.506   3.405
11053WAT    EPW44934   1.807   4.510   3.483
11054WAT      O44935   0.722   4.309   2.734
11054WAT     H144936   0.729   4.393   2.758
11054WAT     H244937   0.795   4.272   2.764
11054WAT    EPW44938   0.734   4.316   2.742
11055WAT      O44939   0.525   3.685   3.743
11055WAT     H144940   0.495   3.620   3.792
11055WAT     H244941   0.520   3.654   3.662
11055WAT    EPW44942   0.520   3.671   3.738
11056WAT      O44943   0.533   3.543   2.259
11056WAT     H144944   0.534   3.468   2.304
11056WAT     H244945   0.501   3.521   2.182
11056WAT    EPW44946   0.528   3.529   2.255
11057WAT      O44947   0.629   3.710   3.006
11057WAT     H144948   0.589   3.709   2.929
11057WAT     H244949   0.646   3.626   3.022
11057WAT    EPW44950   0.626   3.698   2.997
11058WAT      O44951   0.557   3.756   3.275
11058WAT     H144952   0.590   3.735   3.197
11058WAT     H244953   0.497   3.816   3.257
11058WAT    EPW44954   0.553   3.762   3.261
11059WAT      O44955   1.628   3.489   3.091
11059WAT     H144956   1.561   3.516   3.141
11059WAT     H244957   1.626   3.544   3.023
11059WAT    EPW44958   1.618   3.501   3.088
11060WAT      O44959   0.969   4.614   3.199
11060WAT     H144960   0.951   4.548   3.146
11060WAT     H244961   0.956   4.685   3.150
11060WAT    EPW44962   0.965   4.615   3.184
11061WAT      O44963   1.205   3.080   3.450
11061WAT     H144964   1.226   3.000   3.421
11061WAT     H244965   1.240   3.082   3.530
11061WAT    EPW44966   1.213   3.068   3.458
11062WAT      O44967   1.432   3.282   2.431
11062WAT     H144968   1.488   3.347   2.444
11062WAT     H244969   1.356   3.323   2.418
11062WAT    EPW44970   1.429   3.297   2.431
11063WAT      O44971   0.399   3.924   3.817
11063WAT     H144972   0.379   3.969   3.745
11063WAT     H244973   0.431   3.849   3.787
11063WAT    EPW44974   0.401   3.919   3.802
11064WAT      O44975   1.562   4.073   3.684
11064WAT     H144976   1.586   4.154   3.663
11064WAT     H244977   1.594   4.024   3.618
11064WAT    EPW44978   1.570   4.078   3.671
11065WAT      O44979   0.962   4.404   3.717
11065WAT     H144980   0.993   4.401   3.799
11065WAT     H244981   0.935   4.323   3.702
11065WAT    EPW44982   0.963   4.392   3.727
11066WAT      O44983   1.032   3.413   3.048
11066WAT     H144984   1.094   3.473   3.054
11066WAT     H244985   1.071   3.341   3.079
11066WAT    EPW44986   1.047   3.411   3.053
11067WAT      O44987   1.290   3.736   2.243
11067WAT     H144988   1.273   3.796   2.183
11067WAT     H244989   1.230   3.751   2.305
11067WAT    EPW44990   1.279   3.747   2.244
11068WAT      O44991   1.786   4.107   2.600
11068WAT     H144992   1.811   4.076   2.678
11068WAT     H244993   1.784   4.036   2.549
11068WAT    EPW44994   1.789   4.092   2.604
11069WAT      O44995   1.359   4.501   3.025
11069WAT     H144996   1.303   4.470   2.965
11069WAT     H244997   1.407   4.558   2.980
11069WAT    EPW44998   1.358   4.505   3.009
11070WAT      O44999   1.421   4.129   2.993
11070WAT     H145000   1.356   4.172   3.031
11070WAT     H245001   1.454   4.080   3.058
11070WAT    EPW45002   1.416   4.128   3.009
11071WAT      O45003   0.776   4.615   2.379
11071WAT     H145004   0.782   4.542   2.427
11071WAT     H245005   0.848   4.613   2.329
11071WAT    EPW45006   0.788   4.604   2.379
11072WAT      O45007   0.720   2.971   2.173
11072WAT     H145008   0.694   2.944   2.252
11072WAT     H245009   0.668   3.039   2.157
11072WAT    EPW45010   0.708   2.977   2.183
11073WAT      O45011   1.013   4.597   2.240
11073WAT     H145012   1.069   4.602   2.307
11073WAT     H245013   1.019   4.675   2.203
11073WAT    EPW45014   1.022   4.609   2.245
11074WAT      O45015   1.645   3.921   3.462
11074WAT     H145016   1.611   3.955   3.389
11074WAT     H245017   1.730   3.939   3.456
11074WAT    EPW45018   1.652   3.929   3.450
11075WAT      O45019   1.331   4.495   3.891
11075WAT     H145020   1.356   4.521   3.971
11075WAT     H245021   1.356   4.562   3.840
11075WAT    EPW45022   1.339   4.509   3.895
11076WAT      O45023   1.787   3.043   3.753
11076WAT     H145024   1.748   3.008   3.684
11076WAT     H245025   1.783   2.979   3.813
11076WAT    EPW45026   1.781   3.028   3.752
11077WAT      O45027   0.487   3.814   2.330
11077WAT     H145028   0.499   3.729   2.314
11077WAT     H245029   0.474   3.816   2.416
11077WAT    EPW45030   0.487   3.801   2.340
11078WAT      O45031   1.277   3.957   3.361
11078WAT     H145032   1.222   3.987   3.423
11078WAT     H245033   1.309   3.884   3.396
11078WAT    EPW45034   1.273   3.951   3.376
11079WAT      O45035   1.128   3.767   2.470
11079WAT     H145036   1.138   3.833   2.526
11079WAT     H245037   1.117   3.698   2.521
11079WAT    EPW45038   1.128   3.767   2.486
11080WAT      O45039   1.643   4.313   3.047
11080WAT     H145040   1.589   4.263   3.000
11080WAT     H245041   1.716   4.265   3.053
11080WAT    EPW45042   1.646   4.299   3.041
11081WAT      O45043   0.586   3.204   2.105
11081WAT     H145044   0.533   3.207   2.035
11081WAT     H245045   0.659   3.243   2.077
11081WAT    EPW45046   0.589   3.210   2.090
11082WAT      O45047   1.040   3.977   2.891
11082WAT     H145048   0.957   3.958   2.910
11082WAT     H245049   1.084   3.948   2.961
11082WAT    EPW45050   1.035   3.970   2.904
11083WAT      O45051   0.723   4.584   2.013
11083WAT     H145052   0.740   4.518   2.067
11083WAT     H245053   0.721   4.654   2.065
11083WAT    EPW45054   0.726   4.585   2.029
11084WAT      O45055   0.393   3.952   3.154
11084WAT     H145056   0.456   4.013   3.154
11084WAT     H245057   0.372   3.945   3.069
11084WAT    EPW45058   0.399   3.960   3.141
11085WAT      O45059   0.745   3.408   2.801
11085WAT     H145060   0.828   3.384   2.787
11085WAT     H245061   0.699   3.339   2.776
11085WAT    EPW45062   0.751   3.394   2.795
11086WAT      O45063   2.005   4.638   2.211
11086WAT     H145064   2.075   4.593   2.184
11086WAT     H245065   1.959   4.578   2.254
11086WAT    EPW45066   2.009   4.622   2.213
11087WAT      O45067   0.251   3.599   2.546
11087WAT     H145068   0.274   3.538   2.604
11087WAT     H245069   0.239   3.554   2.472
11087WAT    EPW45070   0.253   3.583   2.544
11088WAT      O45071   1.716   3.796   3.129
11088WAT     H145072   1.711   3.746   3.200
11088WAT     H245073   1.687   3.874   3.156
11088WAT    EPW45074   1.711   3.800   3.143
11089WAT      O45075   0.736   3.793   2.008
11089WAT     H145076   0.682   3.847   2.050
11089WAT     H245077   0.685   3.756   1.948
11089WAT    EPW45078   0.720   3.796   2.006
11090WAT      O45079   0.364   4.053   3.567
11090WAT     H145080   0.319   4.004   3.511
11090WAT     H245081   0.355   4.134   3.535
11090WAT    EPW45082   0.356   4.058   3.554
11091WAT      O45083   1.982   3.827   3.019
11091WAT     H145084   1.904   3.801   3.047
11091WAT     H245085   1.986   3.911   3.042
11091WAT    EPW45086   1.971   3.836   3.026
11092WAT      O45087   0.810   3.569   2.251
11092WAT     H145088   0.830   3.648   2.284
11092WAT     H245089   0.723   3.569   2.251
11092WAT    EPW45090   0.800   3.581   2.256
11093WAT      O45091   1.656   3.303   3.730
11093WAT     H145092   1.578   3.310   3.769
11093WAT     H245093   1.678   3.220   3.743
11093WAT    EPW45094   1.647   3.292   3.738
11094WAT      O45095   0.268   3.272   2.940
11094WAT     H145096   0.319   3.202   2.954
11094WAT     H245097   0.289   3.326   3.005
11094WAT    EPW45098   0.279   3.269   2.952
11095WAT      O45099   1.996   4.541   3.043
11095WAT     H145100   2.025   4.528   2.962
11095WAT     H245101   2.043   4.485   3.091
11095WAT    EPW45102   2.007   4.530   3.038
11096WAT      O45103   1.477   3.653   3.809
11096WAT     H145104   1.522   3.658   3.884
11096WAT     H245105   1.405   3.699   3.825
11096WAT    EPW45106   1.473   3.661   3.822
11097WAT      O45107   1.710   3.681   3.646
11097WAT     H145108   1.736   3.762   3.663
11097WAT     H245109   1.638   3.671   3.694
11097WAT    EPW45110   1.703   3.691   3.656
11098WAT      O45111   1.690   4.304   2.183
11098WAT     H145112   1.722   4.224   2.191
11098WAT     H245113   1.611   4.299   2.220
11098WAT    EPW45114   1.683   4.292   2.190
11099WAT      O45115   1.727   3.454   2.725
11099WAT     H145116   1.658   3.408   2.753
11099WAT     H245117   1.723   3.528   2.771
11099WAT    EPW45118   1.716   3.458   2.736
11100WAT      O45119   2.037   3.749   3.828
11100WAT     H145120   2.039   3.695   3.760
11100WAT     H245121   2.117   3.785   3.827
11100WAT    EPW45122   2.049   3.746   3.818
11101WAT      O45123   1.907   4.004   3.432
11101WAT     H145124   1.983   3.963   3.420
11101WAT     H245125   1.902   4.057   3.363
11101WAT    EPW45126   1.917   4.006   3.420
11102WAT      O45127   1.350   4.089   2.134
11102WAT     H145128   1.428   4.051   2.123
11102WAT     H245129   1.320   4.098   2.052
11102WAT    EPW45130   1.357   4.084   2.120
11103WAT      O45131   0.819   4.246   3.251
11103WAT     H145132   0.827   4.302   3.317
11103WAT     H245133   0.834   4.295   3.180
11103WAT    EPW45134   0.822   4.261   3.250
11104WAT      O45135   0.643   4.077   3.559
11104WAT     H145136   0.558   4.058   3.570
11104WAT     H245137   0.643   4.163   3.545
11104WAT    EPW45138   0.630   4.087   3.558
11105WAT      O45139   1.584   3.138   3.380
11105WAT     H145140   1.641   3.202   3.393
11105WAT     H245141   1.507   3.179   3.374
11105WAT    EPW45142   1.581   3.153   3.381
11106WAT      O45143   1.129   3.865   3.140
11106WAT     H145144   1.186   3.887   3.202
11106WAT     H245145   1.052   3.887   3.173
11106WAT    EPW45146   1.126   3.871   3.154
11107WAT      O45147   0.761   3.446   3.507
11107WAT     H145148   0.774   3.370   3.547
11107WAT     H245149   0.791   3.432   3.426
11107WAT    EPW45150   0.768   3.433   3.501
11108WAT      O45151   1.031   4.628   2.708
11108WAT     H145152   1.033   4.714   2.723
11108WAT     H245153   1.055   4.621   2.625
11108WAT    EPW45154   1.035   4.640   2.698
11109WAT      O45155   1.653   2.928   3.199
11109WAT     H145156   1.626   3.002   3.237
11109WAT     H245157   1.738   2.926   3.219
11109WAT    EPW45158   1.662   2.939   3.208
11110WAT      O45159   0.933   3.033   3.471
11110WAT     H145160   1.017   3.051   3.454
11110WAT     H245161   0.932   2.946   3.479
11110WAT    EPW45162   0.945   3.022   3.470
11111WAT      O45163   0.862   4.417   3.034
11111WAT     H145164   0.817   4.468   2.981
11111WAT     H245165   0.902   4.361   2.980
11111WAT    EPW45166   0.861   4.416   3.018
11112WAT      O45167   1.296   4.062   3.759
11112WAT     H145168   1.376   4.070   3.725
11112WAT     H245169   1.243   4.083   3.693
11112WAT    EPW45170   1.300   4.066   3.744
11113WAT      O45171   1.627   4.340   3.634
11113WAT     H145172   1.665   4.361   3.709
11113WAT     H245173   1.679   4.374   3.574
11113WAT    EPW45174   1.640   4.348   3.636
11114WAT      O45175   1.871   3.607   2.106
11114WAT     H145176   1.918   3.665   2.061
11114WAT     H245177   1.791   3.640   2.105
11114WAT    EPW45178   1.866   3.620   2.099
11115WAT      O45179   0.985   3.890   2.082
11115WAT     H145180   0.912   3.859   2.046
11115WAT     H245181   0.971   3.975   2.089
11115WAT    EPW45182   0.972   3.898   2.078
11116WAT      O45183   0.640   3.443   3.056
11116WAT     H145184   0.679   3.421   2.981
11116WAT     H245185   0.701   3.425   3.116
11116WAT    EPW45186   0.655   3.437   3.054
11117WAT      O45187   1.365   3.499   3.593
11117WAT     H145188   1.288   3.537   3.605
11117WAT     H245189   1.408   3.514   3.668
11117WAT    EPW45190   1.360   3.507   3.606
11118WAT      O45191   1.402   3.546   3.238
11118WAT     H145192   1.412   3.605   3.302
11118WAT     H245193   1.385   3.472   3.281
11118WAT    EPW45194   1.401   3.544   3.254
11119WAT      O45195   1.122   4.622   3.628
11119WAT     H145196   1.137   4.620   3.542
11119WAT     H245197   1.085   4.544   3.643
11119WAT    EPW45198   1.119   4.610   3.617
11120WAT      O45199   1.612   3.498   2.475
11120WAT     H145200   1.639   3.482   2.556
11120WAT     H245201   1.684   3.525   2.434
11120WAT    EPW45202   1.626   3.499   2.481
11121WAT      O45203   0.921   2.976   3.030
11121WAT     H145204   0.836   2.973   3.050
11121WAT     H245205   0.921   2.983   2.943
11121WAT    EPW45206   0.908   2.977   3.020
11122WAT      O45207   1.748   3.074   2.639
11122WAT     H145208   1.672   3.036   2.654
11122WAT     H245209   1.747   3.090   2.553
11122WAT    EPW45210   1.737   3.071   2.628
11123WAT      O45211   1.760   3.893   2.421
11123WAT     H145212   1.804   3.818   2.419
11123WAT     H245213   1.676   3.869   2.419
11123WAT    EPW45214   1.754   3.879   2.420
11124WAT      O45215   1.116   4.096   3.548
11124WAT     H145216   1.041   4.091   3.593
11124WAT     H245217   1.117   4.178   3.518
11124WAT    EPW45218   1.105   4.107   3.550
11125WAT      O45219   0.646   4.743   3.083
11125WAT     H145220   0.654   4.737   3.170
11125WAT     H245221   0.623   4.663   3.058
11125WAT    EPW45222   0.644   4.731   3.092
11126WAT      O45223   0.537   3.283   2.367
11126WAT     H145224   0.542   3.254   2.285
11126WAT     H245225   0.453   3.278   2.386
11126WAT    EPW45226   0.526   3.278   2.358
11127WAT      O45227   1.406   4.069   2.720
11127WAT     H145228   1.409   4.089   2.805
11127WAT     H245229   1.438   3.988   2.717
11127WAT    EPW45230   1.411   4.060   2.732
11128WAT      O45231   1.153   3.990   2.635
11128WAT     H145232   1.112   3.981   2.712
11128WAT     H245233   1.231   4.021   2.657
11128WAT    EPW45234   1.158   3.993   2.650
11129WAT      O45235   1.133   4.351   3.441
11129WAT     H145236   1.204   4.366   3.491
11129WAT     H245237   1.167   4.325   3.365
11129WAT    EPW45238   1.149   4.349   3.437
11130WAT      O45239   1.966   3.568   3.622
11130WAT     H145240   1.884   3.598   3.624
11130WAT     H245241   1.995   3.594   3.544
11130WAT    EPW45242   1.958   3.576   3.611
11131WAT      O45243   1.425   3.735   3.443
11131WAT     H145244   1.410   3.675   3.504
11131WAT     H245245   1.500   3.771   3.468
11131WAT    EPW45246   1.434   3.732   3.456
11132WAT      O45247   0.378   4.693   3.661
11132WAT     H145248   0.322   4.728   3.717
11132WAT     H245249   0.442   4.752   3.657
11132WAT    EPW45250   0.379   4.707   3.669
11133WAT      O45251   1.224   3.818   3.865
11133WAT     H145252   1.250   3.894   3.831
11133WAT     H245253   1.144   3.836   3.895
11133WAT    EPW45254   1.216   3.832   3.864
11134WAT      O45255   1.520   4.702   2.920
11134WAT     H145256   1.484   4.767   2.965
11134WAT     H245257   1.588   4.678   2.969
11134WAT    EPW45258   1.525   4.708   2.934
11135WAT      O45259   1.253   4.217   3.224
11135WAT     H145260   1.253   4.139   3.263
11135WAT     H245261   1.333   4.248   3.243
11135WAT    EPW45262   1.265   4.210   3.233
11136WAT      O45263   1.780   4.385   3.864
11136WAT     H145264   1.849   4.337   3.841
11136WAT     H245265   1.751   4.346   3.936
11136WAT    EPW45266   1.786   4.372   3.871
11137WAT      O45267   0.515   3.571   3.487
11137WAT     H145268   0.522   3.628   3.421
11137WAT     H245269   0.594   3.533   3.490
11137WAT    EPW45270   0.528   3.574   3.478
11138WAT      O45271   0.375   3.354   3.385
11138WAT     H145272   0.360   3.380   3.303
11138WAT     H245273   0.412   3.423   3.422
11138WAT    EPW45274   0.378   3.368   3.378
11139WAT      O45275   1.839   3.628   2.383
11139WAT     H145276   1.859   3.623   2.298
11139WAT     H245277   1.911   3.597   2.423
11139WAT    EPW45278   1.853   3.622   2.377
11140WAT      O45279   0.590   3.024   3.627
11140WAT     H145280   0.647   2.959   3.617
11140WAT     H245281   0.569   3.046   3.545
11140WAT    EPW45282   0.595   3.018   3.613
11141WAT      O45283   1.236   4.345   2.557
11141WAT     H145284   1.226   4.423   2.518
11141WAT     H245285   1.167   4.300   2.528
11141WAT    EPW45286   1.224   4.350   2.547
11142WAT      O45287   1.732   3.630   3.367
11142WAT     H145288   1.725   3.543   3.376
11142WAT     H245289   1.712   3.661   3.446
11142WAT    EPW45290   1.728   3.621   3.380
11143WAT      O45291   0.226   3.913   3.371
11143WAT     H145292   0.273   3.928   3.298
11143WAT     H245293   0.144   3.918   3.343
11143WAT    EPW45294   0.221   3.916   3.356
11144WAT      O45295   0.417   3.475   2.008
11144WAT     H145296   0.330   3.480   2.016
11144WAT     H245297   0.429   3.400   1.965
11144WAT    EPW45298   0.406   3.464   2.003
11145WAT      O45299   1.296   3.104   3.713
11145WAT     H145300   1.326   3.173   3.758
11145WAT     H245301   1.216   3.092   3.747
11145WAT    EPW45302   1.288   3.112   3.725
11146WAT      O45303   1.263   3.182   2.782
11146WAT     H145304   1.187   3.224   2.778
11146WAT     H245305   1.257   3.122   2.720
11146WAT    EPW45306   1.251   3.179   2.772
11147WAT      O45307   0.739   4.360   2.191
11147WAT     H145308   0.769   4.363   2.273
11147WAT     H245309   0.659   4.327   2.200
11147WAT    EPW45310   0.732   4.355   2.204
11148WAT      O45311   1.589   3.221   3.044
11148WAT     H145312   1.669   3.188   3.053
11148WAT     H245313   1.597   3.303   3.073
11148WAT    EPW45314   1.602   3.228   3.050
11149WAT      O45315   0.756   3.845   3.457
11149WAT     H145316   0.719   3.916   3.493
11149WAT     H245317   0.694   3.814   3.405
11149WAT    EPW45318   0.741   3.851   3.455
11150WAT      O45319   1.655   3.677   2.882
11150WAT     H145320   1.674   3.731   2.948
11150WAT     H245321   1.608   3.727   2.828
11150WAT    EPW45322   1.651   3.692   2.884
11151WAT      O45323   1.662   4.524   2.543
11151WAT     H145324   1.624   4.448   2.563
11151WAT     H245325   1.714   4.505   2.476
11151WAT    EPW45326   1.664   4.510   2.536
11152WAT      O45327   0.492   4.240   2.228
11152WAT     H145328   0.464   4.231   2.311
11152WAT     H245329   0.507   4.157   2.203
11152WAT    EPW45330   0.490   4.226   2.237
11153WAT      O45331   0.809   4.124   2.051
11153WAT     H145332   0.736   4.082   2.073
11153WAT     H245333   0.803   4.199   2.095
11153WAT    EPW45334   0.797   4.129   2.061
11154WAT      O45335   0.764   3.133   3.269
11154WAT     H145336   0.683   3.119   3.297
11154WAT     H245337   0.813   3.089   3.326
11154WAT    EPW45338   0.760   3.125   3.281
11155WAT      O45339   1.913   2.990   3.313
11155WAT     H145340   1.889   3.010   3.395
11155WAT     H245341   1.999   2.976   3.320
11155WAT    EPW45342   1.922   2.991   3.326
11156WAT      O45343   1.111   3.162   3.129
11156WAT     H145344   1.050   3.104   3.104
11156WAT     H245345   1.186   3.124   3.107
11156WAT    EPW45346   1.113   3.148   3.122
11157WAT      O45347   1.510   4.301   3.286
11157WAT     H145348   1.489   4.382   3.310
11157WAT     H245349   1.556   4.312   3.212
11157WAT    EPW45350   1.514   4.314   3.278
11158WAT      O45351   1.393   4.689   3.699
11158WAT     H145352   1.322   4.656   3.661
11158WAT     H245353   1.373   4.774   3.710
11158WAT    EPW45354   1.379   4.697   3.695
11159WAT      O45355   0.875   3.660   3.641
11159WAT     H145356   0.843   3.590   3.601
11159WAT     H245357   0.842   3.727   3.596
11159WAT    EPW45358   0.866   3.660   3.629
11160WAT      O45359   0.993   3.005   2.143
11160WAT     H145360   1.005   3.013   2.057
11160WAT     H245361   0.907   3.007   2.152
11160WAT    EPW45362   0.982   3.006   2.132
11161WAT      O45363   0.778   4.644   3.639
11161WAT     H145364   0.775   4.626   3.724
11161WAT     H245365   0.837   4.588   3.609
11161WAT    EPW45366   0.786   4.633   3.647
11162WAT      O45367   1.719   4.582   3.078
11162WAT     H145368   1.805   4.579   3.066
11162WAT     H245369   1.694   4.499   3.065
11162WAT    EPW45370   1.728   4.569   3.074
11163WAT      O45371   0.507   3.112   3.382
11163WAT     H145372   0.447   3.051   3.365
11163WAT     H245373   0.462   3.186   3.378
11163WAT    EPW45374   0.492   3.114   3.379
11164WAT      O45375   1.352   3.069   3.020
11164WAT     H145376   1.421   3.119   3.040
11164WAT     H245377   1.324   3.103   2.945
11164WAT    EPW45378   1.358   3.082   3.012
11165WAT      O45379   0.519   4.477   3.765
11165WAT     H145380   0.584   4.513   3.809
11165WAT     H245381   0.476   4.545   3.732
11165WAT    EPW45382   0.522   4.492   3.766
11166WAT      O45383   1.336   3.580   2.784
11166WAT     H145384   1.389   3.512   2.798
11166WAT     H245385   1.301   3.595   2.862
11166WAT    EPW45386   1.339   3.572   2.797
11167WAT      O45387   0.361   3.387   2.709
11167WAT     H145388   0.317   3.360   2.779
11167WAT     H245389   0.431   3.334   2.707
11167WAT    EPW45390   0.365   3.375   2.719
11168WAT      O45391   0.377   4.318   3.469
11168WAT     H145392   0.335   4.370   3.526
11168WAT     H245393   0.461   4.330   3.489
11168WAT    EPW45394   0.383   4.328   3.481
11169WAT      O45395   1.514   3.749   2.409
11169WAT     H145396   1.531   3.666   2.429
11169WAT     H245397   1.438   3.744   2.365
11169WAT    EPW45398   1.505   3.736   2.405
11170WAT      O45399   0.497   4.608   2.359
11170WAT     H145400   0.466   4.578   2.283
11170WAT     H245401   0.584   4.601   2.350
11170WAT    EPW45402   0.506   4.603   2.346
11171WAT      O45403   0.894   3.819   2.335
11171WAT     H145404   0.924   3.847   2.258
11171WAT     H245405   0.966   3.802   2.380
11171WAT    EPW45406   0.909   3.821   2.330
11172WAT      O45407   1.787   4.695   2.045
11172WAT     H145408   1.858   4.684   2.094
11172WAT     H245409   1.773   4.616   2.011
11172WAT    EPW45410   1.795   4.682   2.047
11173WAT      O45411   1.846   3.917   3.708
11173WAT     H145412   1.916   3.883   3.747
11173WAT     H245413   1.879   3.962   3.641
11173WAT    EPW45414   1.861   3.918   3.704
11174WAT      O45415   1.446   4.304   2.306
11174WAT     H145416   1.458   4.281   2.389
11174WAT     H245417   1.403   4.236   2.272
11174WAT    EPW45418   1.442   4.290   2.313
11175WAT      O45419   1.864   3.439   3.857
11175WAT     H145420   1.911   3.465   3.788
11175WAT     H245421   1.790   3.409   3.821
11175WAT    EPW45422   1.860   3.439   3.841
11176WAT      O45423   1.901   3.447   3.143
11176WAT     H145424   1.818   3.473   3.135
11176WAT     H245425   1.897   3.360   3.138
11176WAT    EPW45426   1.889   3.438   3.141
11177WAT      O45427   0.805   3.202   3.643
11177WAT     H145428   0.851   3.163   3.580
11177WAT     H245429   0.731   3.156   3.646
11177WAT    EPW45430   0.801   3.189   3.634
11178WAT      O45431   1.610   3.980   3.950
11178WAT     H145432   1.687   4.006   3.982
11178WAT     H245433   1.614   4.005   3.866
11178WAT    EPW45434   1.622   3.987   3.942
11179WAT      O45435   0.500   4.498   3.002
11179WAT     H145436   0.499   4.417   2.968
11179WAT     H245437   0.458   4.546   2.942
11179WAT    EPW45438   0.494   4.493   2.988
11180WAT      O45439   1.091   4.149   2.215
11180WAT     H145440   1.172   4.122   2.197
11180WAT     H245441   1.082   4.221   2.167
11180WAT    EPW45442   1.101   4.156   2.205
11181WAT      O45443   0.325   4.745   3.386
11181WAT     H145444   0.328   4.718   3.469
11181WAT     H245445   0.353   4.677   3.340
11181WAT    EPW45446   0.329   4.731   3.392
11182WAT      O45447   1.300   2.988   0.681
11182WAT     H145448   1.324   3.018   0.603
11182WAT     H245449   1.374   2.958   0.716
11182WAT    EPW45450   1.314   2.988   0.675
11183WAT      O45451   1.225   3.615   1.146
11183WAT     H145452   1.190   3.690   1.171
11183WAT     H245453   1.283   3.597   1.208
11183WAT    EPW45454   1.228   3.623   1.158
11184WAT      O45455   1.824   4.456   0.457
11184WAT     H145456   1.887   4.399   0.476
11184WAT     H245457   1.776   4.414   0.398
11184WAT    EPW45458   1.826   4.441   0.451
11185WAT      O45459   0.548   3.997   0.228
11185WAT     H145460   0.514   3.973   0.151
11185WAT     H245461   0.530   3.930   0.280
11185WAT    EPW45462   0.540   3.984   0.224
11186WAT      O45463   1.469   3.813   0.801
11186WAT     H145464   1.483   3.798   0.716
11186WAT     H245465   1.417   3.747   0.824
11186WAT    EPW45466   1.464   3.801   0.791
11187WAT      O45467   0.398   4.229   0.598
11187WAT     H145468   0.445   4.175   0.648
11187WAT     H245469   0.318   4.196   0.603
11187WAT    EPW45470   0.393   4.216   0.606
11188WAT      O45471   0.944   3.091   0.605
11188WAT     H145472   0.941   3.173   0.574
11188WAT     H245473   0.988   3.047   0.544
11188WAT    EPW45474   0.950   3.097   0.592
11189WAT      O45475   0.420   4.497   0.233
11189WAT     H145476   0.432   4.491   0.147
11189WAT     H245477   0.439   4.418   0.263
11189WAT    EPW45478   0.424   4.485   0.225
11190WAT      O45479   0.882   4.146   1.783
11190WAT     H145480   0.867   4.135   1.869
11190WAT     H245481   0.810   4.115   1.745
11190WAT    EPW45482   0.869   4.140   1.790
11191WAT      O45483   0.423   3.782   0.655
11191WAT     H145484   0.347   3.739   0.653
11191WAT     H245485   0.476   3.729   0.700
11191WAT    EPW45486   0.420   3.768   0.662
11192WAT      O45487   0.835   3.406   1.353
11192WAT     H145488   0.903   3.413   1.299
11192WAT     H245489   0.813   3.322   1.348
11192WAT    EPW45490   0.841   3.395   1.344
11193WAT      O45491   0.882   4.453   1.526
11193WAT     H145492   0.898   4.506   1.459
11193WAT     H245493   0.962   4.429   1.552
11193WAT    EPW45494   0.897   4.457   1.520
11194WAT      O45495   0.548   3.594   0.817
11194WAT     H145496   0.621   3.549   0.834
11194WAT     H245497   0.486   3.534   0.823
11194WAT    EPW45498   0.550   3.578   0.821
11195WAT      O45499   0.982   4.255   0.946
11195WAT     H145500   1.006   4.173   0.968
11195WAT     H245501   1.058   4.297   0.941
11195WAT    EPW45502   0.997   4.249   0.949
11196WAT      O45503   1.010   4.199   0.592
11196WAT     H145504   1.045   4.137   0.643
11196WAT     H245505   1.050   4.188   0.515
11196WAT    EPW45506   1.021   4.188   0.588
11197WAT      O45507   1.151   3.656   1.740
11197WAT     H145508   1.064   3.655   1.736
11197WAT     H245509   1.167   3.708   1.809
11197WAT    EPW45510   1.140   3.664   1.750
11198WAT      O45511   0.662   3.095   0.637
11198WAT     H145512   0.626   3.144   0.574
11198WAT     H245513   0.746   3.091   0.614
11198WAT    EPW45514   0.669   3.102   0.624
11199WAT      O45515   1.627   2.898   1.638
11199WAT     H145516   1.604   2.966   1.589
11199WAT     H245517   1.553   2.875   1.679
11199WAT    EPW45518   1.613   2.904   1.637
11200WAT      O45519   0.970   3.057   0.878
11200WAT     H145520   0.981   3.141   0.901
11200WAT     H245521   0.956   3.061   0.792
11200WAT    EPW45522   0.970   3.070   0.869
11201WAT      O45523   0.822   4.408   0.597
11201WAT     H145524   0.772   4.381   0.663
11201WAT     H245525   0.889   4.352   0.598
11201WAT    EPW45526   0.825   4.396   0.607
11202WAT      O45527   1.394   4.543   0.391
11202WAT     H145528   1.458   4.601   0.380
11202WAT     H245529   1.435   4.471   0.418
11202WAT    EPW45530   1.409   4.541   0.394
11203WAT      O45531   1.191   4.610   0.565
11203WAT     H145532   1.220   4.682   0.606
11203WAT     H245533   1.253   4.593   0.507
11203WAT    EPW45534   1.204   4.618   0.563
11204WAT      O45535   0.455   3.051   1.050
11204WAT     H145536   0.419   2.982   1.011
11204WAT     H245537   0.513   3.016   1.105
11204WAT    EPW45538   0.458   3.036   1.053
11205WAT      O45539   0.833   3.297   2.008
11205WAT     H145540   0.844   3.265   1.928
11205WAT     H245541   0.868   3.377   2.004
11205WAT    EPW45542   0.840   3.304   1.996
11206WAT      O45543   0.352   4.500   0.669
11206WAT     H145544   0.372   4.416   0.656
11206WAT     H245545   0.383   4.540   0.598
11206WAT    EPW45546   0.360   4.494   0.657
11207WAT      O45547   1.941   3.267   0.796
11207WAT     H145548   1.892   3.338   0.805
11207WAT     H245549   1.883   3.203   0.783
11207WAT    EPW45550   1.925   3.268   0.795
11208WAT      O45551   1.454   4.591   1.364
11208WAT     H145552   1.522   4.645   1.354
11208WAT     H245553   1.442   4.559   1.283
11208WAT    EPW45554   1.462   4.594   1.350
11209WAT      O45555   0.440   3.227   1.858
11209WAT     H145556   0.383   3.248   1.795
11209WAT     H245557   0.492   3.168   1.820
11209WAT    EPW45558   0.439   3.222   1.843
11210WAT      O45559   0.506   4.266   1.022
11210WAT     H145560   0.564   4.266   0.957
11210WAT     H245561   0.548   4.228   1.087
11210WAT    EPW45562   0.521   4.261   1.022
11211WAT      O45563   0.782   4.570   0.918
11211WAT     H145564   0.862   4.587   0.888
11211WAT     H245565   0.729   4.614   0.865
11211WAT    EPW45566   0.786   4.579   0.906
11212WAT      O45567   1.029   3.024   1.871
11212WAT     H145568   1.043   2.951   1.825
11212WAT     H245569   0.965   3.064   1.827
11212WAT    EPW45570   1.022   3.019   1.858
11213WAT      O45571   1.117   3.545   0.723
11213WAT     H145572   1.146   3.502   0.653
11213WAT     H245573   1.190   3.558   0.770
11213WAT    EPW45574   1.132   3.540   0.720
11214WAT      O45575   1.144   3.569   0.269
11214WAT     H145576   1.181   3.646   0.287
11214WAT     H245577   1.058   3.586   0.276
11214WAT    EPW45578   1.137   3.583   0.273
11215WAT      O45579   1.591   4.742   0.344
11215WAT     H145580   1.634   4.702   0.279
11215WAT     H245581   1.650   4.797   0.377
11215WAT    EPW45582   1.606   4.744   0.339
11216WAT      O45583   0.663   4.676   1.475
11216WAT     H145584   0.699   4.643   1.548
11216WAT     H245585   0.598   4.621   1.457
11216WAT    EPW45586   0.659   4.663   1.483
11217WAT      O45587   1.857   3.201   1.227
11217WAT     H145588   1.920   3.192   1.167
11217WAT     H245589   1.877   3.142   1.288
11217WAT    EPW45590   1.869   3.191   1.227
11218WAT      O45591   1.345   4.382   1.745
11218WAT     H145592   1.338   4.405   1.829
11218WAT     H245593   1.431   4.376   1.732
11218WAT    EPW45594   1.356   4.385   1.755
11219WAT      O45595   1.190   4.434   0.224
11219WAT     H145596   1.126   4.492   0.239
11219WAT     H245597   1.261   4.474   0.256
11219WAT    EPW45598   1.191   4.449   0.231
11220WAT      O45599   1.372   3.055   0.422
11220WAT     H145600   1.438   3.009   0.387
11220WAT     H245601   1.408   3.133   0.438
11220WAT    EPW45602   1.387   3.059   0.419
11221WAT      O45603   0.258   3.292   0.575
11221WAT     H145604   0.189   3.240   0.586
11221WAT     H245605   0.282   3.312   0.656
11221WAT    EPW45606   0.251   3.288   0.588
11222WAT      O45607   0.446   4.521   1.389
11222WAT     H145608   0.415   4.444   1.416
11222WAT     H245609   0.453   4.512   1.303
11222WAT    EPW45610   0.443   4.509   1.380
11223WAT      O45611   1.188   3.411   0.490
11223WAT     H145612   1.116   3.362   0.480
11223WAT     H245613   1.187   3.462   0.419
11223WAT    EPW45614   1.177   3.411   0.478
11224WAT      O45615   1.207   4.647   1.466
11224WAT     H145616   1.286   4.634   1.429
11224WAT     H245617   1.152   4.641   1.398
11224WAT    EPW45618   1.211   4.644   1.450
11225WAT      O45619   1.100   3.051   0.366
11225WAT     H145620   1.077   3.130   0.337
11225WAT     H245621   1.187   3.057   0.374
11225WAT    EPW45622   1.110   3.064   0.363
11226WAT      O45623   1.889   4.685   0.729
11226WAT     H145624   1.848   4.761   0.743
11226WAT     H245625   1.823   4.628   0.718
11226WAT    EPW45626   1.873   4.688   0.729
11227WAT      O45627   1.019   3.340   0.892
11227WAT     H145628   1.042   3.408   0.842
11227WAT     H245629   1.028   3.371   0.973
11227WAT    EPW45630   1.024   3.355   0.897
11228WAT      O45631   1.572   4.251   0.707
11228WAT     H145632   1.639   4.202   0.732
11228WAT     H245633   1.503   4.213   0.745
11228WAT    EPW45634   1.572   4.238   0.716
11229WAT      O45635   0.638   4.353   1.639
11229WAT     H145636   0.712   4.392   1.613
11229WAT     H245637   0.620   4.393   1.715
11229WAT    EPW45638   0.646   4.365   1.647
11230WAT      O45639   0.609   2.842   0.734
11230WAT     H145640   0.626   2.921   0.701
11230WAT     H245641   0.565   2.802   0.670
11230WAT    EPW45642   0.605   2.847   0.719
11231WAT      O45643   0.776   3.953   1.094
11231WAT     H145644   0.804   3.929   1.174
11231WAT     H245645   0.720   3.890   1.072
11231WAT    EPW45646   0.772   3.940   1.103
11232WAT      O45647   1.361   3.310   1.474
11232WAT     H145648   1.359   3.352   1.550
11232WAT     H245649   1.297   3.251   1.480
11232WAT    EPW45650   1.351   3.308   1.486
11233WAT      O45651   0.883   3.942   1.349
11233WAT     H145652   0.885   4.027   1.365
11233WAT     H245653   0.852   3.907   1.423
11233WAT    EPW45654   0.879   3.949   1.362
11234WAT      O45655   1.499   4.029   1.346
11234WAT     H145656   1.425   3.999   1.380
11234WAT     H245657   1.492   4.116   1.355
11234WAT    EPW45658   1.487   4.037   1.352
11235WAT      O45659   1.540   2.898   0.785
11235WAT     H145660   1.543   2.882   0.870
11235WAT     H245661   1.572   2.824   0.750
11235WAT    EPW45662   1.545   2.884   0.792
11236WAT      O45663   1.736   3.362   1.564
11236WAT     H145664   1.820   3.346   1.583
11236WAT     H245665   1.696   3.357   1.641
11236WAT    EPW45666   1.743   3.359   1.578
11237WAT      O45667   0.573   3.221   0.864
11237WAT     H145668   0.602   3.172   0.798
11237WAT     H245669   0.543   3.162   0.921
11237WAT    EPW45670   0.573   3.205   0.863
11238WAT      O45671   1.792   4.084   0.329
11238WAT     H145672   1.786   4.036   0.402
11238WAT     H245673   1.877   4.081   0.311
11238WAT    EPW45674   1.804   4.076   0.337
11239WAT      O45675   0.518   4.026   0.745
11239WAT     H145676   0.603   4.028   0.723
11239WAT     H245677   0.489   3.952   0.711
11239WAT    EPW45678   0.527   4.015   0.737
11240WAT      O45679   0.394   4.666   0.902
11240WAT     H145680   0.345   4.614   0.852
11240WAT     H245681   0.466   4.680   0.855
11240WAT    EPW45682   0.397   4.660   0.888
11241WAT      O45683   0.383   3.459   1.235
11241WAT     H145684   0.467   3.466   1.215
11241WAT     H245685   0.352   3.540   1.223
11241WAT    EPW45686   0.391   3.472   1.230
11242WAT      O45687   2.035   4.488   1.703
11242WAT     H145688   1.959   4.491   1.660
11242WAT     H245689   2.016   4.443   1.775
11242WAT    EPW45690   2.021   4.482   1.707
11243WAT      O45691   1.626   3.692   0.263
11243WAT     H145692   1.548   3.674   0.229
11243WAT     H245693   1.607   3.732   0.338
11243WAT    EPW45694   1.612   3.695   0.269
11244WAT      O45695   0.778   4.021   0.642
11244WAT     H145696   0.835   4.082   0.616
11244WAT     H245697   0.795   3.953   0.590
11244WAT    EPW45698   0.789   4.020   0.631
11245WAT      O45699   1.914   3.239   0.235
11245WAT     H145700   1.939   3.165   0.196
11245WAT     H245701   1.875   3.284   0.171
11245WAT    EPW45702   1.912   3.235   0.220
11246WAT      O45703   0.951   3.548   2.008
11246WAT     H145704   0.902   3.576   2.074
11246WAT     H245705   0.922   3.594   1.940
11246WAT    EPW45706   0.940   3.559   2.008
11247WAT      O45707   2.034   3.624   1.471
11247WAT     H145708   2.076   3.551   1.446
11247WAT     H245709   1.956   3.617   1.432
11247WAT    EPW45710   2.029   3.612   1.461
11248WAT      O45711   1.777   3.082   0.440
11248WAT     H145712   1.853   3.045   0.460
11248WAT     H245713   1.799   3.149   0.389
11248WAT    EPW45714   1.791   3.087   0.436
11249WAT      O45715   1.207   4.419   0.926
11249WAT     H145716   1.160   4.490   0.908
11249WAT     H245717   1.232   4.391   0.848
11249WAT    EPW45718   1.204   4.426   0.912
11250WAT      O45719   0.627   4.136   1.233
11250WAT     H145720   0.688   4.170   1.285
11250WAT     H245721   0.672   4.081   1.182
11250WAT    EPW45722   0.643   4.133   1.233
11251WAT      O45723   1.491   3.356   0.910
11251WAT     H145724   1.522   3.320   0.983
11251WAT     H245725   1.428   3.300   0.885
11251WAT    EPW45726   1.486   3.342   0.917
11252WAT      O45727   0.379   4.016   0.995
11252WAT     H145728   0.421   3.997   0.921
11252WAT     H245729   0.395   4.102   1.006
11252WAT    EPW45730   0.387   4.026   0.986
11253WAT      O45731   0.934   3.303   0.422
11253WAT     H145732   0.875   3.249   0.388
11253WAT     H245733   0.906   3.382   0.400
11253WAT    EPW45734   0.921   3.307   0.414
11254WAT      O45735   1.782   4.515   1.551
11254WAT     H145736   1.739   4.590   1.564
11254WAT     H245737   1.778   4.504   1.465
11254WAT    EPW45738   1.775   4.525   1.540
11255WAT      O45739   0.719   4.313   0.841
11255WAT     H145740   0.732   4.395   0.869
11255WAT     H245741   0.793   4.272   0.862
11255WAT    EPW45742   0.732   4.319   0.848
11256WAT      O45743   0.522   3.684   1.854
11256WAT     H145744   0.492   3.619   1.904
11256WAT     H245745   0.520   3.651   1.773
11256WAT    EPW45746   0.518   3.670   1.849
11257WAT      O45747   0.577   3.513   0.342
11257WAT     H145748   0.561   3.443   0.393
11257WAT     H245749   0.511   3.511   0.285
11257WAT    EPW45750   0.565   3.502   0.341
11258WAT      O45751   0.601   3.747   1.047
11258WAT     H145752   0.575   3.721   0.968
11258WAT     H245753   0.625   3.673   1.086
11258WAT    EPW45754   0.600   3.732   1.041
11259WAT      O45755   0.575   3.722   1.380
11259WAT     H145756   0.606   3.673   1.315
11259WAT     H245757   0.530   3.784   1.339
11259WAT    EPW45758   0.573   3.724   1.364
11260WAT      O45759   1.634   3.526   1.177
11260WAT     H145760   1.568   3.550   1.228
11260WAT     H245761   1.632   3.583   1.111
11260WAT    EPW45762   1.624   3.538   1.175
11261WAT      O45763   0.986   4.600   1.303
11261WAT     H145764   0.962   4.537   1.248
11261WAT     H245765   0.966   4.674   1.260
11261WAT    EPW45766   0.979   4.602   1.289
11262WAT      O45767   1.209   3.080   1.546
11262WAT     H145768   1.233   3.000   1.522
11262WAT     H245769   1.241   3.087   1.627
11262WAT    EPW45770   1.218   3.069   1.554
11263WAT      O45771   1.448   3.304   0.503
11263WAT     H145772   1.506   3.368   0.519
11263WAT     H245773   1.371   3.346   0.503
11263WAT    EPW45774   1.445   3.320   0.506
11264WAT      O45775   0.397   3.925   1.919
11264WAT     H145776   0.380   3.968   1.844
11264WAT     H245777   0.430   3.849   1.892
11264WAT    EPW45778   0.400   3.920   1.904
11265WAT      O45779   1.547   4.093   1.793
11265WAT     H145780   1.576   4.172   1.769
11265WAT     H245781   1.575   4.040   1.729
11265WAT    EPW45782   1.555   4.097   1.780
11266WAT      O45783   0.971   4.414   1.817
11266WAT     H145784   1.000   4.408   1.899
11266WAT     H245785   0.941   4.334   1.800
11266WAT    EPW45786   0.971   4.401   1.826
11267WAT      O45787   1.033   3.414   1.157
11267WAT     H145788   1.096   3.475   1.162
11267WAT     H245789   1.072   3.342   1.186
11267WAT    EPW45790   1.048   3.413   1.162
11268WAT      O45791   1.298   3.786   0.370
11268WAT     H145792   1.317   3.867   0.344
11268WAT     H245793   1.240   3.799   0.434
11268WAT    EPW45794   1.292   3.800   0.376
11269WAT      O45795   1.763   4.071   0.803
11269WAT     H145796   1.788   4.017   0.868
11269WAT     H245797   1.773   4.023   0.731
11269WAT    EPW45798   1.768   4.056   0.802
11270WAT      O45799   1.410   4.457   1.119
11270WAT     H145800   1.345   4.440   1.063
11270WAT     H245801   1.453   4.523   1.081
11270WAT    EPW45802   1.407   4.464   1.105
11271WAT      O45803   1.383   4.119   1.103
11271WAT     H145804   1.308   4.149   1.137
11271WAT     H245805   1.416   4.070   1.168
11271WAT    EPW45806   1.376   4.116   1.118
11272WAT      O45807   0.778   4.654   0.450
11272WAT     H145808   0.786   4.589   0.509
11272WAT     H245809   0.848   4.643   0.399
11272WAT    EPW45810   0.790   4.642   0.451
11273WAT      O45811   0.766   3.088   0.344
11273WAT     H145812   0.765   3.008   0.378
11273WAT     H245813   0.691   3.093   0.300
11273WAT    EPW45814   0.755   3.077   0.343
11274WAT      O45815   1.027   4.634   0.336
11274WAT     H145816   1.066   4.617   0.412
11274WAT     H245817   1.046   4.718   0.321
11274WAT    EPW45818   1.036   4.644   0.345
11275WAT      O45819   1.625   3.937   1.577
11275WAT     H145820   1.591   3.972   1.504
11275WAT     H245821   1.709   3.958   1.571
11275WAT    EPW45822   1.632   3.946   1.565
11276WAT      O45823   1.329   4.514   1.996
11276WAT     H145824   1.353   4.534   2.078
11276WAT     H245825   1.358   4.581   1.949
11276WAT    EPW45826   1.337   4.527   2.001
11277WAT      O45827   1.757   3.036   1.841
11277WAT     H145828   1.720   2.989   1.777
11277WAT     H245829   1.757   2.981   1.909
11277WAT    EPW45830   1.751   3.021   1.842
11278WAT      O45831   0.494   3.780   0.388
11278WAT     H145832   0.534   3.703   0.385
11278WAT     H245833   0.471   3.788   0.472
11278WAT    EPW45834   0.496   3.770   0.400
11279WAT      O45835   1.270   3.933   1.462
11279WAT     H145836   1.220   3.975   1.521
11279WAT     H245837   1.300   3.864   1.506
11279WAT    EPW45838   1.267   3.929   1.478
11280WAT      O45839   1.116   3.790   0.578
11280WAT     H145840   1.123   3.855   0.636
11280WAT     H245841   1.106   3.719   0.628
11280WAT    EPW45842   1.116   3.789   0.594
11281WAT      O45843   1.656   4.224   1.108
11281WAT     H145844   1.692   4.212   1.029
11281WAT     H245845   1.572   4.209   1.095
11281WAT    EPW45846   1.649   4.220   1.094
11282WAT      O45847   0.523   3.140   0.208
11282WAT     H145848   0.470   3.074   0.185
11282WAT     H245849   0.542   3.179   0.132
11282WAT    EPW45850   0.518   3.136   0.194
11283WAT      O45851   1.035   3.987   1.001
11283WAT     H145852   0.951   3.969   1.017
11283WAT     H245853   1.077   3.954   1.070
11283WAT    EPW45854   1.028   3.979   1.013
11284WAT      O45855   0.433   3.934   1.261
11284WAT     H145856   0.487   4.002   1.270
11284WAT     H245857   0.411   3.936   1.176
11284WAT    EPW45858   0.438   3.944   1.250
11285WAT      O45859   0.745   3.424   0.928
11285WAT     H145860   0.828   3.400   0.912
11285WAT     H245861   0.699   3.352   0.910
11285WAT    EPW45862   0.751   3.410   0.923
11286WAT      O45863   1.989   4.621   0.311
11286WAT     H145864   2.064   4.578   0.298
11286WAT     H245865   1.943   4.567   0.362
11286WAT    EPW45866   1.993   4.607   0.316
11287WAT      O45867   0.224   3.586   0.660
11287WAT     H145868   0.252   3.533   0.724
11287WAT     H245869   0.202   3.530   0.596
11287WAT    EPW45870   0.225   3.570   0.660
11288WAT      O45871   1.745   3.888   1.278
11288WAT     H145872   1.745   3.816   1.328
11288WAT     H245873   1.664   3.919   1.289
11288WAT    EPW45874   1.733   3.882   1.287
11289WAT      O45875   0.366   4.047   1.665
11289WAT     H145876   0.324   3.998   1.606
11289WAT     H245877   0.355   4.128   1.634
11289WAT    EPW45878   0.358   4.052   1.652
11290WAT      O45879   1.843   3.898   1.015
11290WAT     H145880   1.817   3.900   1.098
11290WAT     H245881   1.930   3.889   1.021
11290WAT    EPW45882   1.852   3.897   1.028
11291WAT      O45883   0.854   3.565   0.351
11291WAT     H145884   0.855   3.642   0.392
11291WAT     H245885   0.769   3.550   0.337
11291WAT    EPW45886   0.842   3.574   0.355
11292WAT      O45887   1.637   3.295   1.823
11292WAT     H145888   1.563   3.301   1.869
11292WAT     H245889   1.660   3.211   1.832
11292WAT    EPW45890   1.630   3.284   1.831
11293WAT      O45891   0.270   3.272   1.058
11293WAT     H145892   0.318   3.199   1.068
11293WAT     H245893   0.300   3.323   1.122
11293WAT    EPW45894   0.282   3.268   1.069
11294WAT      O45895   1.984   4.381   1.078
11294WAT     H145896   2.018   4.437   1.020
11294WAT     H245897   2.042   4.379   1.142
11294WAT    EPW45898   1.997   4.389   1.079
11295WAT      O45899   1.467   3.648   1.907
11295WAT     H145900   1.508   3.654   1.984
11295WAT     H245901   1.394   3.694   1.920
11295WAT    EPW45902   1.463   3.656   1.921
11296WAT      O45903   1.699   3.684   1.744
11296WAT     H145904   1.723   3.764   1.768
11296WAT     H245905   1.628   3.668   1.792
11296WAT    EPW45906   1.692   3.693   1.754
11297WAT      O45907   1.671   4.326   0.270
11297WAT     H145908   1.712   4.249   0.274
11297WAT     H245909   1.596   4.312   0.313
11297WAT    EPW45910   1.666   4.313   0.277
11298WAT      O45911   1.731   3.458   0.816
11298WAT     H145912   1.661   3.414   0.845
11298WAT     H245913   1.726   3.534   0.859
11298WAT    EPW45914   1.720   3.463   0.827
11299WAT      O45915   2.020   3.767   1.939
11299WAT     H145916   2.021   3.710   1.873
11299WAT     H245917   2.099   3.803   1.936
11299WAT    EPW45918   2.032   3.764   1.929
11300WAT      O45919   1.889   4.031   1.572
11300WAT     H145920   1.958   3.985   1.545
11300WAT     H245921   1.879   4.091   1.510
11300WAT    EPW45922   1.898   4.033   1.559
11301WAT      O45923   1.398   4.037   0.290
11301WAT     H145924   1.433   4.097   0.343
11301WAT     H245925   1.452   4.038   0.221
11301WAT    EPW45926   1.411   4.046   0.288
11302WAT      O45927   0.872   4.230   1.350
11302WAT     H145928   0.868   4.287   1.417
11302WAT     H245929   0.869   4.281   1.280
11302WAT    EPW45930   0.871   4.246   1.350
11303WAT      O45931   0.644   4.076   1.648
11303WAT     H145932   0.560   4.056   1.661
11303WAT     H245933   0.642   4.163   1.638
11303WAT    EPW45934   0.631   4.086   1.648
11304WAT      O45935   1.583   3.138   1.487
11304WAT     H145936   1.642   3.202   1.500
11304WAT     H245937   1.508   3.182   1.476
11304WAT    EPW45938   1.581   3.154   1.487
11305WAT      O45939   1.123   3.858   1.238
11305WAT     H145940   1.178   3.885   1.301
11305WAT     H245941   1.044   3.872   1.273
11305WAT    EPW45942   1.120   3.864   1.252
11306WAT      O45943   0.764   3.432   1.620
11306WAT     H145944   0.784   3.355   1.656
11306WAT     H245945   0.795   3.425   1.539
11306WAT    EPW45946   0.771   3.420   1.614
11307WAT      O45947   1.043   4.629   0.831
11307WAT     H145948   1.041   4.715   0.849
11307WAT     H245949   1.059   4.627   0.745
11307WAT    EPW45950   1.045   4.642   0.821
11308WAT      O45951   1.657   2.933   1.308
11308WAT     H145952   1.629   3.005   1.347
11308WAT     H245953   1.742   2.931   1.328
11308WAT    EPW45954   1.665   2.943   1.317
11309WAT      O45955   0.936   3.035   1.542
11309WAT     H145956   1.021   3.055   1.532
11309WAT     H245957   0.937   2.948   1.548
11309WAT    EPW45958   0.949   3.025   1.541
11310WAT      O45959   0.867   4.410   1.139
11310WAT     H145960   0.820   4.466   1.091
11310WAT     H245961   0.907   4.360   1.080
11310WAT    EPW45962   0.866   4.411   1.123
11311WAT      O45963   1.282   4.064   1.862
11311WAT     H145964   1.363   4.079   1.833
11311WAT     H245965   1.232   4.084   1.794
11311WAT    EPW45966   1.287   4.069   1.848
11312WAT      O45967   1.624   4.356   1.723
11312WAT     H145968   1.662   4.383   1.797
11312WAT     H245969   1.670   4.396   1.660
11312WAT    EPW45970   1.637   4.366   1.725
11313WAT      O45971   1.898   3.643   0.221
11313WAT     H145972   1.924   3.706   0.167
11313WAT     H245973   1.811   3.649   0.220
11313WAT    EPW45974   1.889   3.653   0.213
11314WAT      O45975   0.654   3.509   1.177
11314WAT     H145976   0.684   3.477   1.102
11314WAT     H245977   0.709   3.477   1.237
11314WAT    EPW45978   0.666   3.500   1.175
11315WAT      O45979   1.360   3.484   1.695
11315WAT     H145980   1.284   3.526   1.706
11315WAT     H245981   1.401   3.497   1.771
11315WAT    EPW45982   1.355   3.492   1.708
11316WAT      O45983   1.411   3.552   1.338
11316WAT     H145984   1.419   3.607   1.405
11316WAT     H245985   1.395   3.475   1.376
11316WAT    EPW45986   1.410   3.549   1.353
11317WAT      O45987   1.113   4.643   1.727
11317WAT     H145988   1.139   4.630   1.645
11317WAT     H245989   1.083   4.565   1.752
11317WAT    EPW45990   1.112   4.629   1.718
11318WAT      O45991   1.627   3.514   0.566
11318WAT     H145992   1.654   3.492   0.646
11318WAT     H245993   1.698   3.547   0.529
11318WAT    EPW45994   1.641   3.515   0.573
11319WAT      O45995   0.922   2.977   1.148
11319WAT     H145996   0.836   2.976   1.163
11319WAT     H245997   0.928   2.988   1.061
11319WAT    EPW45998   0.910   2.978   1.137
11320WAT      O45999   1.747   3.077   0.723
11320WAT     H146000   1.673   3.038   0.745
11320WAT     H246001   1.738   3.092   0.637
11320WAT    EPW46002   1.735   3.073   0.713
11321WAT      O46003   1.760   3.920   0.561
11321WAT     H146004   1.808   3.849   0.548
11321WAT     H246005   1.678   3.890   0.555
11321WAT    EPW46006   1.755   3.905   0.558
11322WAT      O46007   1.119   4.103   1.636
11322WAT     H146008   1.043   4.106   1.680
11322WAT     H246009   1.127   4.184   1.605
11322WAT    EPW46010   1.109   4.115   1.638
11323WAT      O46011   0.649   4.750   1.196
11323WAT     H146012   0.655   4.741   1.283
11323WAT     H246013   0.619   4.672   1.169
11323WAT    EPW46014   0.646   4.737   1.205
11324WAT      O46015   0.513   3.267   0.462
11324WAT     H146016   0.505   3.224   0.386
11324WAT     H246017   0.431   3.270   0.492
11324WAT    EPW46018   0.500   3.261   0.455
11325WAT      O46019   1.389   4.078   0.830
11325WAT     H146020   1.384   4.092   0.916
11325WAT     H246021   1.423   3.997   0.824
11325WAT    EPW46022   1.394   4.068   0.842
11326WAT      O46023   1.137   4.008   0.745
11326WAT     H146024   1.099   3.994   0.822
11326WAT     H246025   1.218   4.034   0.766
11326WAT    EPW46026   1.144   4.009   0.760
11327WAT      O46027   1.154   4.373   1.548
11327WAT     H146028   1.212   4.373   1.614
11327WAT     H246029   1.181   4.439   1.497
11327WAT    EPW46030   1.167   4.383   1.550
11328WAT      O46031   1.965   3.587   1.735
11328WAT     H146032   1.880   3.603   1.736
11328WAT     H246033   1.988   3.605   1.653
11328WAT    EPW46034   1.956   3.592   1.723
11329WAT      O46035   1.428   3.723   1.556
11329WAT     H146036   1.416   3.660   1.615
11329WAT     H246037   1.501   3.764   1.584
11329WAT    EPW46038   1.437   3.720   1.569
11330WAT      O46039   0.379   4.699   1.768
11330WAT     H146040   0.323   4.734   1.826
11330WAT     H246041   0.443   4.757   1.763
11330WAT    EPW46042   0.380   4.713   1.776
11331WAT      O46043   1.224   3.813   1.962
11331WAT     H146044   1.248   3.890   1.928
11331WAT     H246045   1.145   3.829   1.996
11331WAT    EPW46046   1.216   3.827   1.962
11332WAT      O46047   1.532   4.704   1.061
11332WAT     H146048   1.475   4.766   1.079
11332WAT     H246049   1.595   4.715   1.121
11332WAT    EPW46050   1.533   4.715   1.073
11333WAT      O46051   1.166   4.214   1.262
11333WAT     H146052   1.088   4.209   1.301
11333WAT     H246053   1.219   4.242   1.325
11333WAT    EPW46054   1.162   4.218   1.277
11334WAT      O46055   1.759   4.435   1.953
11334WAT     H146056   1.842   4.409   1.953
11334WAT     H246057   1.724   4.394   2.021
11334WAT    EPW46058   1.766   4.425   1.963
11335WAT      O46059   0.518   3.561   1.604
11335WAT     H146060   0.527   3.614   1.536
11335WAT     H246061   0.596   3.520   1.608
11335WAT    EPW46062   0.531   3.563   1.595
11336WAT      O46063   0.372   3.352   1.497
11336WAT     H146064   0.361   3.378   1.414
11336WAT     H246065   0.411   3.419   1.535
11336WAT    EPW46066   0.376   3.366   1.490
11337WAT      O46067   1.853   3.662   0.497
11337WAT     H146068   1.875   3.661   0.412
11337WAT     H246069   1.921   3.624   0.536
11337WAT    EPW46070   1.866   3.656   0.490
11338WAT      O46071   0.597   3.022   1.732
11338WAT     H146072   0.652   2.954   1.724
11338WAT     H246073   0.577   3.041   1.649
11338WAT    EPW46074   0.602   3.015   1.719
11339WAT      O46075   1.239   4.352   0.658
11339WAT     H146076   1.221   4.432   0.630
11339WAT     H246077   1.167   4.307   0.638
11339WAT    EPW46078   1.226   4.357   0.651
11340WAT      O46079   1.746   3.648   1.462
11340WAT     H146080   1.730   3.562   1.461
11340WAT     H246081   1.725   3.671   1.544
11340WAT    EPW46082   1.740   3.639   1.474
11341WAT      O46083   0.240   3.909   1.459
11341WAT     H146084   0.297   3.916   1.394
11341WAT     H246085   0.163   3.927   1.422
11341WAT    EPW46086   0.237   3.913   1.444
11342WAT      O46087   1.287   3.112   1.812
11342WAT     H146088   1.318   3.180   1.858
11342WAT     H246089   1.207   3.099   1.845
11342WAT    EPW46090   1.280   3.120   1.824
11343WAT      O46091   1.271   3.190   0.872
11343WAT     H146092   1.192   3.228   0.868
11343WAT     H246093   1.269   3.131   0.808
11343WAT    EPW46094   1.259   3.187   0.862
11344WAT      O46095   0.775   4.290   0.345
11344WAT     H146096   0.787   4.333   0.420
11344WAT     H246097   0.688   4.285   0.338
11344WAT    EPW46098   0.764   4.295   0.355
11345WAT      O46099   1.588   3.252   1.150
11345WAT     H146100   1.667   3.218   1.167
11345WAT     H246101   1.597   3.336   1.172
11345WAT    EPW46102   1.601   3.259   1.156
11346WAT      O46103   0.754   3.833   1.568
11346WAT     H146104   0.716   3.906   1.597
11346WAT     H246105   0.694   3.799   1.514
11346WAT    EPW46106   0.740   3.839   1.564
11347WAT      O46107   1.669   3.693   0.953
11347WAT     H146108   1.728   3.755   0.969
11347WAT     H246109   1.608   3.736   0.908
11347WAT    EPW46110   1.668   3.709   0.949
11348WAT      O46111   1.664   4.517   0.674
11348WAT     H146112   1.633   4.439   0.697
11348WAT     H246113   1.708   4.500   0.600
11348WAT    EPW46114   1.666   4.503   0.666
11349WAT      O46115   0.499   4.251   0.336
11349WAT     H146116   0.471   4.239   0.418
11349WAT     H246117   0.506   4.170   0.305
11349WAT    EPW46118   0.496   4.238   0.343
11350WAT      O46119   0.827   4.022   0.279
11350WAT     H146120   0.745   4.009   0.254
11350WAT     H246121   0.830   4.107   0.297
11350WAT    EPW46122   0.816   4.032   0.278
11351WAT      O46123   0.752   3.148   1.363
11351WAT     H146124   0.674   3.128   1.395
11351WAT     H246125   0.807   3.101   1.412
11351WAT    EPW46126   0.749   3.138   1.375
11352WAT      O46127   1.914   3.005   1.421
11352WAT     H146128   1.904   3.035   1.502
11352WAT     H246129   1.996   2.977   1.420
11352WAT    EPW46130   1.925   3.005   1.433
11353WAT      O46131   1.119   3.164   1.229
11353WAT     H146132   1.060   3.104   1.210
11353WAT     H246133   1.195   3.128   1.203
11353WAT    EPW46134   1.122   3.150   1.222
11354WAT      O46135   1.432   4.301   1.356
11354WAT     H146136   1.459   4.370   1.402
11354WAT     H246137   1.428   4.331   1.275
11354WAT    EPW46138   1.435   4.315   1.351
11355WAT      O46139   1.391   4.704   1.795
11355WAT     H146140   1.317   4.669   1.765
11355WAT     H246141   1.369   4.787   1.810
11355WAT    EPW46142   1.376   4.711   1.792
11356WAT      O46143   0.873   3.651   1.750
11356WAT     H146144   0.841   3.580   1.710
11356WAT     H246145   0.840   3.717   1.704
11356WAT    EPW46146   0.863   3.650   1.737
11357WAT      O46147   1.859   4.149   1.315
11357WAT     H146148   1.838   4.066   1.299
11357WAT     H246149   1.805   4.194   1.264
11357WAT    EPW46150   1.848   4.143   1.305
11358WAT      O46151   0.780   4.641   1.743
11358WAT     H146152   0.771   4.628   1.829
11358WAT     H246153   0.841   4.583   1.720
11358WAT    EPW46154   0.788   4.630   1.752
11359WAT      O46155   1.760   4.452   1.249
11359WAT     H146156   1.832   4.448   1.199
11359WAT     H246157   1.705   4.398   1.209
11359WAT    EPW46158   1.763   4.443   1.236
11360WAT      O46159   0.505   3.111   1.490
11360WAT     H146160   0.445   3.050   1.473
11360WAT     H246161   0.459   3.185   1.488
11360WAT    EPW46162   0.489   3.113   1.487
11361WAT      O46163   1.363   3.081   1.113
11361WAT     H146164   1.428   3.135   1.136
11361WAT     H246165   1.335   3.113   1.037
11361WAT    EPW46166   1.368   3.094   1.105
11362WAT      O46167   0.517   4.477   1.863
11362WAT     H146168   0.582   4.513   1.910
11362WAT     H246169   0.474   4.547   1.832
11362WAT    EPW46170   0.521   4.493   1.865
11363WAT      O46171   1.334   3.587   0.890
11363WAT     H146172   1.387   3.519   0.900
11363WAT     H246173   1.300   3.599   0.970
11363WAT    EPW46174   1.337   3.579   0.903
11364WAT      O46175   0.355   3.382   0.822
11364WAT     H146176   0.311   3.359   0.893
11364WAT     H246177   0.426   3.332   0.823
11364WAT    EPW46178   0.359   3.371   0.832
11365WAT      O46179   0.372   4.314   1.573
11365WAT     H146180   0.330   4.364   1.631
11365WAT     H246181   0.456   4.327   1.591
11365WAT    EPW46182   0.378   4.323   1.584
11366WAT      O46183   1.522   3.766   0.529
11366WAT     H146184   1.543   3.682   0.541
11366WAT     H246185   1.448   3.763   0.484
11366WAT    EPW46186   1.514   3.753   0.524
11367WAT      O46187   0.500   4.629   0.465
11367WAT     H146188   0.469   4.595   0.391
11367WAT     H246189   0.585   4.639   0.448
11367WAT    EPW46190   0.508   4.625   0.451
11368WAT      O46191   0.864   3.819   0.464
11368WAT     H146192   0.864   3.880   0.402
11368WAT     H246193   0.946   3.820   0.493
11368WAT    EPW46194   0.876   3.828   0.459
11369WAT      O46195   1.742   4.593   0.163
11369WAT     H146196   1.824   4.600   0.192
11369WAT     H246197   1.723   4.508   0.176
11369WAT    EPW46198   1.752   4.581   0.170
11370WAT      O46199   1.817   3.922   1.828
11370WAT     H146200   1.887   3.888   1.868
11370WAT     H246201   1.850   3.969   1.763
11370WAT    EPW46202   1.832   3.924   1.824
11371WAT      O46203   1.457   4.270   0.452
11371WAT     H146204   1.495   4.262   0.530
11371WAT     H246205   1.372   4.268   0.470
11371WAT    EPW46206   1.450   4.268   0.466
11372WAT      O46207   1.870   3.367   1.954
11372WAT     H146208   1.862   3.449   1.985
11372WAT     H246209   1.794   3.354   1.912
11372WAT    EPW46210   1.857   3.377   1.952
11373WAT      O46211   1.904   3.481   1.232
11373WAT     H146212   1.821   3.504   1.218
11373WAT     H246213   1.901   3.394   1.237
11373WAT    EPW46214   1.891   3.472   1.231
11374WAT      O46215   0.825   3.182   1.743
11374WAT     H146216   0.863   3.148   1.673
11374WAT     H246217   0.749   3.140   1.748
11374WAT    EPW46218   0.819   3.171   1.734
11375WAT      O46219   1.592   3.977   2.051
11375WAT     H146220   1.667   4.005   2.084
11375WAT     H246221   1.595   4.004   1.968
11375WAT    EPW46222   1.603   3.985   2.043
11376WAT      O46223   0.498   4.523   1.116
11376WAT     H146224   0.501   4.441   1.086
11376WAT     H246225   0.456   4.566   1.052
11376WAT    EPW46226   0.492   4.517   1.102
11377WAT      O46227   1.178   4.201   0.372
11377WAT     H146228   1.224   4.143   0.326
11377WAT     H246229   1.171   4.270   0.319
11377WAT    EPW46230   1.184   4.203   0.358
11378WAT      O46231   0.323   4.748   1.494
11378WAT     H146232   0.325   4.722   1.577
11378WAT     H246233   0.351   4.678   1.450
11378WAT    EPW46234   0.327   4.734   1.499
11379WAT      O46235   1.276   1.142   6.390
11379WAT     H146236   1.276   1.184   6.314
11379WAT     H246237   1.360   1.126   6.406
11379WAT    EPW46238   1.288   1.146   6.381
11380WAT      O46239   1.239   1.764   6.837
11380WAT     H146240   1.204   1.841   6.857
11380WAT     H246241   1.294   1.748   6.903
11380WAT    EPW46242   1.242   1.773   6.850
11381WAT      O46243   1.826   2.618   6.162
11381WAT     H146244   1.890   2.563   6.181
11381WAT     H246245   1.774   2.572   6.109
11381WAT    EPW46246   1.828   2.603   6.157
11382WAT      O46247   0.568   2.139   5.926
11382WAT     H146248   0.507   2.125   5.865
11382WAT     H246249   0.542   2.088   5.992
11382WAT    EPW46250   0.555   2.129   5.927
11383WAT      O46251   1.474   1.957   6.483
11383WAT     H146252   1.482   1.944   6.397
11383WAT     H246253   1.421   1.893   6.508
11383WAT    EPW46254   1.467   1.946   6.474
11384WAT      O46255   0.388   2.384   6.288
11384WAT     H146256   0.445   2.339   6.336
11384WAT     H246257   0.313   2.343   6.300
11384WAT    EPW46258   0.385   2.371   6.297
11385WAT      O46259   0.943   1.263   6.259
11385WAT     H146260   0.931   1.335   6.211
11385WAT     H246261   1.021   1.234   6.233
11385WAT    EPW46262   0.953   1.269   6.248
11386WAT      O46263   0.406   2.633   5.923
11386WAT     H146264   0.430   2.626   5.840
11386WAT     H246265   0.419   2.553   5.955
11386WAT    EPW46266   0.411   2.620   5.915
11387WAT      O46267   0.907   2.306   7.483
11387WAT     H146268   0.926   2.265   7.558
11387WAT     H246269   0.830   2.272   7.461
11387WAT    EPW46270   0.898   2.295   7.491
11388WAT      O46271   0.418   1.970   6.409
11388WAT     H146272   0.348   1.923   6.385
11388WAT     H246273   0.470   1.911   6.447
11388WAT    EPW46274   0.415   1.954   6.411
11389WAT      O46275   0.833   1.563   7.024
11389WAT     H146276   0.903   1.570   6.971
11389WAT     H246277   0.815   1.478   7.023
11389WAT    EPW46278   0.841   1.551   7.016
11390WAT      O46279   0.851   2.551   7.222
11390WAT     H146280   0.828   2.624   7.180
11390WAT     H246281   0.937   2.561   7.236
11390WAT    EPW46282   0.861   2.563   7.218
11391WAT      O46283   0.543   1.761   6.540
11391WAT     H146284   0.619   1.717   6.541
11391WAT     H246285   0.483   1.698   6.534
11391WAT    EPW46286   0.545   1.745   6.539
11392WAT      O46287   0.990   2.414   6.653
11392WAT     H146288   1.013   2.331   6.669
11392WAT     H246289   1.066   2.454   6.639
11392WAT    EPW46290   1.004   2.407   6.653
11393WAT      O46291   1.027   2.333   6.281
11393WAT     H146292   1.067   2.270   6.327
11393WAT     H246293   1.047   2.314   6.198
11393WAT    EPW46294   1.036   2.321   6.276
11394WAT      O46295   1.184   1.776   7.447
11394WAT     H146296   1.101   1.785   7.422
11394WAT     H246297   1.192   1.833   7.512
11394WAT    EPW46298   1.173   1.785   7.453
11395WAT      O46299   0.666   1.239   6.307
11395WAT     H146300   0.632   1.304   6.260
11395WAT     H246301   0.751   1.244   6.290
11395WAT    EPW46302   0.673   1.249   6.297
11396WAT      O46303   1.665   1.071   7.333
11396WAT     H146304   1.644   1.140   7.284
11396WAT     H246305   1.589   1.050   7.371
11396WAT    EPW46306   1.651   1.078   7.331
11397WAT      O46307   0.963   1.214   6.533
11397WAT     H146308   0.977   1.296   6.558
11397WAT     H246309   0.948   1.221   6.447
11397WAT    EPW46310   0.963   1.227   6.524
11398WAT      O46311   1.393   1.442   5.773
11398WAT     H146312   1.343   1.508   5.801
11398WAT     H246313   1.407   1.396   5.846
11398WAT    EPW46314   1.388   1.445   5.788
11399WAT      O46315   0.809   2.508   6.275
11399WAT     H146316   0.769   2.488   6.350
11399WAT     H246317   0.881   2.459   6.277
11399WAT    EPW46318   0.814   2.498   6.286
11400WAT      O46319   1.392   2.725   6.066
11400WAT     H146320   1.462   2.777   6.070
11400WAT     H246321   1.423   2.646   6.086
11400WAT    EPW46322   1.407   2.721   6.069
11401WAT      O46323   1.192   2.759   6.252
11401WAT     H146324   1.216   2.829   6.299
11401WAT     H246325   1.255   2.754   6.191
11401WAT    EPW46326   1.205   2.769   6.250
11402WAT      O46327   0.499   1.206   6.744
11402WAT     H146328   0.450   1.139   6.718
11402WAT     H246329   0.557   1.169   6.798
11402WAT    EPW46330   0.500   1.191   6.748
11403WAT      O46331   0.349   2.652   6.367
11403WAT     H146332   0.363   2.567   6.353
11403WAT     H246333   0.378   2.690   6.294
11403WAT    EPW46334   0.355   2.645   6.354
11404WAT      O46335   1.955   1.430   6.493
11404WAT     H146336   1.904   1.501   6.501
11404WAT     H246337   1.898   1.365   6.485
11404WAT    EPW46338   1.939   1.431   6.493
11405WAT      O46339   1.461   2.750   7.062
11405WAT     H146340   1.527   2.807   7.052
11405WAT     H246341   1.443   2.724   6.981
11405WAT    EPW46342   1.468   2.755   7.049
11406WAT      O46343   0.395   1.283   7.560
11406WAT     H146344   0.367   1.358   7.526
11406WAT     H246345   0.473   1.271   7.524
11406WAT    EPW46346   0.402   1.292   7.550
11407WAT      O46347   0.504   2.391   6.696
11407WAT     H146348   0.564   2.393   6.633
11407WAT     H246349   0.546   2.354   6.763
11407WAT    EPW46350   0.519   2.385   6.697
11408WAT      O46351   0.777   2.726   6.608
11408WAT     H146352   0.855   2.744   6.575
11408WAT     H246353   0.722   2.771   6.557
11408WAT    EPW46354   0.780   2.735   6.595
11409WAT      O46355   1.041   1.219   7.563
11409WAT     H146356   1.044   1.141   7.524
11409WAT     H246357   0.984   1.264   7.514
11409WAT    EPW46358   1.033   1.214   7.550
11410WAT      O46359   1.128   1.679   6.409
11410WAT     H146360   1.156   1.640   6.336
11410WAT     H246361   1.201   1.693   6.454
11410WAT    EPW46362   1.143   1.676   6.405
11411WAT      O46363   1.222   1.645   5.895
11411WAT     H146364   1.248   1.723   5.924
11411WAT     H246365   1.143   1.662   5.861
11411WAT    EPW46366   1.214   1.659   5.894
11412WAT      O46367   1.598   2.919   6.047
11412WAT     H146368   1.646   2.892   5.979
11412WAT     H246369   1.654   2.966   6.095
11412WAT    EPW46370   1.613   2.922   6.044
11413WAT      O46371   0.704   2.772   7.132
11413WAT     H146372   0.708   2.797   7.216
11413WAT     H246373   0.627   2.731   7.126
11413WAT    EPW46374   0.693   2.769   7.143
11414WAT      O46375   1.863   1.354   6.900
11414WAT     H146376   1.929   1.342   6.844
11414WAT     H246377   1.882   1.300   6.966
11414WAT    EPW46378   1.876   1.345   6.901
11415WAT      O46379   1.303   2.513   7.458
11415WAT     H146380   1.298   2.440   7.506
11415WAT     H246381   1.388   2.520   7.441
11415WAT    EPW46382   1.314   2.503   7.463
11416WAT      O46383   1.078   2.543   5.869
11416WAT     H146384   1.046   2.604   5.923
11416WAT     H246385   1.157   2.574   5.848
11416WAT    EPW46386   1.085   2.557   5.874
11417WAT      O46387   1.431   1.288   6.002
11417WAT     H146388   1.487   1.221   6.009
11417WAT     H246389   1.448   1.336   6.073
11417WAT    EPW46390   1.442   1.285   6.013
11418WAT      O46391   0.274   1.451   6.253
11418WAT     H146392   0.202   1.402   6.262
11418WAT     H246393   0.294   1.474   6.335
11418WAT    EPW46394   0.266   1.447   6.266
11419WAT      O46395   0.458   2.649   7.087
11419WAT     H146396   0.426   2.572   7.114
11419WAT     H246397   0.459   2.641   7.000
11419WAT    EPW46398   0.454   2.636   7.078
11420WAT      O46399   1.188   1.558   6.161
11420WAT     H146400   1.112   1.517   6.148
11420WAT     H246401   1.207   1.590   6.082
11420WAT    EPW46402   1.179   1.557   6.148
11421WAT      O46403   1.211   2.789   7.165
11421WAT     H146404   1.291   2.780   7.133
11421WAT     H246405   1.161   2.794   7.094
11421WAT    EPW46406   1.215   2.789   7.150
11422WAT      O46407   1.194   1.214   6.127
11422WAT     H146408   1.136   1.198   6.063
11422WAT     H246409   1.265   1.239   6.084
11422WAT    EPW46410   1.196   1.215   6.111
11423WAT      O46411   1.890   2.843   6.442
11423WAT     H146412   1.849   2.920   6.455
11423WAT     H246413   1.824   2.787   6.430
11423WAT    EPW46414   1.874   2.846   6.442
11424WAT      O46415   1.021   1.486   6.580
11424WAT     H146416   1.048   1.551   6.529
11424WAT     H246417   1.028   1.519   6.661
11424WAT    EPW46418   1.026   1.500   6.585
11425WAT      O46419   1.626   2.417   6.500
11425WAT     H146420   1.689   2.358   6.490
11425WAT     H246421   1.552   2.370   6.494
11425WAT    EPW46422   1.624   2.401   6.497
11426WAT      O46423   0.622   2.486   7.365
11426WAT     H146424   0.695   2.513   7.324
11426WAT     H246425   0.604   2.553   7.419
11426WAT    EPW46426   0.630   2.500   7.367
11427WAT      O46427   0.584   1.005   6.436
11427WAT     H146428   0.611   1.077   6.393
11427WAT     H246429   0.549   0.956   6.372
11427WAT    EPW46430   0.583   1.008   6.420
11428WAT      O46431   0.789   2.080   6.785
11428WAT     H146432   0.824   2.071   6.865
11428WAT     H246433   0.737   2.010   6.778
11428WAT    EPW46434   0.787   2.068   6.796
11429WAT      O46435   1.343   1.459   7.156
11429WAT     H146436   1.334   1.485   7.239
11429WAT     H246437   1.283   1.396   7.147
11429WAT    EPW46438   1.333   1.453   7.167
11430WAT      O46439   0.905   2.092   7.032
11430WAT     H146440   0.901   2.179   7.041
11430WAT     H246441   0.863   2.063   7.103
11430WAT    EPW46442   0.898   2.101   7.044
11431WAT      O46443   1.513   2.195   7.037
11431WAT     H146444   1.440   2.161   7.071
11431WAT     H246445   1.501   2.281   7.044
11431WAT    EPW46446   1.501   2.202   7.043
11432WAT      O46447   1.534   1.072   6.471
11432WAT     H146448   1.537   1.053   6.556
11432WAT     H246449   1.570   1.001   6.434
11432WAT    EPW46450   1.540   1.059   6.478
11433WAT      O46451   1.728   1.536   7.233
11433WAT     H146452   1.810   1.509   7.236
11433WAT     H246453   1.706   1.545   7.318
11433WAT    EPW46454   1.737   1.533   7.246
11434WAT      O46455   0.570   1.372   6.535
11434WAT     H146456   0.599   1.317   6.474
11434WAT     H246457   0.551   1.319   6.602
11434WAT    EPW46458   0.572   1.356   6.536
11435WAT      O46459   1.802   2.211   6.015
11435WAT     H146460   1.805   2.164   6.089
11435WAT     H246461   1.886   2.224   5.996
11435WAT    EPW46462   1.815   2.206   6.024
11436WAT      O46463   0.548   2.215   6.429
11436WAT     H146464   0.629   2.206   6.399
11436WAT     H246465   0.514   2.135   6.418
11436WAT    EPW46466   0.555   2.202   6.423
11437WAT      O46467   0.388   2.807   6.608
11437WAT     H146468   0.340   2.757   6.556
11437WAT     H246469   0.458   2.827   6.559
11437WAT    EPW46470   0.392   2.802   6.593
11438WAT      O46471   0.364   1.595   6.897
11438WAT     H146472   0.449   1.586   6.877
11438WAT     H246473   0.353   1.681   6.898
11438WAT    EPW46474   0.375   1.606   6.894
11439WAT      O46475   2.027   2.651   7.377
11439WAT     H146476   1.961   2.653   7.319
11439WAT     H246477   1.987   2.651   7.454
11439WAT    EPW46478   2.011   2.651   7.379
11440WAT      O46479   1.620   1.874   5.938
11440WAT     H146480   1.613   1.956   5.908
11440WAT     H246481   1.589   1.881   6.020
11440WAT    EPW46482   1.614   1.887   5.946
11441WAT      O46483   0.794   2.169   6.311
11441WAT     H146484   0.861   2.224   6.301
11441WAT     H246485   0.812   2.105   6.254
11441WAT    EPW46486   0.806   2.168   6.301
11442WAT      O46487   1.950   1.349   5.942
11442WAT     H146488   1.988   1.282   5.900
11442WAT     H246489   1.920   1.399   5.877
11442WAT    EPW46490   1.951   1.346   5.926
11443WAT      O46491   2.038   1.771   7.164
11443WAT     H146492   2.056   1.699   7.119
11443WAT     H246493   1.953   1.785   7.148
11443WAT    EPW46494   2.028   1.762   7.155
11444WAT      O46495   1.805   1.239   6.158
11444WAT     H146496   1.879   1.198   6.181
11444WAT     H246497   1.830   1.291   6.093
11444WAT    EPW46498   1.820   1.241   6.152
11445WAT      O46499   1.209   2.578   6.604
11445WAT     H146500   1.160   2.647   6.582
11445WAT     H246501   1.237   2.547   6.527
11445WAT    EPW46502   1.206   2.583   6.589
11446WAT      O46503   0.632   2.270   6.910
11446WAT     H146504   0.695   2.310   6.954
11446WAT     H246505   0.674   2.210   6.862
11446WAT    EPW46506   0.648   2.267   6.909
11447WAT      O46507   1.494   1.499   6.608
11447WAT     H146508   1.524   1.466   6.683
11447WAT     H246509   1.430   1.444   6.586
11447WAT    EPW46510   1.489   1.486   6.615
11448WAT      O46511   0.370   2.131   6.676
11448WAT     H146512   0.375   2.091   6.598
11448WAT     H246513   0.404   2.210   6.661
11448WAT    EPW46514   0.376   2.137   6.662
11449WAT      O46515   0.926   1.475   6.084
11449WAT     H146516   0.913   1.447   6.002
11449WAT     H246517   0.888   1.553   6.085
11449WAT    EPW46518   0.919   1.482   6.072
11450WAT      O46519   1.774   2.658   7.234
11450WAT     H146520   1.739   2.738   7.239
11450WAT     H246521   1.770   2.639   7.149
11450WAT    EPW46522   1.768   2.667   7.222
11451WAT      O46523   0.733   2.462   6.540
11451WAT     H146524   0.737   2.546   6.563
11451WAT     H246525   0.809   2.429   6.569
11451WAT    EPW46526   0.745   2.470   6.547
11452WAT      O46527   0.469   1.792   7.519
11452WAT     H146528   0.551   1.784   7.545
11452WAT     H246529   0.471   1.766   7.436
11452WAT    EPW46530   0.481   1.787   7.510
11453WAT      O46531   0.533   1.700   6.057
11453WAT     H146532   0.534   1.625   6.101
11453WAT     H246533   0.502   1.678   5.978
11453WAT    EPW46534   0.528   1.686   6.052
11454WAT      O46535   0.614   1.866   6.795
11454WAT     H146536   0.575   1.865   6.718
11454WAT     H246537   0.632   1.782   6.811
11454WAT    EPW46538   0.611   1.853   6.786
11455WAT      O46539   0.556   1.908   7.068
11455WAT     H146540   0.583   1.891   6.987
11455WAT     H246541   0.494   1.968   7.057
11455WAT    EPW46542   0.551   1.915   7.055
11456WAT      O46543   1.633   1.681   6.886
11456WAT     H146544   1.566   1.705   6.937
11456WAT     H246545   1.629   1.735   6.819
11456WAT    EPW46546   1.623   1.692   6.884
11457WAT      O46547   1.003   2.796   6.981
11457WAT     H146548   0.969   2.724   6.946
11457WAT     H246549   0.989   2.857   6.921
11457WAT    EPW46550   0.996   2.794   6.967
11458WAT      O46551   1.205   1.224   7.235
11458WAT     H146552   1.227   1.142   7.213
11458WAT     H246553   1.235   1.233   7.316
11458WAT    EPW46554   1.212   1.213   7.243
11459WAT      O46555   1.434   1.438   6.231
11459WAT     H146556   1.490   1.504   6.242
11459WAT     H246557   1.358   1.479   6.217
11459WAT    EPW46558   1.431   1.454   6.230
11460WAT      O46559   0.365   2.035   7.618
11460WAT     H146560   0.361   2.083   7.546
11460WAT     H246561   0.390   1.957   7.589
11460WAT    EPW46562   0.368   2.031   7.603
11461WAT      O46563   1.542   2.272   7.478
11461WAT     H146564   1.570   2.352   7.459
11461WAT     H246565   1.573   2.223   7.413
11461WAT    EPW46566   1.550   2.276   7.465
11462WAT      O46567   0.925   2.600   7.522
11462WAT     H146568   0.933   2.596   7.609
11462WAT     H246569   0.916   2.517   7.498
11462WAT    EPW46570   0.925   2.587   7.531
11463WAT      O46571   1.043   1.567   6.842
11463WAT     H146572   1.106   1.627   6.848
11463WAT     H246573   1.079   1.496   6.877
11463WAT    EPW46574   1.058   1.565   6.848
11464WAT      O46575   1.292   1.880   6.039
11464WAT     H146576   1.273   1.935   5.974
11464WAT     H246577   1.231   1.898   6.100
11464WAT    EPW46578   1.280   1.891   6.039
11465WAT      O46579   1.809   2.209   6.478
11465WAT     H146580   1.816   2.155   6.547
11465WAT     H246581   1.796   2.154   6.411
11465WAT    EPW46582   1.808   2.193   6.479
11466WAT      O46583   1.391   2.633   6.815
11466WAT     H146584   1.333   2.610   6.754
11466WAT     H246585   1.439   2.694   6.775
11466WAT    EPW46586   1.389   2.639   6.800
11467WAT      O46587   1.379   2.261   6.796
11467WAT     H146588   1.305   2.291   6.831
11467WAT     H246589   1.417   2.219   6.861
11467WAT    EPW46590   1.373   2.260   6.811
11468WAT      O46591   0.774   2.766   6.185
11468WAT     H146592   0.780   2.692   6.230
11468WAT     H246593   0.844   2.765   6.133
11468WAT    EPW46594   0.785   2.755   6.184
11469WAT      O46595   0.721   1.113   5.980
11469WAT     H146596   0.703   1.094   6.064
11469WAT     H246597   0.670   1.183   5.965
11469WAT    EPW46598   0.711   1.121   5.990
11470WAT      O46599   1.009   2.749   6.042
11470WAT     H146600   1.065   2.756   6.108
11470WAT     H246601   1.013   2.827   6.003
11470WAT    EPW46602   1.017   2.762   6.046
11471WAT      O46603   1.639   2.114   7.277
11471WAT     H146604   1.608   2.138   7.199
11471WAT     H246605   1.725   2.123   7.269
11471WAT    EPW46606   1.647   2.119   7.264
11472WAT      O46607   1.866   1.053   7.526
11472WAT     H146608   1.805   1.062   7.464
11472WAT     H246609   1.820   1.055   7.600
11472WAT    EPW46610   1.850   1.055   7.528
11473WAT      O46611   0.488   1.970   6.129
11473WAT     H146612   0.499   1.885   6.113
11473WAT     H246613   0.472   1.972   6.215
11473WAT    EPW46614   0.487   1.957   6.139
11474WAT      O46615   1.285   2.090   7.141
11474WAT     H146616   1.228   2.132   7.191
11474WAT     H246617   1.309   2.022   7.190
11474WAT    EPW46618   1.280   2.086   7.155
11475WAT      O46619   1.132   1.922   6.266
11475WAT     H146620   1.143   1.987   6.322
11475WAT     H246621   1.120   1.852   6.318
11475WAT    EPW46622   1.132   1.921   6.282
11476WAT      O46623   1.623   2.407   6.782
11476WAT     H146624   1.637   2.418   6.697
11476WAT     H246625   1.543   2.371   6.785
11476WAT    EPW46626   1.613   2.403   6.770
11477WAT      O46627   0.589   1.349   5.907
11477WAT     H146628   0.534   1.353   5.840
11477WAT     H246629   0.661   1.390   5.878
11477WAT    EPW46630   0.592   1.356   5.893
11478WAT      O46631   1.042   2.141   6.683
11478WAT     H146632   0.960   2.116   6.698
11478WAT     H246633   1.086   2.108   6.751
11478WAT    EPW46634   1.037   2.133   6.696
11479WAT      O46635   0.721   2.740   5.818
11479WAT     H146636   0.738   2.673   5.872
11479WAT     H246637   0.719   2.809   5.871
11479WAT    EPW46638   0.723   2.740   5.834
11480WAT      O46639   0.398   2.117   6.955
11480WAT     H146640   0.464   2.174   6.956
11480WAT     H246641   0.377   2.111   6.870
11480WAT    EPW46642   0.404   2.125   6.943
11481WAT      O46643   0.750   1.572   6.586
11481WAT     H146644   0.833   1.545   6.577
11481WAT     H246645   0.703   1.502   6.565
11481WAT    EPW46646   0.755   1.557   6.582
11482WAT      O46647   1.998   2.787   6.021
11482WAT     H146648   2.067   2.740   5.995
11482WAT     H246649   1.949   2.729   6.065
11482WAT    EPW46650   2.001   2.771   6.024
11483WAT      O46651   0.247   1.759   6.340
11483WAT     H146652   0.271   1.697   6.398
11483WAT     H246653   0.236   1.714   6.266
11483WAT    EPW46654   0.249   1.743   6.338
11484WAT      O46655   1.755   2.061   6.963
11484WAT     H146656   1.759   1.991   7.015
11484WAT     H246657   1.674   2.092   6.976
11484WAT    EPW46658   1.744   2.055   6.973
11485WAT      O46659   0.733   1.943   5.805
11485WAT     H146660   0.679   1.997   5.846
11485WAT     H246661   0.683   1.906   5.744
11485WAT    EPW46662   0.718   1.946   5.802
11486WAT      O46663   0.374   2.175   7.370
11486WAT     H146664   0.332   2.121   7.315
11486WAT     H246665   0.363   2.254   7.333
11486WAT    EPW46666   0.366   2.179   7.356
11487WAT      O46667   1.850   2.036   6.701
11487WAT     H146668   1.823   2.051   6.782
11487WAT     H246669   1.937   2.031   6.708
11487WAT    EPW46670   1.859   2.038   6.714
11488WAT      O46671   0.810   1.726   6.051
11488WAT     H146672   0.830   1.804   6.085
11488WAT     H246673   0.723   1.726   6.050
11488WAT    EPW46674   0.800   1.737   6.056
11489WAT      O46675   1.611   1.478   7.508
11489WAT     H146676   1.576   1.501   7.585
11489WAT     H246677   1.572   1.401   7.491
11489WAT    EPW46678   1.600   1.470   7.517
11490WAT      O46679   0.214   1.450   6.713
11490WAT     H146680   0.216   1.366   6.740
11490WAT     H246681   0.253   1.493   6.778
11490WAT    EPW46682   0.220   1.444   6.727
11491WAT      O46683   1.999   2.541   6.789
11491WAT     H146684   2.029   2.594   6.726
11491WAT     H246685   2.064   2.540   6.847
11491WAT    EPW46686   2.013   2.549   6.788
11492WAT      O46687   1.509   1.879   7.543
11492WAT     H146688   1.556   1.941   7.582
11492WAT     H246689   1.429   1.891   7.576
11492WAT    EPW46690   1.504   1.890   7.554
11493WAT      O46691   1.764   1.821   7.423
11493WAT     H146692   1.803   1.893   7.451
11493WAT     H246693   1.684   1.825   7.459
11493WAT    EPW46694   1.758   1.832   7.433
11494WAT      O46695   1.674   2.456   6.003
11494WAT     H146696   1.710   2.376   6.011
11494WAT     H246697   1.596   2.447   6.041
11494WAT    EPW46698   1.668   2.443   6.010
11495WAT      O46699   1.732   1.609   6.517
11495WAT     H146700   1.666   1.560   6.546
11495WAT     H246701   1.723   1.683   6.561
11495WAT    EPW46702   1.721   1.612   6.528
11496WAT      O46703   1.912   2.172   7.262
11496WAT     H146704   1.981   2.124   7.237
11496WAT     H246705   1.905   2.232   7.199
11496WAT    EPW46706   1.921   2.174   7.249
11497WAT      O46707   1.350   2.256   5.923
11497WAT     H146708   1.427   2.215   5.916
11497WAT     H246709   1.321   2.258   5.841
11497WAT    EPW46710   1.357   2.250   5.910
11498WAT      O46711   0.877   2.374   7.016
11498WAT     H146712   0.865   2.420   7.089
11498WAT     H246713   0.873   2.435   6.953
11498WAT    EPW46714   0.875   2.390   7.017
11499WAT      O46715   0.652   2.214   7.395
11499WAT     H146716   0.571   2.184   7.404
11499WAT     H246717   0.641   2.300   7.383
11499WAT    EPW46718   0.639   2.222   7.394
11500WAT      O46719   1.579   1.305   7.186
11500WAT     H146720   1.632   1.375   7.191
11500WAT     H246721   1.501   1.339   7.170
11500WAT    EPW46722   1.576   1.320   7.184
11501WAT      O46723   1.141   2.011   6.915
11501WAT     H146724   1.197   2.040   6.976
11501WAT     H246725   1.063   2.023   6.952
11501WAT    EPW46726   1.137   2.017   6.930
11502WAT      O46727   0.778   1.593   7.292
11502WAT     H146728   0.805   1.518   7.326
11502WAT     H246729   0.801   1.587   7.208
11502WAT    EPW46730   0.785   1.581   7.284
11503WAT      O46731   1.033   2.781   6.508
11503WAT     H146732   1.035   2.867   6.520
11503WAT     H246733   1.046   2.772   6.422
11503WAT    EPW46734   1.035   2.792   6.497
11504WAT      O46735   1.663   1.102   7.006
11504WAT     H146736   1.630   1.172   7.046
11504WAT     H246737   1.747   1.103   7.031
11504WAT    EPW46738   1.671   1.113   7.016
11505WAT      O46739   0.937   1.159   7.181
11505WAT     H146740   1.020   1.187   7.184
11505WAT     H246741   0.942   1.087   7.131
11505WAT    EPW46742   0.950   1.153   7.174
11506WAT      O46743   0.881   2.587   6.838
11506WAT     H146744   0.828   2.636   6.788
11506WAT     H246745   0.922   2.537   6.780
11506WAT    EPW46746   0.879   2.586   6.822
11507WAT      O46747   1.275   2.230   7.533
11507WAT     H146748   1.360   2.236   7.514
11507WAT     H246749   1.236   2.234   7.456
11507WAT    EPW46750   1.281   2.232   7.519
11508WAT      O46751   1.586   2.545   7.416
11508WAT     H146752   1.594   2.610   7.474
11508WAT     H246753   1.642   2.568   7.353
11508WAT    EPW46754   1.596   2.558   7.415
11509WAT      O46755   1.870   1.762   5.911
11509WAT     H146756   1.918   1.819   5.865
11509WAT     H246757   1.790   1.797   5.910
11509WAT    EPW46758   1.865   1.775   5.904
11510WAT      O46759   0.980   2.043   5.881
11510WAT     H146760   0.908   2.009   5.846
11510WAT     H246761   0.962   2.128   5.886
11510WAT    EPW46762   0.967   2.050   5.877
11511WAT      O46763   0.636   1.599   6.838
11511WAT     H146764   0.677   1.580   6.764
11511WAT     H246765   0.696   1.585   6.900
11511WAT    EPW46766   0.651   1.594   6.836
11512WAT      O46767   1.336   1.543   7.421
11512WAT     H146768   1.281   1.610   7.435
11512WAT     H246769   1.415   1.577   7.434
11512WAT    EPW46770   1.339   1.558   7.425
11513WAT      O46771   1.409   1.710   7.048
11513WAT     H146772   1.406   1.760   7.120
11513WAT     H246773   1.389   1.630   7.078
11513WAT    EPW46774   1.406   1.705   7.063
11514WAT      O46775   1.103   2.809   7.431
11514WAT     H146776   1.131   2.795   7.349
11514WAT     H246777   1.070   2.732   7.455
11514WAT    EPW46778   1.102   2.796   7.422
11515WAT      O46779   1.616   1.654   6.270
11515WAT     H146780   1.643   1.636   6.351
11515WAT     H246781   1.688   1.683   6.231
11515WAT    EPW46782   1.631   1.656   6.276
11516WAT      O46783   0.933   1.151   6.807
11516WAT     H146784   0.850   1.135   6.825
11516WAT     H246785   0.934   1.159   6.720
11516WAT    EPW46786   0.921   1.150   6.797
11517WAT      O46787   1.757   1.239   6.435
11517WAT     H146788   1.679   1.204   6.452
11517WAT     H246789   1.755   1.255   6.349
11517WAT    EPW46790   1.745   1.236   6.425
11518WAT      O46791   1.760   2.051   6.245
11518WAT     H146792   1.802   1.975   6.235
11518WAT     H246793   1.676   2.029   6.238
11518WAT    EPW46794   1.754   2.036   6.243
11519WAT      O46795   1.120   2.257   7.302
11519WAT     H146796   1.047   2.260   7.349
11519WAT     H246797   1.127   2.337   7.269
11519WAT    EPW46798   1.110   2.269   7.304
11520WAT      O46799   0.659   2.884   6.873
11520WAT     H146800   0.674   2.864   6.957
11520WAT     H246801   0.628   2.809   6.840
11520WAT    EPW46802   0.657   2.870   6.881
11521WAT      O46803   0.538   1.441   6.164
11521WAT     H146804   0.543   1.409   6.083
11521WAT     H246805   0.453   1.435   6.183
11521WAT    EPW46806   0.526   1.436   6.154
11522WAT      O46807   1.411   2.228   6.522
11522WAT     H146808   1.397   2.237   6.607
11522WAT     H246809   1.441   2.146   6.514
11522WAT    EPW46810   1.413   2.217   6.533
11523WAT      O46811   1.160   2.145   6.432
11523WAT     H146812   1.119   2.137   6.508
11523WAT     H246813   1.239   2.175   6.454
11523WAT    EPW46814   1.166   2.148   6.446
11524WAT      O46815   1.133   2.535   7.245
11524WAT     H146816   1.183   2.529   7.316
11524WAT     H246817   1.164   2.606   7.204
11524WAT    EPW46818   1.145   2.545   7.249
11525WAT      O46819   1.963   1.625   7.470
11525WAT     H146820   1.907   1.690   7.454
11525WAT     H246821   2.041   1.665   7.471
11525WAT    EPW46822   1.966   1.640   7.468
11526WAT      O46823   1.382   1.870   7.279
11526WAT     H146824   1.316   1.839   7.327
11526WAT     H246825   1.443   1.889   7.338
11526WAT    EPW46826   1.381   1.868   7.295
11527WAT      O46827   0.315   2.867   7.469
11527WAT     H146828   0.233   2.855   7.498
11527WAT     H246829   0.334   2.948   7.495
11527WAT    EPW46830   0.305   2.877   7.477
11528WAT      O46831   1.254   1.970   7.635
11528WAT     H146832   1.258   2.053   7.607
11528WAT     H246833   1.228   1.977   7.717
11528WAT    EPW46834   1.251   1.983   7.643
11529WAT      O46835   1.530   2.874   6.758
11529WAT     H146836   1.470   2.933   6.781
11529WAT     H246837   1.594   2.887   6.815
11529WAT    EPW46838   1.530   2.885   6.769
11530WAT      O46839   1.165   2.361   6.949
11530WAT     H146840   1.084   2.364   6.980
11530WAT     H246841   1.212   2.402   7.011
11530WAT    EPW46842   1.160   2.367   6.963
11531WAT      O46843   0.521   1.701   7.259
11531WAT     H146844   0.530   1.764   7.199
11531WAT     H246845   0.601   1.669   7.267
11531WAT    EPW46846   0.534   1.706   7.251
11532WAT      O46847   0.377   1.487   7.156
11532WAT     H146848   0.361   1.514   7.075
11532WAT     H246849   0.416   1.556   7.193
11532WAT    EPW46850   0.381   1.501   7.150
11533WAT      O46851   1.844   1.790   6.187
11533WAT     H146852   1.861   1.785   6.102
11533WAT     H246853   1.918   1.761   6.224
11533WAT    EPW46854   1.858   1.785   6.180
11534WAT      O46855   0.620   1.210   7.417
11534WAT     H146856   0.658   1.131   7.416
11534WAT     H246857   0.588   1.218   7.336
11534WAT    EPW46858   0.621   1.199   7.405
11535WAT      O46859   1.245   2.499   6.335
11535WAT     H146860   1.224   2.579   6.308
11535WAT     H246861   1.173   2.452   6.320
11535WAT    EPW46862   1.231   2.504   6.329
11536WAT      O46863   1.764   1.826   7.141
11536WAT     H146864   1.737   1.744   7.129
11536WAT     H246865   1.757   1.838   7.227
11536WAT    EPW46866   1.759   1.816   7.152
11537WAT      O46867   0.247   2.030   7.170
11537WAT     H146868   0.281   2.065   7.098
11537WAT     H246869   0.174   1.992   7.142
11537WAT    EPW46870   0.241   2.029   7.155
11538WAT      O46871   0.420   1.627   5.806
11538WAT     H146872   0.333   1.634   5.813
11538WAT     H246873   0.431   1.552   5.764
11538WAT    EPW46874   0.409   1.617   5.801
11539WAT      O46875   1.300   1.274   7.493
11539WAT     H146876   1.304   1.360   7.480
11539WAT     H246877   1.221   1.264   7.531
11539WAT    EPW46878   1.289   1.286   7.497
11540WAT      O46879   1.267   1.339   6.586
11540WAT     H146880   1.191   1.381   6.581
11540WAT     H246881   1.260   1.277   6.524
11540WAT    EPW46882   1.254   1.336   6.576
11541WAT      O46883   0.740   2.512   5.994
11541WAT     H146884   0.769   2.514   6.076
11541WAT     H246885   0.659   2.480   6.001
11541WAT    EPW46886   0.732   2.508   6.007
11542WAT      O46887   1.589   1.407   6.851
11542WAT     H146888   1.669   1.374   6.860
11542WAT     H246889   1.599   1.490   6.876
11542WAT    EPW46890   1.602   1.414   6.856
11543WAT      O46891   0.755   2.002   7.244
11543WAT     H146892   0.720   2.067   7.291
11543WAT     H246893   0.689   1.972   7.196
11543WAT    EPW46894   0.740   2.007   7.244
11544WAT      O46895   1.662   1.840   6.655
11544WAT     H146896   1.725   1.899   6.667
11544WAT     H246897   1.605   1.882   6.604
11544WAT    EPW46898   1.663   1.855   6.649
11545WAT      O46899   1.671   2.675   6.388
11545WAT     H146900   1.655   2.597   6.425
11545WAT     H246901   1.710   2.654   6.313
11545WAT    EPW46902   1.674   2.660   6.382
11546WAT      O46903   0.493   2.391   6.028
11546WAT     H146904   0.464   2.382   6.110
11546WAT     H246905   0.507   2.309   6.002
11546WAT    EPW46906   0.490   2.378   6.036
11547WAT      O46907   0.810   2.277   5.853
11547WAT     H146908   0.737   2.235   5.873
11547WAT     H246909   0.803   2.353   5.896
11547WAT    EPW46910   0.798   2.282   5.862
11548WAT      O46911   0.753   1.304   7.032
11548WAT     H146912   0.675   1.282   7.064
11548WAT     H246913   0.808   1.254   7.076
11548WAT    EPW46914   0.749   1.294   7.043
11549WAT      O46915   1.921   1.191   7.118
11549WAT     H146916   1.932   1.255   7.177
11549WAT     H246917   1.999   1.152   7.116
11549WAT    EPW46918   1.934   1.195   7.127
11550WAT      O46919   1.121   1.320   6.933
11550WAT     H146920   1.061   1.268   6.897
11550WAT     H246921   1.197   1.284   6.909
11550WAT    EPW46922   1.124   1.307   6.924
11551WAT      O46923   1.428   2.463   7.044
11551WAT     H146924   1.456   2.531   7.090
11551WAT     H246925   1.422   2.495   6.963
11551WAT    EPW46926   1.431   2.478   7.039
11552WAT      O46927   1.400   2.864   7.462
11552WAT     H146928   1.326   2.819   7.472
11552WAT     H246929   1.377   2.945   7.483
11552WAT    EPW46930   1.386   2.869   7.466
11553WAT      O46931   0.920   1.816   7.376
11553WAT     H146932   0.878   1.742   7.355
11553WAT     H246933   0.873   1.878   7.337
11553WAT    EPW46934   0.907   1.814   7.367
11554WAT      O46935   0.994   1.152   5.947
11554WAT     H146936   1.005   1.162   5.861
11554WAT     H246937   0.907   1.151   5.957
11554WAT    EPW46938   0.983   1.153   5.935
11555WAT      O46939   1.885   2.314   7.024
11555WAT     H146940   1.848   2.245   6.987
11555WAT     H246941   1.835   2.381   6.997
11555WAT    EPW46942   1.872   2.314   7.015
11556WAT      O46943   0.790   2.827   7.398
11556WAT     H146944   0.858   2.869   7.363
11556WAT     H246945   0.827   2.757   7.436
11556WAT    EPW46946   0.806   2.823   7.398
11557WAT      O46947   1.771   2.566   6.956
11557WAT     H146948   1.840   2.575   6.904
11557WAT     H246949   1.711   2.528   6.904
11557WAT    EPW46950   1.772   2.561   6.940
11558WAT      O46951   0.513   1.248   7.166
11558WAT     H146952   0.451   1.187   7.160
11558WAT     H246953   0.469   1.323   7.161
11558WAT    EPW46954   0.497   1.250   7.165
11559WAT      O46955   1.365   1.235   6.825
11559WAT     H146956   1.431   1.290   6.845
11559WAT     H246957   1.335   1.267   6.749
11559WAT    EPW46958   1.370   1.248   6.816
11560WAT      O46959   0.542   2.707   7.511
11560WAT     H146960   0.606   2.766   7.509
11560WAT     H246961   0.470   2.755   7.503
11560WAT    EPW46962   0.541   2.723   7.510
11561WAT      O46963   1.341   1.731   6.578
11561WAT     H146964   1.394   1.663   6.589
11561WAT     H246965   1.309   1.745   6.658
11561WAT    EPW46966   1.344   1.723   6.592
11562WAT      O46967   0.358   1.546   6.501
11562WAT     H146968   0.305   1.521   6.566
11562WAT     H246969   0.426   1.491   6.508
11562WAT    EPW46970   0.360   1.534   6.512
11563WAT      O46971   0.372   2.438   7.262
11563WAT     H146972   0.319   2.484   7.314
11563WAT     H246973   0.452   2.454   7.294
11563WAT    EPW46974   0.376   2.447   7.275
11564WAT      O46975   1.513   1.903   6.207
11564WAT     H146976   1.534   1.821   6.227
11564WAT     H246977   1.439   1.896   6.162
11564WAT    EPW46978   1.505   1.890   6.203
11565WAT      O46979   0.495   2.764   6.156
11565WAT     H146980   0.466   2.732   6.081
11565WAT     H246981   0.582   2.756   6.150
11565WAT    EPW46982   0.504   2.758   6.144
11566WAT      O46983   0.894   1.975   6.137
11566WAT     H146984   0.922   2.002   6.059
11566WAT     H246985   0.968   1.957   6.180
11566WAT    EPW46986   0.909   1.976   6.132
11567WAT      O46987   1.779   2.837   5.855
11567WAT     H146988   1.851   2.827   5.903
11567WAT     H246989   1.764   2.758   5.823
11567WAT    EPW46990   1.788   2.824   5.857
11568WAT      O46991   1.890   2.049   7.516
11568WAT     H146992   1.970   2.027   7.542
11568WAT     H246993   1.904   2.100   7.447
11568WAT    EPW46994   1.904   2.053   7.510
11569WAT      O46995   1.424   2.451   6.118
11569WAT     H146996   1.376   2.446   6.191
11569WAT     H246997   1.385   2.394   6.065
11569WAT    EPW46998   1.411   2.442   6.121
11570WAT      O46999   1.849   1.450   7.662
11570WAT     H147000   1.903   1.506   7.623
11570WAT     H247001   1.779   1.448   7.610
11570WAT    EPW47002   1.847   1.458   7.649
11571WAT      O47003   1.909   1.631   6.913
11571WAT     H147004   1.826   1.658   6.908
11571WAT     H247005   1.903   1.544   6.912
11571WAT    EPW47006   1.896   1.622   6.912
11572WAT      O47007   0.860   1.340   7.384
11572WAT     H147008   0.884   1.293   7.315
11572WAT     H247009   0.781   1.308   7.403
11572WAT    EPW47010   0.852   1.328   7.376
11573WAT      O47011   1.651   2.084   7.657
11573WAT     H147012   1.733   2.078   7.627
11573WAT     H247013   1.619   2.153   7.615
11573WAT    EPW47014   1.658   2.094   7.646
11574WAT      O47015   0.499   2.647   6.808
11574WAT     H147016   0.500   2.568   6.773
11574WAT     H247017   0.454   2.695   6.750
11574WAT    EPW47018   0.493   2.643   6.794
11575WAT      O47019   1.093   2.304   6.018
11575WAT     H147020   1.171   2.276   5.992
11575WAT     H247021   1.080   2.375   5.968
11575WAT    EPW47022   1.102   2.310   6.006
11576WAT      O47023   0.343   2.884   7.187
11576WAT     H147024   0.330   2.869   7.272
11576WAT     H247025   0.369   2.807   7.156
11576WAT    EPW47026   0.345   2.870   7.195
11577WAT      O47027   1.275   1.143   4.492
11577WAT     H147028   1.276   1.185   4.415
11577WAT     H247029   1.359   1.126   4.508
11577WAT    EPW47030   1.287   1.147   4.483
11578WAT      O47031   1.229   1.765   4.941
11578WAT     H147032   1.193   1.841   4.965
11578WAT     H247033   1.288   1.750   5.003
11578WAT    EPW47034   1.233   1.774   4.953
11579WAT      O47035   1.825   2.608   4.252
11579WAT     H147036   1.887   2.551   4.272
11579WAT     H247037   1.772   2.563   4.199
11579WAT    EPW47038   1.826   2.593   4.247
11580WAT      O47039   0.570   2.137   4.025
11580WAT     H147040   0.509   2.124   3.964
11580WAT     H247041   0.544   2.086   4.091
11580WAT    EPW47042   0.557   2.128   4.026
11581WAT      O47043   1.469   1.956   4.581
11581WAT     H147044   1.476   1.941   4.495
11581WAT     H247045   1.416   1.892   4.608
11581WAT    EPW47046   1.462   1.944   4.572
11582WAT      O47047   0.406   2.407   4.388
11582WAT     H147048   0.455   2.353   4.435
11582WAT     H247049   0.324   2.382   4.405
11582WAT    EPW47050   0.401   2.396   4.397
11583WAT      O47051   0.949   1.268   4.371
11583WAT     H147052   0.936   1.338   4.321
11583WAT     H247053   1.026   1.238   4.344
11583WAT    EPW47054   0.959   1.274   4.360
11584WAT      O47055   0.398   2.621   4.002
11584WAT     H147056   0.429   2.613   3.921
11584WAT     H247057   0.415   2.544   4.038
11584WAT    EPW47058   0.405   2.609   3.995
11585WAT      O47059   0.886   2.297   5.584
11585WAT     H147060   0.871   2.287   5.670
11585WAT     H247061   0.813   2.267   5.547
11585WAT    EPW47062   0.873   2.291   5.591
11586WAT      O47063   0.421   1.963   4.504
11586WAT     H147064   0.351   1.915   4.483
11586WAT     H247065   0.473   1.906   4.546
11586WAT    EPW47066   0.418   1.947   4.507
11587WAT      O47067   0.834   1.548   5.147
11587WAT     H147068   0.903   1.556   5.093
11587WAT     H247069   0.819   1.462   5.147
11587WAT    EPW47070   0.842   1.536   5.139
11588WAT      O47071   0.882   2.605   5.321
11588WAT     H147072   0.896   2.660   5.255
11588WAT     H247073   0.963   2.582   5.345
11588WAT    EPW47074   0.896   2.610   5.315
11589WAT      O47075   0.543   1.759   4.648
11589WAT     H147076   0.618   1.714   4.651
11589WAT     H247077   0.482   1.698   4.643
11589WAT    EPW47078   0.545   1.743   4.648
11590WAT      O47079   0.980   2.393   4.742
11590WAT     H147080   1.006   2.312   4.762
11590WAT     H247081   1.054   2.436   4.728
11590WAT    EPW47082   0.995   2.387   4.743
11591WAT      O47083   1.023   2.334   4.382
11591WAT     H147084   1.062   2.272   4.428
11591WAT     H247085   1.044   2.316   4.300
11591WAT    EPW47086   1.032   2.323   4.377
11592WAT      O47087   1.152   1.809   5.547
11592WAT     H147088   1.065   1.807   5.539
11592WAT     H247089   1.165   1.859   5.617
11592WAT    EPW47090   1.141   1.816   5.556
11593WAT      O47091   0.671   1.244   4.410
11593WAT     H147092   0.637   1.309   4.363
11593WAT     H247093   0.757   1.251   4.395
11593WAT    EPW47094   0.679   1.255   4.401
11594WAT      O47095   1.653   1.065   5.433
11594WAT     H147096   1.622   1.131   5.385
11594WAT     H247097   1.585   1.039   5.480
11594WAT    EPW47098   1.639   1.071   5.433
11595WAT      O47099   0.961   1.208   4.647
11595WAT     H147100   0.975   1.290   4.676
11595WAT     H247101   0.949   1.218   4.561
11595WAT    EPW47102   0.961   1.222   4.639
11596WAT      O47103   1.391   1.443   3.873
11596WAT     H147104   1.341   1.509   3.901
11596WAT     H247105   1.405   1.396   3.946
11596WAT    EPW47106   1.386   1.446   3.888
11597WAT      O47107   0.803   2.508   4.370
11597WAT     H147108   0.763   2.489   4.445
11597WAT     H247109   0.876   2.461   4.374
11597WAT    EPW47110   0.808   2.498   4.382
11598WAT      O47111   1.386   2.723   4.162
11598WAT     H147112   1.457   2.773   4.166
11598WAT     H247113   1.416   2.644   4.182
11598WAT    EPW47114   1.401   2.719   4.165
11599WAT      O47115   1.190   2.762   4.352
11599WAT     H147116   1.214   2.833   4.397
11599WAT     H247117   1.251   2.755   4.290
11599WAT    EPW47118   1.203   2.771   4.349
11600WAT      O47119   0.458   1.206   4.838
11600WAT     H147120   0.419   1.136   4.806
11600WAT     H247121   0.518   1.173   4.892
11600WAT    EPW47122   0.461   1.191   4.842
11601WAT      O47123   0.830   1.452   5.807
11601WAT     H147124   0.840   1.421   5.726
11601WAT     H247125   0.866   1.532   5.803
11601WAT    EPW47126   0.837   1.459   5.794
11602WAT      O47127   0.409   2.682   4.451
11602WAT     H147128   0.412   2.596   4.437
11602WAT     H247129   0.414   2.716   4.371
11602WAT    EPW47130   0.410   2.674   4.438
11603WAT      O47131   1.954   1.425   4.597
11603WAT     H147132   1.904   1.496   4.605
11603WAT     H247133   1.896   1.360   4.589
11603WAT    EPW47134   1.938   1.426   4.597
11604WAT      O47135   1.441   2.729   5.160
11604WAT     H147136   1.508   2.785   5.155
11604WAT     H247137   1.428   2.705   5.077
11604WAT    EPW47138   1.449   2.734   5.147
11605WAT      O47139   0.436   1.378   5.664
11605WAT     H147140   0.377   1.396   5.603
11605WAT     H247141   0.490   1.322   5.625
11605WAT    EPW47142   0.436   1.372   5.649
11606WAT      O47143   0.504   2.397   4.800
11606WAT     H147144   0.564   2.400   4.736
11606WAT     H247145   0.547   2.362   4.867
11606WAT    EPW47146   0.519   2.392   4.800
11607WAT      O47147   0.787   2.717   4.719
11607WAT     H147148   0.864   2.738   4.683
11607WAT     H247149   0.730   2.767   4.675
11607WAT    EPW47150   0.790   2.728   4.707
11608WAT      O47151   1.025   1.177   5.676
11608WAT     H147152   1.029   1.105   5.627
11608WAT     H247153   0.964   1.225   5.636
11608WAT    EPW47154   1.016   1.174   5.663
11609WAT      O47155   1.124   1.676   4.513
11609WAT     H147156   1.153   1.638   4.440
11609WAT     H247157   1.197   1.691   4.559
11609WAT    EPW47158   1.139   1.673   4.509
11610WAT      O47159   1.221   1.646   3.996
11610WAT     H147160   1.246   1.724   4.026
11610WAT     H247161   1.142   1.661   3.962
11610WAT    EPW47162   1.213   1.660   3.995
11611WAT      O47163   1.595   2.910   4.139
11611WAT     H147164   1.646   2.887   4.072
11611WAT     H247165   1.648   2.959   4.189
11611WAT    EPW47166   1.611   2.914   4.137
11612WAT      O47167   0.667   2.827   5.277
11612WAT     H147168   0.702   2.793   5.349
11612WAT     H247169   0.601   2.772   5.258
11612WAT    EPW47170   0.662   2.814   5.285
11613WAT      O47171   1.862   1.355   5.025
11613WAT     H147172   1.926   1.343   4.966
11613WAT     H247173   1.880   1.297   5.087
11613WAT    EPW47174   1.874   1.345   5.026
11614WAT      O47175   1.338   2.532   5.551
11614WAT     H147176   1.331   2.554   5.635
11614WAT     H247177   1.424   2.526   5.538
11614WAT    EPW47178   1.349   2.534   5.561
11615WAT      O47179   1.082   2.551   3.969
11615WAT     H147180   1.049   2.611   4.023
11615WAT     H247181   1.160   2.584   3.947
11615WAT    EPW47182   1.089   2.565   3.974
11616WAT      O47183   1.430   1.287   4.100
11616WAT     H147184   1.485   1.220   4.108
11616WAT     H247185   1.446   1.335   4.171
11616WAT    EPW47186   1.440   1.284   4.112
11617WAT      O47187   0.272   1.451   4.358
11617WAT     H147188   0.200   1.402   4.364
11617WAT     H247189   0.290   1.471   4.441
11617WAT    EPW47190   0.264   1.447   4.371
11618WAT      O47191   0.453   2.669   5.188
11618WAT     H147192   0.420   2.594   5.219
11618WAT     H247193   0.463   2.654   5.103
11618WAT    EPW47194   0.450   2.656   5.180
11619WAT      O47195   1.187   1.559   4.263
11619WAT     H147196   1.111   1.518   4.250
11619WAT     H247197   1.206   1.590   4.184
11619WAT    EPW47198   1.179   1.557   4.249
11620WAT      O47199   1.202   2.804   5.266
11620WAT     H147200   1.279   2.788   5.229
11620WAT     H247201   1.146   2.798   5.199
11620WAT    EPW47202   1.205   2.801   5.250
11621WAT      O47203   1.193   1.214   4.228
11621WAT     H147204   1.134   1.200   4.166
11621WAT     H247205   1.264   1.238   4.184
11621WAT    EPW47206   1.195   1.216   4.212
11622WAT      O47207   1.894   2.841   4.540
11622WAT     H147208   1.848   2.914   4.551
11622WAT     H247209   1.834   2.779   4.529
11622WAT    EPW47210   1.879   2.843   4.540
11623WAT      O47211   1.018   1.485   4.689
11623WAT     H147212   1.044   1.549   4.637
11623WAT     H247213   1.025   1.519   4.769
11623WAT    EPW47214   1.023   1.499   4.693
11624WAT      O47215   1.622   2.409   4.596
11624WAT     H147216   1.685   2.349   4.585
11624WAT     H247217   1.548   2.364   4.590
11624WAT    EPW47218   1.621   2.394   4.593
11625WAT      O47219   0.641   2.506   5.441
11625WAT     H147220   0.714   2.545   5.413
11625WAT     H247221   0.625   2.547   5.517
11625WAT    EPW47222   0.650   2.518   5.448
11626WAT      O47223   0.589   1.006   4.527
11626WAT     H147224   0.618   1.080   4.490
11626WAT     H247225   0.555   0.963   4.459
11626WAT    EPW47226   0.588   1.011   4.511
11627WAT      O47227   0.789   2.084   4.900
11627WAT     H147228   0.821   2.076   4.981
11627WAT     H247229   0.737   2.014   4.891
11627WAT    EPW47230   0.786   2.072   4.911
11628WAT      O47231   1.371   1.474   5.275
11628WAT     H147232   1.370   1.516   5.351
11628WAT     H247233   1.309   1.414   5.283
11628WAT    EPW47234   1.362   1.471   5.287
11629WAT      O47235   0.894   2.097   5.153
11629WAT     H147236   0.890   2.183   5.168
11629WAT     H247237   0.859   2.062   5.225
11629WAT    EPW47238   0.888   2.105   5.166
11630WAT      O47239   1.501   2.177   5.139
11630WAT     H147240   1.431   2.146   5.180
11630WAT     H247241   1.491   2.264   5.145
11630WAT    EPW47242   1.489   2.186   5.146
11631WAT      O47243   1.532   1.069   4.572
11631WAT     H147244   1.534   1.049   4.656
11631WAT     H247245   1.568   0.999   4.534
11631WAT    EPW47246   1.538   1.056   4.578
11632WAT      O47247   1.743   1.518   5.368
11632WAT     H147248   1.826   1.501   5.388
11632WAT     H247249   1.701   1.510   5.444
11632WAT    EPW47250   1.749   1.514   5.382
11633WAT      O47251   0.570   1.368   4.640
11633WAT     H147252   0.600   1.315   4.576
11633WAT     H247253   0.541   1.312   4.700
11633WAT    EPW47254   0.570   1.352   4.639
11634WAT      O47255   1.800   2.209   4.113
11634WAT     H147256   1.801   2.163   4.187
11634WAT     H247257   1.885   2.221   4.095
11634WAT    EPW47258   1.813   2.204   4.121
11635WAT      O47259   0.540   2.213   4.524
11635WAT     H147260   0.623   2.204   4.497
11635WAT     H247261   0.506   2.133   4.510
11635WAT    EPW47262   0.547   2.200   4.518
11636WAT      O47263   0.384   2.823   4.732
11636WAT     H147264   0.326   2.785   4.679
11636WAT     H247265   0.453   2.835   4.680
11636WAT    EPW47266   0.386   2.819   4.716
11637WAT      O47267   0.373   1.607   5.027
11637WAT     H147268   0.458   1.599   5.005
11637WAT     H247269   0.359   1.693   5.018
11637WAT    EPW47270   0.384   1.619   5.022
11638WAT      O47271   2.028   2.656   5.512
11638WAT     H147272   1.947   2.665   5.481
11638WAT     H247273   2.016   2.618   5.590
11638WAT    EPW47274   2.014   2.652   5.519
11639WAT      O47275   1.618   1.872   4.037
11639WAT     H147276   1.610   1.954   4.007
11639WAT     H247277   1.587   1.878   4.119
11639WAT    EPW47278   1.612   1.885   4.045
11640WAT      O47279   0.791   2.169   4.414
11640WAT     H147280   0.856   2.225   4.404
11640WAT     H247281   0.810   2.105   4.357
11640WAT    EPW47282   0.803   2.168   4.404
11641WAT      O47283   1.947   1.352   4.043
11641WAT     H147284   1.985   1.285   4.002
11641WAT     H247285   1.917   1.401   3.977
11641WAT    EPW47286   1.948   1.349   4.027
11642WAT      O47287   0.950   1.702   5.807
11642WAT     H147288   0.901   1.731   5.873
11642WAT     H247289   0.920   1.747   5.738
11642WAT    EPW47290   0.939   1.713   5.806
11643WAT      O47291   2.033   1.781   5.267
11643WAT     H147292   2.074   1.708   5.243
11643WAT     H247293   1.955   1.774   5.229
11643WAT    EPW47294   2.027   1.769   5.258
11644WAT      O47295   1.802   1.239   4.258
11644WAT     H147296   1.875   1.198   4.281
11644WAT     H247297   1.827   1.293   4.194
11644WAT    EPW47298   1.816   1.241   4.252
11645WAT      O47299   1.197   2.560   4.701
11645WAT     H147300   1.153   2.633   4.683
11645WAT     H247301   1.229   2.536   4.623
11645WAT    EPW47302   1.195   2.567   4.687
11646WAT      O47303   0.632   2.279   5.016
11646WAT     H147304   0.691   2.317   5.068
11646WAT     H247305   0.678   2.220   4.972
11646WAT    EPW47306   0.647   2.276   5.017
11647WAT      O47307   1.492   1.499   4.708
11647WAT     H147308   1.523   1.466   4.782
11647WAT     H247309   1.427   1.445   4.687
11647WAT    EPW47310   1.487   1.486   4.716
11648WAT      O47311   0.374   2.137   4.783
11648WAT     H147312   0.383   2.099   4.705
11648WAT     H247313   0.407   2.217   4.770
11648WAT    EPW47314   0.380   2.143   4.770
11649WAT      O47315   0.926   1.473   4.188
11649WAT     H147316   0.913   1.445   4.106
11649WAT     H247317   0.889   1.552   4.188
11649WAT    EPW47318   0.918   1.481   4.176
11650WAT      O47319   1.774   2.682   5.379
11650WAT     H147320   1.722   2.749   5.398
11650WAT     H247321   1.772   2.678   5.292
11650WAT    EPW47322   1.766   2.691   5.369
11651WAT      O47323   0.726   2.461   4.634
11651WAT     H147324   0.737   2.544   4.661
11651WAT     H247325   0.800   2.422   4.661
11651WAT    EPW47326   0.739   2.468   4.642
11652WAT      O47327   0.523   1.835   5.646
11652WAT     H147328   0.494   1.769   5.694
11652WAT     H247329   0.521   1.803   5.565
11652WAT    EPW47330   0.519   1.821   5.641
11653WAT      O47331   0.536   1.699   4.155
11653WAT     H147332   0.535   1.624   4.200
11653WAT     H247333   0.504   1.676   4.077
11653WAT    EPW47334   0.531   1.684   4.150
11654WAT      O47335   0.620   1.863   4.902
11654WAT     H147336   0.581   1.860   4.824
11654WAT     H247337   0.639   1.780   4.918
11654WAT    EPW47338   0.617   1.851   4.893
11655WAT      O47339   0.560   1.904   5.177
11655WAT     H147340   0.590   1.883   5.098
11655WAT     H247341   0.502   1.968   5.160
11655WAT    EPW47342   0.556   1.910   5.163
11656WAT      O47343   1.634   1.677   4.973
11656WAT     H147344   1.571   1.704   5.026
11656WAT     H247345   1.630   1.733   4.906
11656WAT    EPW47346   1.624   1.689   4.971
11657WAT      O47347   0.984   2.758   5.098
11657WAT     H147348   0.965   2.693   5.043
11657WAT     H247349   0.968   2.830   5.051
11657WAT    EPW47350   0.979   2.759   5.083
11658WAT      O47351   1.217   1.254   5.348
11658WAT     H147352   1.230   1.174   5.316
11658WAT     H247353   1.245   1.249   5.430
11658WAT    EPW47354   1.223   1.241   5.355
11659WAT      O47355   1.433   1.437   4.329
11659WAT     H147356   1.489   1.502   4.340
11659WAT     H247357   1.356   1.477   4.317
11659WAT    EPW47358   1.430   1.452   4.329
11660WAT      O47359   0.399   2.075   5.717
11660WAT     H147360   0.381   2.119   5.644
11660WAT     H247361   0.431   1.999   5.688
11660WAT    EPW47362   0.401   2.070   5.702
11661WAT      O47363   1.551   2.238   5.587
11661WAT     H147364   1.575   2.320   5.569
11661WAT     H247365   1.586   2.192   5.522
11661WAT    EPW47366   1.559   2.243   5.575
11662WAT      O47367   0.966   2.567   5.616
11662WAT     H147368   0.993   2.561   5.699
11662WAT     H247369   0.939   2.486   5.598
11662WAT    EPW47370   0.966   2.554   5.625
11663WAT      O47371   1.035   1.566   4.952
11663WAT     H147372   1.098   1.626   4.958
11663WAT     H247373   1.073   1.493   4.982
11663WAT    EPW47374   1.050   1.564   4.957
11664WAT      O47375   1.288   1.881   4.139
11664WAT     H147376   1.269   1.938   4.076
11664WAT     H247377   1.228   1.898   4.201
11664WAT    EPW47378   1.277   1.892   4.139
11665WAT      O47379   1.804   2.201   4.579
11665WAT     H147380   1.813   2.148   4.647
11665WAT     H247381   1.794   2.147   4.512
11665WAT    EPW47382   1.804   2.185   4.579
11666WAT      O47383   1.382   2.602   4.909
11666WAT     H147384   1.319   2.582   4.852
11666WAT     H247385   1.430   2.661   4.867
11666WAT    EPW47386   1.379   2.608   4.894
11667WAT      O47387   1.369   2.252   4.897
11667WAT     H147388   1.295   2.284   4.930
11667WAT     H247389   1.403   2.207   4.962
11667WAT    EPW47390   1.363   2.250   4.911
11668WAT      O47391   0.756   2.765   4.276
11668WAT     H147392   0.762   2.693   4.324
11668WAT     H247393   0.831   2.766   4.231
11668WAT    EPW47394   0.768   2.755   4.277
11669WAT      O47395   0.721   1.113   4.080
11669WAT     H147396   0.704   1.092   4.163
11669WAT     H247397   0.670   1.182   4.066
11669WAT    EPW47398   0.711   1.120   4.090
11670WAT      O47399   1.001   2.752   4.145
11670WAT     H147400   1.057   2.758   4.212
11670WAT     H247401   1.006   2.830   4.106
11670WAT    EPW47402   1.010   2.764   4.149
11671WAT      O47403   1.657   2.111   5.365
11671WAT     H147404   1.619   2.140   5.292
11671WAT     H247405   1.738   2.143   5.360
11671WAT    EPW47406   1.663   2.120   5.353
11672WAT      O47407   1.323   2.661   5.804
11672WAT     H147408   1.348   2.683   5.885
11672WAT     H247409   1.349   2.728   5.755
11672WAT    EPW47410   1.331   2.674   5.809
11673WAT      O47411   1.770   1.197   5.646
11673WAT     H147412   1.736   1.152   5.579
11673WAT     H247413   1.768   1.140   5.712
11673WAT    EPW47414   1.765   1.182   5.646
11674WAT      O47415   0.489   1.967   4.226
11674WAT     H147416   0.501   1.882   4.210
11674WAT     H247417   0.473   1.969   4.312
11674WAT    EPW47418   0.489   1.955   4.236
11675WAT      O47419   1.276   2.082   5.263
11675WAT     H147420   1.225   2.124   5.320
11675WAT     H247421   1.310   2.017   5.310
11675WAT    EPW47422   1.273   2.079   5.279
11676WAT      O47423   1.130   1.919   4.369
11676WAT     H147424   1.140   1.985   4.425
11676WAT     H247425   1.118   1.850   4.420
11676WAT    EPW47426   1.130   1.919   4.384
11677WAT      O47427   1.627   2.381   4.876
11677WAT     H147428   1.636   2.395   4.791
11677WAT     H247429   1.544   2.355   4.883
11677WAT    EPW47430   1.616   2.379   4.865
11678WAT      O47431   0.588   1.349   4.010
11678WAT     H147432   0.533   1.353   3.942
11678WAT     H247433   0.660   1.389   3.981
11678WAT    EPW47434   0.590   1.355   3.996
11679WAT      O47435   1.042   2.126   4.790
11679WAT     H147436   0.960   2.105   4.808
11679WAT     H247437   1.086   2.098   4.860
11679WAT    EPW47438   1.037   2.118   4.803
11680WAT      O47439   0.720   2.743   3.914
11680WAT     H147440   0.737   2.677   3.968
11680WAT     H247441   0.717   2.812   3.966
11680WAT    EPW47442   0.722   2.743   3.929
11681WAT      O47443   0.409   2.114   5.061
11681WAT     H147444   0.473   2.173   5.062
11681WAT     H247445   0.388   2.108   4.977
11681WAT    EPW47446   0.415   2.121   5.049
11682WAT      O47447   0.747   1.568   4.702
11682WAT     H147448   0.829   1.542   4.690
11682WAT     H247449   0.700   1.498   4.679
11682WAT    EPW47450   0.752   1.554   4.697
11683WAT      O47451   1.983   2.794   4.124
11683WAT     H147452   2.053   2.749   4.099
11683WAT     H247453   1.935   2.735   4.167
11683WAT    EPW47454   1.986   2.779   4.127
11684WAT      O47455   0.246   1.753   4.446
11684WAT     H147456   0.270   1.693   4.504
11684WAT     H247457   0.234   1.707   4.373
11684WAT    EPW47458   0.248   1.737   4.444
11685WAT      O47459   1.729   2.018   5.062
11685WAT     H147460   1.735   1.951   5.117
11685WAT     H247461   1.651   2.052   5.078
11685WAT    EPW47462   1.719   2.013   5.073
11686WAT      O47463   0.735   1.941   3.905
11686WAT     H147464   0.681   1.995   3.946
11686WAT     H247465   0.685   1.905   3.843
11686WAT    EPW47466   0.720   1.943   3.902
11687WAT      O47467   0.367   2.201   5.466
11687WAT     H147468   0.322   2.153   5.410
11687WAT     H247469   0.357   2.283   5.437
11687WAT    EPW47470   0.359   2.206   5.453
11688WAT      O47471   1.849   2.030   4.804
11688WAT     H147472   1.817   2.036   4.885
11688WAT     H247473   1.936   2.030   4.816
11688WAT    EPW47474   1.857   2.031   4.818
11689WAT      O47475   0.812   1.726   4.152
11689WAT     H147476   0.831   1.804   4.186
11689WAT     H247477   0.725   1.725   4.149
11689WAT    EPW47478   0.802   1.737   4.157
11690WAT      O47479   1.637   1.447   5.624
11690WAT     H147480   1.561   1.449   5.667
11690WAT     H247481   1.665   1.365   5.635
11690WAT    EPW47482   1.630   1.435   5.632
11691WAT      O47483   0.268   1.426   4.841
11691WAT     H147484   0.317   1.354   4.852
11691WAT     H247485   0.291   1.477   4.907
11691WAT    EPW47486   0.279   1.423   4.852
11692WAT      O47487   1.977   2.542   4.851
11692WAT     H147488   2.027   2.600   4.810
11692WAT     H247489   2.016   2.531   4.928
11692WAT    EPW47490   1.990   2.549   4.856
11693WAT      O47491   1.472   1.803   5.712
11693WAT     H147492   1.512   1.810   5.789
11693WAT     H247493   1.398   1.847   5.724
11693WAT    EPW47494   1.467   1.810   5.725
11694WAT      O47495   1.692   1.849   5.536
11694WAT     H147496   1.720   1.927   5.562
11694WAT     H247497   1.627   1.831   5.591
11694WAT    EPW47498   1.686   1.858   5.548
11695WAT      O47499   1.670   2.452   4.090
11695WAT     H147500   1.706   2.373   4.101
11695WAT     H247501   1.593   2.446   4.130
11695WAT    EPW47502   1.664   2.440   4.097
11696WAT      O47503   1.731   1.603   4.613
11696WAT     H147504   1.665   1.555   4.643
11696WAT     H247505   1.723   1.679   4.655
11696WAT    EPW47506   1.720   1.607   4.623
11697WAT      O47507   2.022   1.918   5.744
11697WAT     H147508   2.023   1.865   5.675
11697WAT     H247509   2.102   1.955   5.742
11697WAT    EPW47510   2.034   1.916   5.734
11698WAT      O47511   1.926   2.200   5.401
11698WAT     H147512   1.981   2.147   5.360
11698WAT     H247513   1.965   2.278   5.395
11698WAT    EPW47514   1.940   2.204   5.394
11699WAT      O47515   1.347   2.252   4.024
11699WAT     H147516   1.423   2.212   4.017
11699WAT     H247517   1.317   2.256   3.942
11699WAT    EPW47518   1.354   2.247   4.011
11700WAT      O47519   0.868   2.383   5.146
11700WAT     H147520   0.863   2.439   5.212
11700WAT     H247521   0.868   2.434   5.075
11700WAT    EPW47522   0.867   2.399   5.145
11701WAT      O47523   0.646   2.229   5.452
11701WAT     H147524   0.562   2.209   5.465
11701WAT     H247525   0.644   2.316   5.442
11701WAT    EPW47526   0.633   2.239   5.453
11702WAT      O47527   1.591   1.297   5.281
11702WAT     H147528   1.650   1.361   5.296
11702WAT     H247529   1.516   1.341   5.272
11702WAT    EPW47530   1.589   1.313   5.282
11703WAT      O47531   1.131   2.010   5.036
11703WAT     H147532   1.186   2.033   5.099
11703WAT     H247533   1.052   2.026   5.071
11703WAT    EPW47534   1.127   2.015   5.051
11704WAT      O47535   0.765   1.586   5.412
11704WAT     H147536   0.782   1.509   5.450
11704WAT     H247537   0.793   1.576   5.331
11704WAT    EPW47538   0.771   1.573   5.406
11705WAT      O47539   1.038   2.778   4.611
11705WAT     H147540   1.039   2.864   4.628
11705WAT     H247541   1.055   2.775   4.526
11705WAT    EPW47542   1.041   2.790   4.601
11706WAT      O47543   1.658   1.093   5.097
11706WAT     H147544   1.631   1.165   5.137
11706WAT     H247545   1.743   1.088   5.118
11706WAT    EPW47546   1.667   1.103   5.106
11707WAT      O47547   0.949   1.183   5.355
11707WAT     H147548   1.027   1.217   5.338
11707WAT     H247549   0.967   1.104   5.388
11707WAT    EPW47550   0.963   1.176   5.358
11708WAT      O47551   0.878   2.560   4.935
11708WAT     H147552   0.831   2.613   4.884
11708WAT     H247553   0.917   2.506   4.878
11708WAT    EPW47554   0.876   2.560   4.919
11709WAT      O47555   1.286   2.208   5.655
11709WAT     H147556   1.367   2.220   5.626
11709WAT     H247557   1.236   2.229   5.586
11709WAT    EPW47558   1.290   2.213   5.640
11710WAT      O47559   1.617   2.506   5.535
11710WAT     H147560   1.654   2.530   5.610
11710WAT     H247561   1.663   2.549   5.475
11710WAT    EPW47562   1.629   2.516   5.537
11711WAT      O47563   1.870   1.763   4.008
11711WAT     H147564   1.916   1.821   3.961
11711WAT     H247565   1.789   1.796   4.008
11711WAT    EPW47566   1.865   1.777   4.001
11712WAT      O47567   0.980   2.043   3.983
11712WAT     H147568   0.909   2.007   3.948
11712WAT     H247569   0.962   2.128   3.986
11712WAT    EPW47570   0.967   2.050   3.978
11713WAT      O47571   0.642   1.598   4.958
11713WAT     H147572   0.682   1.577   4.883
11713WAT     H247573   0.702   1.580   5.018
11713WAT    EPW47574   0.657   1.592   4.956
11714WAT      O47575   1.365   1.643   5.498
11714WAT     H147576   1.288   1.682   5.511
11714WAT     H247577   1.407   1.656   5.573
11714WAT    EPW47578   1.360   1.651   5.511
11715WAT      O47579   1.416   1.715   5.138
11715WAT     H147580   1.426   1.769   5.206
11715WAT     H247581   1.401   1.638   5.176
11715WAT    EPW47582   1.415   1.712   5.154
11716WAT      O47583   1.110   2.794   5.527
11716WAT     H147584   1.136   2.783   5.445
11716WAT     H247585   1.080   2.715   5.550
11716WAT    EPW47586   1.110   2.780   5.518
11717WAT      O47587   1.615   1.652   4.367
11717WAT     H147588   1.642   1.633   4.448
11717WAT     H247589   1.687   1.682   4.328
11717WAT    EPW47590   1.629   1.654   4.373
11718WAT      O47591   0.926   1.132   4.927
11718WAT     H147592   0.841   1.126   4.944
11718WAT     H247593   0.929   1.141   4.840
11718WAT    EPW47594   0.914   1.133   4.917
11719WAT      O47595   1.756   1.236   4.536
11719WAT     H147596   1.678   1.201   4.553
11719WAT     H247597   1.752   1.253   4.450
11719WAT    EPW47598   1.744   1.233   4.526
11720WAT      O47599   1.758   2.049   4.342
11720WAT     H147600   1.798   1.972   4.331
11720WAT     H247601   1.673   2.029   4.336
11720WAT    EPW47602   1.751   2.034   4.340
11721WAT      O47603   1.120   2.253   5.433
11721WAT     H147604   1.045   2.257   5.477
11721WAT     H247605   1.129   2.334   5.401
11721WAT    EPW47606   1.110   2.266   5.435
11722WAT      O47607   0.657   2.894   4.993
11722WAT     H147608   0.664   2.886   5.080
11722WAT     H247609   0.630   2.815   4.967
11722WAT    EPW47610   0.654   2.881   5.002
11723WAT      O47611   0.536   1.442   4.266
11723WAT     H147612   0.541   1.409   4.185
11723WAT     H247613   0.451   1.436   4.286
11723WAT    EPW47614   0.524   1.436   4.257
11724WAT      O47615   1.405   2.225   4.622
11724WAT     H147616   1.390   2.233   4.707
11724WAT     H247617   1.434   2.143   4.614
11724WAT    EPW47618   1.407   2.214   4.633
11725WAT      O47619   1.153   2.143   4.534
11725WAT     H147620   1.114   2.132   4.611
11725WAT     H247621   1.232   2.173   4.555
11725WAT    EPW47622   1.159   2.146   4.548
11726WAT      O47623   1.152   2.526   5.349
11726WAT     H147624   1.208   2.526   5.416
11726WAT     H247625   1.183   2.588   5.296
11726WAT    EPW47626   1.165   2.535   5.351
11727WAT      O47627   1.962   1.748   5.532
11727WAT     H147628   1.876   1.764   5.533
11727WAT     H247629   1.985   1.766   5.450
11727WAT    EPW47630   1.952   1.753   5.520
11728WAT      O47631   1.439   1.879   5.365
11728WAT     H147632   1.419   1.812   5.416
11728WAT     H247633   1.515   1.907   5.397
11728WAT    EPW47634   1.447   1.873   5.377
11729WAT      O47635   0.378   2.848   5.564
11729WAT     H147636   0.321   2.882   5.621
11729WAT     H247637   0.440   2.909   5.559
11729WAT    EPW47638   0.379   2.862   5.572
11730WAT      O47639   1.222   1.965   5.771
11730WAT     H147640   1.247   2.040   5.733
11730WAT     H247641   1.143   1.984   5.802
11730WAT    EPW47642   1.214   1.979   5.770
11731WAT      O47643   1.530   2.819   4.822
11731WAT     H147644   1.497   2.882   4.872
11731WAT     H247645   1.600   2.791   4.867
11731WAT    EPW47646   1.536   2.824   4.836
11732WAT      O47647   1.156   2.358   5.053
11732WAT     H147648   1.080   2.357   5.096
11732WAT     H247649   1.213   2.387   5.112
11732WAT    EPW47650   1.153   2.362   5.068
11733WAT      O47651   1.749   2.578   5.768
11733WAT     H147652   1.833   2.556   5.768
11733WAT     H247653   1.717   2.536   5.837
11733WAT    EPW47654   1.756   2.569   5.778
11734WAT      O47655   0.521   1.720   5.391
11734WAT     H147656   0.529   1.774   5.323
11734WAT     H247657   0.598   1.679   5.393
11734WAT    EPW47658   0.534   1.722   5.381
11735WAT      O47659   0.368   1.510   5.291
11735WAT     H147660   0.357   1.534   5.208
11735WAT     H247661   0.410   1.578   5.327
11735WAT    EPW47662   0.373   1.523   5.284
11736WAT      O47663   1.842   1.790   4.284
11736WAT     H147664   1.860   1.784   4.199
11736WAT     H247665   1.915   1.760   4.322
11736WAT    EPW47666   1.856   1.785   4.277
11737WAT      O47667   0.595   1.180   5.536
11737WAT     H147668   0.648   1.111   5.529
11737WAT     H247669   0.575   1.199   5.453
11737WAT    EPW47670   0.600   1.173   5.523
11738WAT      O47671   1.244   2.499   4.430
11738WAT     H147672   1.223   2.580   4.406
11738WAT     H247673   1.171   2.454   4.416
11738WAT    EPW47674   1.230   2.504   4.424
11739WAT      O47675   1.745   1.795   5.258
11739WAT     H147676   1.732   1.709   5.267
11739WAT     H247677   1.726   1.826   5.338
11739WAT    EPW47678   1.741   1.787   5.271
11740WAT      O47679   0.228   2.069   5.266
11740WAT     H147680   0.279   2.086   5.197
11740WAT     H247681   0.147   2.079   5.234
11740WAT    EPW47682   0.224   2.073   5.251
11741WAT      O47683   0.420   1.627   3.905
11741WAT     H147684   0.334   1.636   3.911
11741WAT     H247685   0.431   1.551   3.863
11741WAT    EPW47686   0.409   1.617   3.899
11742WAT      O47687   1.290   1.232   5.615
11742WAT     H147688   1.322   1.301   5.658
11742WAT     H247689   1.209   1.223   5.646
11742WAT    EPW47690   1.283   1.241   5.626
11743WAT      O47691   1.264   1.340   4.687
11743WAT     H147692   1.188   1.381   4.685
11743WAT     H247693   1.257   1.279   4.625
11743WAT    EPW47694   1.252   1.337   4.677
11744WAT      O47695   0.741   2.513   4.086
11744WAT     H147696   0.770   2.518   4.168
11744WAT     H247697   0.661   2.480   4.094
11744WAT    EPW47698   0.734   2.509   4.099
11745WAT      O47699   1.591   1.403   4.950
11745WAT     H147700   1.670   1.370   4.966
11745WAT     H247701   1.600   1.487   4.971
11745WAT    EPW47702   1.604   1.411   4.955
11746WAT      O47703   0.754   1.988   5.365
11746WAT     H147704   0.719   2.062   5.398
11746WAT     H247705   0.692   1.959   5.311
11746WAT    EPW47706   0.739   1.995   5.362
11747WAT      O47707   1.663   1.837   4.743
11747WAT     H147708   1.725   1.897   4.759
11747WAT     H247709   1.605   1.881   4.695
11747WAT    EPW47710   1.663   1.853   4.738
11748WAT      O47711   1.680   2.665   4.481
11748WAT     H147712   1.660   2.589   4.520
11748WAT     H247713   1.717   2.641   4.407
11748WAT    EPW47714   1.682   2.651   4.476
11749WAT      O47715   0.496   2.392   4.123
11749WAT     H147716   0.471   2.387   4.206
11749WAT     H247717   0.510   2.308   4.101
11749WAT    EPW47718   0.494   2.379   4.132
11750WAT      O47719   0.812   2.276   3.951
11750WAT     H147720   0.738   2.234   3.972
11750WAT     H247721   0.805   2.352   3.994
11750WAT    EPW47722   0.800   2.281   3.961
11751WAT      O47723   0.759   1.287   5.173
11751WAT     H147724   0.679   1.271   5.204
11751WAT     H247725   0.810   1.236   5.222
11751WAT    EPW47726   0.755   1.277   5.185
11752WAT      O47727   1.911   1.156   5.219
11752WAT     H147728   1.888   1.170   5.302
11752WAT     H247729   1.996   1.135   5.225
11752WAT    EPW47730   1.920   1.155   5.232
11753WAT      O47731   1.116   1.316   5.030
11753WAT     H147732   1.057   1.257   5.004
11753WAT     H247733   1.192   1.280   5.010
11753WAT    EPW47734   1.118   1.302   5.023
11754WAT      O47735   1.419   2.445   5.142
11754WAT     H147736   1.444   2.514   5.188
11754WAT     H247737   1.411   2.476   5.061
11754WAT    EPW47738   1.421   2.460   5.137
11755WAT      O47739   1.376   2.857   5.611
11755WAT     H147740   1.302   2.825   5.577
11755WAT     H247741   1.356   2.941   5.626
11755WAT    EPW47742   1.362   2.865   5.609
11756WAT      O47743   0.874   1.803   5.546
11756WAT     H147744   0.842   1.732   5.505
11756WAT     H247745   0.840   1.869   5.500
11756WAT    EPW47746   0.864   1.802   5.533
11757WAT      O47747   0.993   1.155   4.048
11757WAT     H147748   1.005   1.164   3.962
11757WAT     H247749   0.906   1.152   4.057
11757WAT    EPW47750   0.982   1.156   4.037
11758WAT      O47751   1.835   2.283   5.050
11758WAT     H147752   1.810   2.200   5.062
11758WAT     H247753   1.775   2.314   4.995
11758WAT    EPW47754   1.822   2.275   5.044
11759WAT      O47755   0.780   2.793   5.547
11759WAT     H147756   0.768   2.784   5.633
11759WAT     H247757   0.841   2.733   5.529
11759WAT    EPW47758   0.787   2.783   5.557
11760WAT      O47759   1.722   2.640   4.938
11760WAT     H147760   1.803   2.622   4.911
11760WAT     H247761   1.681   2.564   4.930
11760WAT    EPW47762   1.728   2.626   4.933
11761WAT      O47763   0.504   1.269   5.294
11761WAT     H147764   0.444   1.208   5.278
11761WAT     H247765   0.458   1.344   5.288
11761WAT    EPW47766   0.488   1.271   5.291
11762WAT      O47767   1.364   1.234   4.924
11762WAT     H147768   1.430   1.287   4.945
11762WAT     H247769   1.333   1.267   4.849
11762WAT    EPW47770   1.369   1.246   4.916
11763WAT      O47771   0.519   2.631   5.664
11763WAT     H147772   0.582   2.667   5.712
11763WAT     H247773   0.475   2.699   5.632
11763WAT    EPW47774   0.522   2.646   5.666
11764WAT      O47775   1.336   1.732   4.683
11764WAT     H147776   1.391   1.665   4.695
11764WAT     H247777   1.303   1.746   4.762
11764WAT    EPW47778   1.339   1.724   4.696
11765WAT      O47779   0.359   1.543   4.609
11765WAT     H147780   0.314   1.516   4.679
11765WAT     H247781   0.428   1.491   4.608
11765WAT    EPW47782   0.362   1.531   4.619
11766WAT      O47783   0.375   2.469   5.377
11766WAT     H147784   0.334   2.519   5.436
11766WAT     H247785   0.459   2.481   5.395
11766WAT    EPW47786   0.381   2.478   5.389
11767WAT      O47787   1.510   1.901   4.305
11767WAT     H147788   1.530   1.819   4.325
11767WAT     H247789   1.436   1.894   4.261
11767WAT    EPW47790   1.502   1.888   4.301
11768WAT      O47791   0.483   2.790   4.208
11768WAT     H147792   0.458   2.742   4.140
11768WAT     H247793   0.567   2.770   4.218
11768WAT    EPW47794   0.492   2.780   4.200
11769WAT      O47795   0.894   1.975   4.239
11769WAT     H147796   0.922   2.003   4.161
11769WAT     H247797   0.967   1.957   4.282
11769WAT    EPW47798   0.909   1.977   4.234
11770WAT      O47799   1.780   2.844   3.942
11770WAT     H147800   1.848   2.835   3.995
11770WAT     H247801   1.766   2.763   3.912
11770WAT    EPW47802   1.788   2.831   3.945
11771WAT      O47803   1.821   2.076   5.635
11771WAT     H147804   1.889   2.039   5.675
11771WAT     H247805   1.857   2.122   5.571
11771WAT    EPW47806   1.836   2.077   5.632
11772WAT      O47807   1.423   2.450   4.214
11772WAT     H147808   1.377   2.448   4.288
11772WAT     H247809   1.384   2.392   4.163
11772WAT    EPW47810   1.411   2.441   4.218
11773WAT      O47811   1.869   1.528   5.753
11773WAT     H147812   1.859   1.607   5.788
11773WAT     H247813   1.793   1.513   5.713
11773WAT    EPW47814   1.856   1.537   5.752
11774WAT      O47815   1.907   1.635   5.022
11774WAT     H147816   1.823   1.658   5.012
11774WAT     H247817   1.903   1.548   5.030
11774WAT    EPW47818   1.894   1.625   5.022
11775WAT      O47819   0.825   1.338   5.544
11775WAT     H147820   0.866   1.301   5.476
11775WAT     H247821   0.749   1.295   5.547
11775WAT    EPW47822   0.820   1.326   5.534
11776WAT      O47823   1.591   2.133   5.852
11776WAT     H147824   1.665   2.161   5.889
11776WAT     H247825   1.600   2.156   5.769
11776WAT    EPW47826   1.603   2.141   5.845
11777WAT      O47827   0.507   2.653   4.915
11777WAT     H147828   0.506   2.574   4.878
11777WAT     H247829   0.461   2.702   4.861
11777WAT    EPW47830   0.500   2.649   4.902
11778WAT      O47831   1.091   2.310   4.118
11778WAT     H147832   1.169   2.280   4.093
11778WAT     H247833   1.080   2.381   4.069
11778WAT    EPW47834   1.101   2.316   4.107
11779WAT      O47835   0.326   2.897   5.288
11779WAT     H147836   0.327   2.871   5.371
11779WAT     H247837   0.356   2.827   5.244
11779WAT    EPW47838   0.331   2.883   5.294
11780WAT      O47839   1.278   1.143   2.591
11780WAT     H147840   1.278   1.184   2.514
11780WAT     H247841   1.362   1.128   2.606
11780WAT    EPW47842   1.290   1.147   2.582
11781WAT      O47843   1.226   1.765   3.037
11781WAT     H147844   1.191   1.841   3.062
11781WAT     H247845   1.285   1.748   3.100
11781WAT    EPW47846   1.230   1.774   3.050
11782WAT      O47847   1.827   2.618   2.355
11782WAT     H147848   1.893   2.562   2.371
11782WAT     H247849   1.775   2.572   2.302
11782WAT    EPW47850   1.829   2.603   2.350
11783WAT      O47851   0.568   2.137   2.125
11783WAT     H147852   0.507   2.124   2.064
11783WAT     H247853   0.542   2.087   2.191
11783WAT    EPW47854   0.555   2.128   2.125
11784WAT      O47855   1.473   1.958   2.683
11784WAT     H147856   1.478   1.944   2.597
11784WAT     H247857   1.419   1.894   2.710
11784WAT    EPW47858   1.465   1.946   2.674
11785WAT      O47859   0.404   2.406   2.487
11785WAT     H147860   0.454   2.352   2.534
11785WAT     H247861   0.323   2.379   2.505
11785WAT    EPW47862   0.400   2.394   2.497
11786WAT      O47863   0.950   1.268   2.471
11786WAT     H147864   0.936   1.338   2.421
11786WAT     H247865   1.027   1.237   2.443
11786WAT    EPW47866   0.959   1.274   2.459
11787WAT      O47867   0.398   2.623   2.104
11787WAT     H147868   0.428   2.615   2.023
11787WAT     H247869   0.415   2.545   2.140
11787WAT    EPW47870   0.405   2.610   2.098
11788WAT      O47871   0.885   2.300   3.683
11788WAT     H147872   0.870   2.289   3.769
11788WAT     H247873   0.812   2.270   3.646
11788WAT    EPW47874   0.872   2.294   3.690
11789WAT      O47875   0.420   1.966   2.607
11789WAT     H147876   0.351   1.919   2.585
11789WAT     H247877   0.473   1.909   2.647
11789WAT    EPW47878   0.418   1.951   2.610
11790WAT      O47879   0.833   1.548   3.246
11790WAT     H147880   0.901   1.557   3.192
11790WAT     H247881   0.818   1.462   3.247
11790WAT    EPW47882   0.841   1.537   3.238
11791WAT      O47883   0.886   2.601   3.417
11791WAT     H147884   0.898   2.658   3.353
11791WAT     H247885   0.967   2.579   3.441
11791WAT    EPW47886   0.900   2.606   3.411
11792WAT      O47887   0.544   1.760   2.746
11792WAT     H147888   0.618   1.714   2.749
11792WAT     H247889   0.482   1.698   2.740
11792WAT    EPW47890   0.546   1.744   2.745
11793WAT      O47891   0.989   2.400   2.841
11793WAT     H147892   1.015   2.319   2.861
11793WAT     H247893   1.065   2.443   2.830
11793WAT    EPW47894   1.004   2.395   2.842
11794WAT      O47895   1.026   2.333   2.483
11794WAT     H147896   1.067   2.271   2.529
11794WAT     H247897   1.047   2.315   2.400
11794WAT    EPW47898   1.035   2.321   2.478
11795WAT      O47899   1.152   1.809   3.644
11795WAT     H147900   1.065   1.806   3.637
11795WAT     H247901   1.165   1.859   3.714
11795WAT    EPW47902   1.141   1.816   3.654
11796WAT      O47903   0.672   1.245   2.510
11796WAT     H147904   0.637   1.310   2.463
11796WAT     H247905   0.757   1.252   2.495
11796WAT    EPW47906   0.679   1.256   2.501
11797WAT      O47907   1.653   1.064   3.530
11797WAT     H147908   1.621   1.130   3.483
11797WAT     H247909   1.584   1.038   3.578
11797WAT    EPW47910   1.638   1.070   3.530
11798WAT      O47911   0.962   1.209   2.746
11798WAT     H147912   0.976   1.290   2.775
11798WAT     H247913   0.949   1.219   2.661
11798WAT    EPW47914   0.962   1.222   2.738
11799WAT      O47915   1.392   1.442   1.974
11799WAT     H147916   1.342   1.508   2.001
11799WAT     H247917   1.406   1.396   2.046
11799WAT    EPW47918   1.387   1.445   1.989
11800WAT      O47919   0.805   2.506   2.470
11800WAT     H147920   0.766   2.487   2.546
11800WAT     H247921   0.879   2.459   2.473
11800WAT    EPW47922   0.810   2.496   2.482
11801WAT      O47923   1.388   2.727   2.260
11801WAT     H147924   1.459   2.778   2.265
11801WAT     H247925   1.419   2.648   2.281
11801WAT    EPW47926   1.403   2.723   2.264
11802WAT      O47927   1.191   2.759   2.450
11802WAT     H147928   1.215   2.830   2.496
11802WAT     H247929   1.252   2.755   2.387
11802WAT    EPW47930   1.204   2.769   2.448
11803WAT      O47931   0.457   1.207   2.938
11803WAT     H147932   0.418   1.136   2.906
11803WAT     H247933   0.517   1.174   2.992
11803WAT    EPW47934   0.460   1.192   2.941
11804WAT      O47935   0.829   1.451   3.909
11804WAT     H147936   0.838   1.420   3.828
11804WAT     H247937   0.865   1.531   3.905
11804WAT    EPW47938   0.836   1.458   3.896
11805WAT      O47939   0.407   2.680   2.552
11805WAT     H147940   0.410   2.594   2.537
11805WAT     H247941   0.412   2.715   2.472
11805WAT    EPW47942   0.408   2.672   2.538
11806WAT      O47943   1.957   1.433   2.699
11806WAT     H147944   1.904   1.503   2.705
11806WAT     H247945   1.901   1.366   2.689
11806WAT    EPW47946   1.941   1.434   2.698
11807WAT      O47947   1.447   2.747   3.258
11807WAT     H147948   1.515   2.800   3.244
11807WAT     H247949   1.429   2.718   3.178
11807WAT    EPW47950   1.455   2.751   3.244
11808WAT      O47951   0.435   1.376   3.767
11808WAT     H147952   0.374   1.392   3.706
11808WAT     H247953   0.489   1.321   3.727
11808WAT    EPW47954   0.434   1.370   3.752
11809WAT      O47955   0.505   2.395   2.898
11809WAT     H147956   0.566   2.398   2.835
11809WAT     H247957   0.548   2.360   2.965
11809WAT    EPW47958   0.521   2.390   2.898
11810WAT      O47959   0.787   2.718   2.817
11810WAT     H147960   0.864   2.738   2.782
11810WAT     H247961   0.730   2.767   2.773
11810WAT    EPW47962   0.790   2.728   2.806
11811WAT      O47963   1.024   1.177   3.776
11811WAT     H147964   1.028   1.104   3.728
11811WAT     H247965   0.963   1.225   3.737
11811WAT    EPW47966   1.016   1.173   3.763
11812WAT      O47967   1.125   1.679   2.612
11812WAT     H147968   1.153   1.640   2.539
11812WAT     H247969   1.198   1.693   2.658
11812WAT    EPW47970   1.140   1.675   2.608
11813WAT      O47971   1.221   1.645   2.097
11813WAT     H147972   1.247   1.723   2.126
11813WAT     H247973   1.143   1.660   2.063
11813WAT    EPW47974   1.214   1.659   2.096
11814WAT      O47975   1.598   2.915   2.242
11814WAT     H147976   1.647   2.892   2.173
11814WAT     H247977   1.653   2.959   2.293
11814WAT    EPW47978   1.614   2.918   2.239
11815WAT      O47979   0.671   2.825   3.379
11815WAT     H147980   0.706   2.792   3.452
11815WAT     H247981   0.606   2.770   3.360
11815WAT    EPW47982   0.667   2.812   3.387
11816WAT      O47983   1.865   1.353   3.117
11816WAT     H147984   1.928   1.337   3.060
11816WAT     H247985   1.880   1.296   3.181
11816WAT    EPW47986   1.876   1.343   3.118
11817WAT      O47987   1.345   2.537   3.643
11817WAT     H147988   1.336   2.557   3.727
11817WAT     H247989   1.431   2.529   3.632
11817WAT    EPW47990   1.356   2.539   3.654
11818WAT      O47991   1.081   2.548   2.071
11818WAT     H147992   1.048   2.609   2.125
11818WAT     H247993   1.159   2.581   2.048
11818WAT    EPW47994   1.088   2.562   2.076
11819WAT      O47995   1.431   1.288   2.202
11819WAT     H147996   1.487   1.222   2.210
11819WAT     H247997   1.448   1.337   2.273
11819WAT    EPW47998   1.442   1.286   2.214
11820WAT      O47999   0.272   1.450   2.457
11820WAT     H148000   0.200   1.402   2.463
11820WAT     H248001   0.290   1.471   2.540
11820WAT    EPW48002   0.264   1.446   2.470
11821WAT      O48003   0.457   2.669   3.288
11821WAT     H148004   0.422   2.595   3.318
11821WAT     H248005   0.465   2.653   3.202
11821WAT    EPW48006   0.453   2.655   3.279
11822WAT      O48007   1.187   1.559   2.363
11822WAT     H148008   1.112   1.518   2.351
11822WAT     H248009   1.207   1.590   2.284
11822WAT    EPW48010   1.179   1.558   2.350
11823WAT      O48011   1.203   2.803   3.365
11823WAT     H148012   1.280   2.791   3.326
11823WAT     H248013   1.146   2.798   3.298
11823WAT    EPW48014   1.206   2.800   3.349
11824WAT      O48015   1.194   1.215   2.329
11824WAT     H148016   1.135   1.201   2.266
11824WAT     H248017   1.266   1.239   2.284
11824WAT    EPW48018   1.196   1.216   2.313
11825WAT      O48019   1.891   2.835   2.642
11825WAT     H148020   1.851   2.911   2.656
11825WAT     H248021   1.826   2.779   2.630
11825WAT    EPW48022   1.876   2.838   2.642
11826WAT      O48023   1.018   1.486   2.787
11826WAT     H148024   1.044   1.551   2.735
11826WAT     H248025   1.024   1.520   2.867
11826WAT    EPW48026   1.023   1.500   2.791
11827WAT      O48027   1.635   2.412   2.705
11827WAT     H148028   1.698   2.353   2.692
11827WAT     H248029   1.562   2.364   2.698
11827WAT    EPW48030   1.633   2.396   2.702
11828WAT      O48031   0.645   2.504   3.533
11828WAT     H148032   0.718   2.542   3.504
11828WAT     H248033   0.627   2.546   3.608
11828WAT    EPW48034   0.653   2.516   3.540
11829WAT      O48035   0.589   1.008   2.627
11829WAT     H148036   0.619   1.081   2.591
11829WAT     H248037   0.556   0.964   2.560
11829WAT    EPW48038   0.589   1.012   2.612
11830WAT      O48039   0.791   2.086   2.996
11830WAT     H148040   0.823   2.077   3.077
11830WAT     H248041   0.739   2.017   2.986
11830WAT    EPW48042   0.788   2.074   3.006
11831WAT      O48043   1.370   1.472   3.374
11831WAT     H148044   1.370   1.515   3.450
11831WAT     H248045   1.307   1.412   3.384
11831WAT    EPW48046   1.361   1.469   3.387
11832WAT      O48047   0.894   2.095   3.250
11832WAT     H148048   0.891   2.181   3.265
11832WAT     H248049   0.859   2.060   3.322
11832WAT    EPW48050   0.888   2.102   3.263
11833WAT      O48051   1.499   2.190   3.243
11833WAT     H148052   1.425   2.159   3.278
11833WAT     H248053   1.489   2.277   3.250
11833WAT    EPW48054   1.486   2.198   3.249
11834WAT      O48055   1.538   1.073   2.669
11834WAT     H148056   1.536   1.052   2.754
11834WAT     H248057   1.573   1.002   2.632
11834WAT    EPW48058   1.543   1.059   2.676
11835WAT      O48059   1.740   1.516   3.468
11835WAT     H148060   1.822   1.499   3.490
11835WAT     H248061   1.697   1.509   3.544
11835WAT    EPW48062   1.746   1.513   3.482
11836WAT      O48063   0.569   1.369   2.739
11836WAT     H148064   0.599   1.316   2.676
11836WAT     H248065   0.540   1.313   2.800
11836WAT    EPW48066   0.569   1.353   2.739
11837WAT      O48067   1.797   2.213   2.218
11837WAT     H148068   1.799   2.166   2.292
11837WAT     H248069   1.882   2.223   2.198
11837WAT    EPW48070   1.810   2.208   2.226
11838WAT      O48071   0.543   2.215   2.623
11838WAT     H148072   0.626   2.205   2.597
11838WAT     H248073   0.509   2.136   2.612
11838WAT    EPW48074   0.550   2.202   2.618
11839WAT      O48075   0.384   2.819   2.829
11839WAT     H148076   0.328   2.780   2.776
11839WAT     H248077   0.454   2.833   2.778
11839WAT    EPW48078   0.386   2.816   2.814
11840WAT      O48079   0.373   1.609   3.123
11840WAT     H148080   0.457   1.601   3.103
11840WAT     H248081   0.358   1.695   3.116
11840WAT    EPW48082   0.383   1.621   3.119
11841WAT      O48083   2.034   2.636   3.603
11841WAT     H148084   1.957   2.637   3.560
11841WAT     H248085   2.015   2.595   3.677
11841WAT    EPW48086   2.020   2.630   3.607
11842WAT      O48087   1.620   1.876   2.138
11842WAT     H148088   1.612   1.957   2.107
11842WAT     H248089   1.587   1.881   2.219
11842WAT    EPW48090   1.614   1.889   2.145
11843WAT      O48091   0.795   2.167   2.517
11843WAT     H148092   0.860   2.224   2.506
11843WAT     H248093   0.813   2.104   2.460
11843WAT    EPW48094   0.807   2.166   2.507
11844WAT      O48095   1.952   1.352   2.142
11844WAT     H148096   1.986   1.284   2.099
11844WAT     H248097   1.919   1.402   2.079
11844WAT    EPW48098   1.952   1.349   2.126
11845WAT      O48099   0.950   1.701   3.906
11845WAT     H148100   0.902   1.731   3.973
11845WAT     H248101   0.920   1.746   3.838
11845WAT    EPW48102   0.939   1.712   3.906
11846WAT      O48103   2.018   1.794   3.365
11846WAT     H148104   2.047   1.719   3.332
11846WAT     H248105   1.933   1.793   3.345
11846WAT    EPW48106   2.010   1.782   3.357
11847WAT      O48107   1.808   1.240   2.359
11847WAT     H148108   1.882   1.199   2.380
11847WAT     H248109   1.833   1.292   2.293
11847WAT    EPW48110   1.823   1.241   2.352
11848WAT      O48111   1.208   2.569   2.803
11848WAT     H148112   1.160   2.639   2.783
11848WAT     H248113   1.237   2.542   2.725
11848WAT    EPW48114   1.205   2.575   2.788
11849WAT      O48115   0.632   2.278   3.115
11849WAT     H148116   0.692   2.316   3.167
11849WAT     H248117   0.679   2.220   3.070
11849WAT    EPW48118   0.648   2.275   3.116
11850WAT      O48119   1.494   1.503   2.807
11850WAT     H148120   1.524   1.468   2.881
11850WAT     H248121   1.429   1.448   2.784
11850WAT    EPW48122   1.489   1.489   2.814
11851WAT      O48123   0.376   2.133   2.881
11851WAT     H148124   0.382   2.094   2.803
11851WAT     H248125   0.409   2.213   2.867
11851WAT    EPW48126   0.382   2.139   2.867
11852WAT      O48127   0.926   1.473   2.288
11852WAT     H148128   0.913   1.445   2.207
11852WAT     H248129   0.888   1.552   2.288
11852WAT    EPW48130   0.918   1.481   2.276
11853WAT      O48131   1.784   2.661   3.452
11853WAT     H148132   1.744   2.738   3.460
11853WAT     H248133   1.778   2.643   3.367
11853WAT    EPW48134   1.777   2.669   3.441
11854WAT      O48135   0.732   2.460   2.735
11854WAT     H148136   0.740   2.543   2.761
11854WAT     H248137   0.806   2.423   2.761
11854WAT    EPW48138   0.744   2.467   2.743
11855WAT      O48139   0.525   1.834   3.745
11855WAT     H148140   0.495   1.768   3.793
11855WAT     H248141   0.522   1.803   3.663
11855WAT    EPW48142   0.520   1.820   3.740
11856WAT      O48143   0.534   1.700   2.256
11856WAT     H148144   0.534   1.625   2.301
11856WAT     H248145   0.503   1.677   2.178
11856WAT    EPW48146   0.530   1.685   2.251
11857WAT      O48147   0.622   1.866   2.998
11857WAT     H148148   0.582   1.863   2.921
11857WAT     H248149   0.640   1.782   3.015
11857WAT    EPW48150   0.619   1.853   2.989
11858WAT      O48151   0.561   1.902   3.275
11858WAT     H148152   0.593   1.882   3.197
11858WAT     H248153   0.504   1.966   3.258
11858WAT    EPW48154   0.558   1.909   3.261
11859WAT      O48155   1.637   1.680   3.074
11859WAT     H148156   1.570   1.703   3.125
11859WAT     H248157   1.632   1.735   3.007
11859WAT    EPW48158   1.626   1.691   3.072
11860WAT      O48159   0.987   2.759   3.196
11860WAT     H148160   0.966   2.694   3.141
11860WAT     H248161   0.967   2.831   3.150
11860WAT    EPW48162   0.981   2.760   3.181
11861WAT      O48163   1.215   1.253   3.449
11861WAT     H148164   1.229   1.173   3.417
11861WAT     H248165   1.244   1.248   3.531
11861WAT    EPW48166   1.221   1.240   3.456
11862WAT      O48167   1.435   1.441   2.430
11862WAT     H148168   1.491   1.507   2.440
11862WAT     H248169   1.359   1.480   2.417
11862WAT    EPW48170   1.432   1.456   2.429
11863WAT      O48171   0.402   2.075   3.815
11863WAT     H148172   0.383   2.118   3.742
11863WAT     H248173   0.433   1.999   3.786
11863WAT    EPW48174   0.404   2.070   3.800
11864WAT      O48175   1.545   2.243   3.690
11864WAT     H148176   1.574   2.322   3.668
11864WAT     H248177   1.574   2.191   3.627
11864WAT    EPW48178   1.553   2.247   3.678
11865WAT      O48179   0.972   2.569   3.714
11865WAT     H148180   0.998   2.564   3.797
11865WAT     H248181   0.942   2.489   3.697
11865WAT    EPW48182   0.971   2.556   3.723
11866WAT      O48183   1.032   1.566   3.050
11866WAT     H148184   1.095   1.626   3.055
11866WAT     H248185   1.070   1.494   3.080
11866WAT    EPW48186   1.047   1.564   3.055
11867WAT      O48187   1.291   1.881   2.239
11867WAT     H148188   1.271   1.935   2.173
11867WAT     H248189   1.230   1.898   2.299
11867WAT    EPW48190   1.279   1.891   2.238
11868WAT      O48191   1.825   2.209   2.671
11868WAT     H148192   1.828   2.160   2.743
11868WAT     H248193   1.799   2.153   2.609
11868WAT    EPW48194   1.821   2.193   2.673
11869WAT      O48195   1.388   2.621   3.013
11869WAT     H148196   1.329   2.599   2.953
11869WAT     H248197   1.435   2.683   2.974
11869WAT    EPW48198   1.386   2.627   2.999
11870WAT      O48199   1.373   2.264   2.999
11870WAT     H148200   1.299   2.296   3.033
11870WAT     H248201   1.408   2.220   3.065
11870WAT    EPW48202   1.367   2.263   3.013
11871WAT      O48203   0.757   2.763   2.378
11871WAT     H148204   0.763   2.690   2.425
11871WAT     H248205   0.831   2.764   2.331
11871WAT    EPW48206   0.769   2.753   2.378
11872WAT      O48207   0.721   1.114   2.182
11872WAT     H148208   0.704   1.094   2.265
11872WAT     H248209   0.670   1.183   2.167
11872WAT    EPW48210   0.711   1.121   2.192
11873WAT      O48211   1.001   2.750   2.246
11873WAT     H148212   1.057   2.756   2.312
11873WAT     H248213   1.006   2.827   2.207
11873WAT    EPW48214   1.010   2.762   2.250
11874WAT      O48215   1.626   2.091   3.472
11874WAT     H148216   1.593   2.129   3.401
11874WAT     H248217   1.711   2.112   3.469
11874WAT    EPW48218   1.634   2.100   3.461
11875WAT      O48219   1.329   2.668   3.896
11875WAT     H148220   1.351   2.688   3.978
11875WAT     H248221   1.362   2.733   3.849
11875WAT    EPW48222   1.337   2.681   3.901
11876WAT      O48223   1.766   1.197   3.745
11876WAT     H148224   1.733   1.152   3.678
11876WAT     H248225   1.765   1.140   3.811
11876WAT    EPW48226   1.761   1.181   3.745
11877WAT      O48227   0.488   1.968   2.328
11877WAT     H148228   0.500   1.883   2.311
11877WAT     H248229   0.473   1.971   2.413
11877WAT    EPW48230   0.488   1.956   2.338
11878WAT      O48231   1.271   2.090   3.358
11878WAT     H148232   1.220   2.130   3.415
11878WAT     H248233   1.301   2.021   3.401
11878WAT    EPW48234   1.268   2.086   3.373
11879WAT      O48235   1.133   1.922   2.468
11879WAT     H148236   1.145   1.988   2.524
11879WAT     H248237   1.120   1.853   2.520
11879WAT    EPW48238   1.132   1.921   2.484
11880WAT      O48239   1.626   2.401   2.989
11880WAT     H148240   1.641   2.414   2.904
11880WAT     H248241   1.544   2.371   2.990
11880WAT    EPW48242   1.616   2.398   2.976
11881WAT      O48243   0.588   1.349   2.110
11881WAT     H148244   0.533   1.353   2.042
11881WAT     H248245   0.660   1.389   2.081
11881WAT    EPW48246   0.591   1.355   2.096
11882WAT      O48247   1.046   2.132   2.888
11882WAT     H148248   0.963   2.111   2.904
11882WAT     H248249   1.088   2.102   2.958
11882WAT    EPW48250   1.040   2.124   2.901
11883WAT      O48251   0.721   2.741   2.012
11883WAT     H148252   0.739   2.675   2.067
11883WAT     H248253   0.718   2.810   2.065
11883WAT    EPW48254   0.723   2.741   2.028
11884WAT      O48255   0.410   2.111   3.159
11884WAT     H148256   0.474   2.171   3.160
11884WAT     H248257   0.389   2.105   3.075
11884WAT    EPW48258   0.417   2.119   3.147
11885WAT      O48259   0.746   1.568   2.801
11885WAT     H148260   0.829   1.542   2.789
11885WAT     H248261   0.699   1.498   2.778
11885WAT    EPW48262   0.752   1.554   2.796
11886WAT      O48263   1.997   2.782   2.208
11886WAT     H148264   2.061   2.733   2.177
11886WAT     H248265   1.946   2.726   2.252
11886WAT    EPW48266   1.999   2.767   2.210
11887WAT      O48267   0.248   1.755   2.544
11887WAT     H148268   0.271   1.694   2.602
11887WAT     H248269   0.236   1.710   2.470
11887WAT    EPW48270   0.250   1.740   2.541
11888WAT      O48271   1.743   2.062   3.166
11888WAT     H148272   1.743   1.989   3.214
11888WAT     H248273   1.663   2.094   3.177
11888WAT    EPW48274   1.731   2.056   3.175
11889WAT      O48275   0.733   1.939   2.006
11889WAT     H148276   0.679   1.995   2.046
11889WAT     H248277   0.683   1.904   1.944
11889WAT    EPW48278   0.718   1.942   2.003
11890WAT      O48279   0.369   2.201   3.564
11890WAT     H148280   0.323   2.153   3.508
11890WAT     H248281   0.358   2.283   3.535
11890WAT    EPW48282   0.360   2.206   3.552
11891WAT      O48283   1.849   2.046   2.904
11891WAT     H148284   1.819   2.059   2.984
11891WAT     H248285   1.935   2.040   2.915
11891WAT    EPW48286   1.857   2.047   2.917
11892WAT      O48287   0.811   1.725   2.253
11892WAT     H148288   0.831   1.803   2.287
11892WAT     H248289   0.724   1.725   2.250
11892WAT    EPW48290   0.801   1.737   2.258
11893WAT      O48291   1.634   1.448   3.725
11893WAT     H148292   1.558   1.449   3.768
11893WAT     H248293   1.662   1.366   3.735
11893WAT    EPW48294   1.627   1.436   3.733
11894WAT      O48295   0.267   1.427   2.938
11894WAT     H148296   0.316   1.355   2.951
11894WAT     H248297   0.290   1.479   3.004
11894WAT    EPW48298   0.278   1.424   2.950
11895WAT      O48299   1.992   2.553   2.991
11895WAT     H148300   2.027   2.602   2.928
11895WAT     H248301   2.057   2.546   3.050
11895WAT    EPW48302   2.007   2.559   2.990
11896WAT      O48303   1.469   1.802   3.811
11896WAT     H148304   1.509   1.809   3.888
11896WAT     H248305   1.395   1.847   3.823
11896WAT    EPW48306   1.464   1.810   3.824
11897WAT      O48307   1.699   1.839   3.645
11897WAT     H148308   1.722   1.919   3.670
11897WAT     H248309   1.628   1.822   3.694
11897WAT    EPW48310   1.692   1.848   3.656
11898WAT      O48311   1.673   2.459   2.195
11898WAT     H148312   1.708   2.380   2.205
11898WAT     H248313   1.595   2.452   2.234
11898WAT    EPW48314   1.666   2.446   2.202
11899WAT      O48315   1.733   1.609   2.715
11899WAT     H148316   1.666   1.562   2.744
11899WAT     H248317   1.725   1.685   2.757
11899WAT    EPW48318   1.722   1.614   2.725
11900WAT      O48319   2.015   1.925   3.840
11900WAT     H148320   2.020   1.869   3.774
11900WAT     H248321   2.093   1.964   3.839
11900WAT    EPW48322   2.028   1.923   3.830
11901WAT      O48323   1.892   2.180   3.478
11901WAT     H148324   1.963   2.135   3.457
11901WAT     H248325   1.885   2.239   3.414
11901WAT    EPW48326   1.901   2.182   3.465
11902WAT      O48327   1.349   2.258   2.124
11902WAT     H148328   1.425   2.216   2.117
11902WAT     H248329   1.319   2.262   2.042
11902WAT    EPW48330   1.356   2.253   2.111
11903WAT      O48331   0.872   2.381   3.241
11903WAT     H148332   0.867   2.436   3.308
11903WAT     H248333   0.870   2.432   3.171
11903WAT    EPW48334   0.871   2.397   3.241
11904WAT      O48335   0.647   2.228   3.550
11904WAT     H148336   0.563   2.208   3.563
11904WAT     H248337   0.646   2.315   3.537
11904WAT    EPW48338   0.634   2.238   3.550
11905WAT      O48339   1.590   1.296   3.379
11905WAT     H148340   1.648   1.359   3.395
11905WAT     H248341   1.514   1.339   3.371
11905WAT    EPW48342   1.587   1.312   3.380
11906WAT      O48343   1.130   2.011   3.131
11906WAT     H148344   1.185   2.037   3.193
11906WAT     H248345   1.052   2.024   3.166
11906WAT    EPW48346   1.127   2.017   3.145
11907WAT      O48347   0.763   1.585   3.512
11907WAT     H148348   0.781   1.508   3.550
11907WAT     H248349   0.792   1.576   3.431
11907WAT    EPW48350   0.770   1.573   3.506
11908WAT      O48351   1.039   2.778   2.711
11908WAT     H148352   1.037   2.864   2.727
11908WAT     H248353   1.052   2.774   2.625
11908WAT    EPW48354   1.040   2.790   2.701
11909WAT      O48355   1.656   1.093   3.193
11909WAT     H148356   1.629   1.165   3.234
11909WAT     H248357   1.740   1.088   3.214
11909WAT    EPW48358   1.664   1.103   3.202
11910WAT      O48359   0.947   1.182   3.457
11910WAT     H148360   1.026   1.216   3.440
11910WAT     H248361   0.966   1.103   3.490
11910WAT    EPW48362   0.962   1.176   3.459
11911WAT      O48363   0.878   2.561   3.034
11911WAT     H148364   0.830   2.614   2.984
11911WAT     H248365   0.919   2.510   2.976
11911WAT    EPW48366   0.877   2.561   3.018
11912WAT      O48367   1.280   2.213   3.756
11912WAT     H148368   1.361   2.227   3.728
11912WAT     H248369   1.230   2.233   3.687
11912WAT    EPW48370   1.285   2.218   3.742
11913WAT      O48371   1.623   2.506   3.625
11913WAT     H148372   1.660   2.532   3.700
11913WAT     H248373   1.671   2.546   3.564
11913WAT    EPW48374   1.636   2.516   3.627
11914WAT      O48375   1.875   1.771   2.110
11914WAT     H148376   1.921   1.828   2.063
11914WAT     H248377   1.794   1.804   2.109
11914WAT    EPW48378   1.870   1.784   2.103
11915WAT      O48379   0.979   2.042   2.083
11915WAT     H148380   0.907   2.006   2.047
11915WAT     H248381   0.960   2.127   2.086
11915WAT    EPW48382   0.965   2.049   2.078
11916WAT      O48383   0.642   1.601   3.057
11916WAT     H148384   0.682   1.579   2.982
11916WAT     H248385   0.702   1.583   3.118
11916WAT    EPW48386   0.657   1.595   3.055
11917WAT      O48387   1.366   1.644   3.596
11917WAT     H148388   1.289   1.682   3.607
11917WAT     H248389   1.407   1.658   3.671
11917WAT    EPW48390   1.361   1.652   3.608
11918WAT      O48391   1.412   1.709   3.232
11918WAT     H148392   1.419   1.765   3.299
11918WAT     H248393   1.397   1.633   3.271
11918WAT    EPW48394   1.411   1.706   3.248
11919WAT      O48395   1.131   2.790   3.633
11919WAT     H148396   1.149   2.782   3.547
11919WAT     H248397   1.096   2.713   3.654
11919WAT    EPW48398   1.128   2.777   3.623
11920WAT      O48399   1.619   1.656   2.467
11920WAT     H148400   1.645   1.637   2.548
11920WAT     H248401   1.691   1.686   2.428
11920WAT    EPW48402   1.633   1.658   2.473
11921WAT      O48403   0.926   1.133   3.026
11921WAT     H148404   0.841   1.126   3.044
11921WAT     H248405   0.929   1.141   2.940
11921WAT    EPW48406   0.914   1.133   3.016
11922WAT      O48407   1.762   1.240   2.636
11922WAT     H148408   1.684   1.205   2.653
11922WAT     H248409   1.759   1.256   2.550
11922WAT    EPW48410   1.750   1.237   2.625
11923WAT      O48411   1.756   2.050   2.447
11923WAT     H148412   1.798   1.974   2.436
11923WAT     H248413   1.672   2.029   2.438
11923WAT    EPW48414   1.750   2.036   2.444
11924WAT      O48415   1.118   2.257   3.531
11924WAT     H148416   1.043   2.260   3.576
11924WAT     H248417   1.127   2.338   3.500
11924WAT    EPW48418   1.108   2.269   3.533
11925WAT      O48419   0.652   2.895   3.094
11925WAT     H148420   0.661   2.887   3.181
11925WAT     H248421   0.626   2.815   3.069
11925WAT    EPW48422   0.650   2.882   3.103
11926WAT      O48423   0.536   1.442   2.366
11926WAT     H148424   0.541   1.410   2.285
11926WAT     H248425   0.451   1.436   2.385
11926WAT    EPW48426   0.524   1.436   2.357
11927WAT      O48427   1.415   2.228   2.725
11927WAT     H148428   1.398   2.237   2.810
11927WAT     H248429   1.441   2.145   2.719
11927WAT    EPW48430   1.416   2.217   2.737
11928WAT      O48431   1.163   2.145   2.634
11928WAT     H148432   1.123   2.135   2.711
11928WAT     H248433   1.241   2.177   2.656
11928WAT    EPW48434   1.168   2.148   2.649
11929WAT      O48435   1.158   2.527   3.442
11929WAT     H148436   1.215   2.526   3.508
11929WAT     H248437   1.183   2.595   3.394
11929WAT    EPW48438   1.170   2.537   3.445
11930WAT      O48439   1.968   1.746   3.633
11930WAT     H148440   1.882   1.759   3.637
11930WAT     H248441   1.988   1.766   3.551
11930WAT    EPW48442   1.958   1.751   3.622
11931WAT      O48443   1.428   1.880   3.452
11931WAT     H148444   1.416   1.816   3.511
11931WAT     H248445   1.500   1.921   3.480
11931WAT    EPW48446   1.437   1.876   3.465
11932WAT      O48447   0.375   2.847   3.663
11932WAT     H148448   0.319   2.877   3.723
11932WAT     H248449   0.436   2.909   3.659
11932WAT    EPW48450   0.376   2.861   3.671
11933WAT      O48451   1.221   1.967   3.868
11933WAT     H148452   1.245   2.042   3.831
11933WAT     H248453   1.142   1.984   3.900
11933WAT    EPW48454   1.213   1.980   3.867
11934WAT      O48455   1.521   2.861   2.949
11934WAT     H148456   1.460   2.920   2.970
11934WAT     H248457   1.584   2.875   3.009
11934WAT    EPW48458   1.521   2.872   2.961
11935WAT      O48459   1.161   2.366   3.157
11935WAT     H148460   1.081   2.361   3.192
11935WAT     H248461   1.210   2.397   3.222
11935WAT    EPW48462   1.157   2.370   3.172
11936WAT      O48463   1.752   2.581   3.860
11936WAT     H148464   1.835   2.555   3.862
11936WAT     H248465   1.716   2.539   3.927
11936WAT    EPW48466   1.759   2.571   3.870
11937WAT      O48467   0.520   1.719   3.489
11937WAT     H148468   0.528   1.774   3.422
11937WAT     H248469   0.597   1.678   3.492
11937WAT    EPW48470   0.532   1.721   3.480
11938WAT      O48471   0.368   1.510   3.387
11938WAT     H148472   0.357   1.534   3.304
11938WAT     H248473   0.409   1.578   3.424
11938WAT    EPW48474   0.373   1.523   3.380
11939WAT      O48475   1.849   1.794   2.387
11939WAT     H148476   1.865   1.790   2.302
11939WAT     H248477   1.922   1.763   2.424
11939WAT    EPW48478   1.862   1.789   2.380
11940WAT      O48479   0.594   1.180   3.636
11940WAT     H148480   0.647   1.111   3.629
11940WAT     H248481   0.574   1.199   3.553
11940WAT    EPW48482   0.599   1.173   3.623
11941WAT      O48483   1.246   2.499   2.532
11941WAT     H148484   1.224   2.580   2.507
11941WAT     H248485   1.173   2.453   2.518
11941WAT    EPW48486   1.232   2.504   2.526
11942WAT      O48487   1.741   1.798   3.364
11942WAT     H148488   1.725   1.712   3.365
11942WAT     H248489   1.719   1.824   3.444
11942WAT    EPW48490   1.735   1.789   3.376
11943WAT      O48491   0.229   2.069   3.364
11943WAT     H148492   0.280   2.085   3.295
11943WAT     H248493   0.149   2.081   3.334
11943WAT    EPW48494   0.225   2.073   3.350
11944WAT      O48495   0.420   1.627   2.006
11944WAT     H148496   0.334   1.635   2.012
11944WAT     H248497   0.431   1.551   1.964
11944WAT    EPW48498   0.409   1.617   2.001
11945WAT      O48499   1.290   1.231   3.715
11945WAT     H148500   1.321   1.300   3.758
11945WAT     H248501   1.209   1.222   3.747
11945WAT    EPW48502   1.282   1.240   3.726
11946WAT      O48503   1.266   1.343   2.783
11946WAT     H148504   1.189   1.383   2.781
11946WAT     H248505   1.259   1.281   2.722
11946WAT    EPW48506   1.254   1.340   2.774
11947WAT      O48507   0.742   2.512   2.186
11947WAT     H148508   0.771   2.517   2.268
11947WAT     H248509   0.661   2.480   2.194
11947WAT    EPW48510   0.734   2.508   2.200
11948WAT      O48511   1.592   1.405   3.048
11948WAT     H148512   1.671   1.371   3.063
11948WAT     H248513   1.601   1.489   3.070
11948WAT    EPW48514   1.605   1.412   3.053
11949WAT      O48515   0.755   1.987   3.464
11949WAT     H148516   0.720   2.061   3.496
11949WAT     H248517   0.693   1.957   3.410
11949WAT    EPW48518   0.741   1.994   3.460
11950WAT      O48519   1.668   1.844   2.848
11950WAT     H148520   1.728   1.906   2.863
11950WAT     H248521   1.609   1.885   2.798
11950WAT    EPW48522   1.668   1.860   2.843
11951WAT      O48523   1.674   2.668   2.585
11951WAT     H148524   1.659   2.590   2.623
11951WAT     H248525   1.712   2.647   2.510
11951WAT    EPW48526   1.677   2.653   2.580
11952WAT      O48527   0.496   2.392   2.223
11952WAT     H148528   0.470   2.387   2.306
11952WAT     H248529   0.509   2.308   2.201
11952WAT    EPW48530   0.494   2.379   2.232
11953WAT      O48531   0.811   2.275   2.052
11953WAT     H148532   0.737   2.233   2.073
11953WAT     H248533   0.804   2.351   2.095
11953WAT    EPW48534   0.799   2.280   2.061
11954WAT      O48535   0.759   1.287   3.274
11954WAT     H148536   0.679   1.272   3.305
11954WAT     H248537   0.810   1.236   3.323
11954WAT    EPW48538   0.755   1.277   3.286
11955WAT      O48539   1.908   1.157   3.316
11955WAT     H148540   1.880   1.163   3.399
11955WAT     H248541   1.992   1.136   3.325
11955WAT    EPW48542   1.916   1.155   3.330
11956WAT      O48543   1.116   1.317   3.128
11956WAT     H148544   1.057   1.258   3.103
11956WAT     H248545   1.192   1.281   3.108
11956WAT    EPW48546   1.118   1.303   3.121
11957WAT      O48547   1.430   2.460   3.246
11957WAT     H148548   1.455   2.530   3.291
11957WAT     H248549   1.420   2.491   3.165
11957WAT    EPW48550   1.432   2.475   3.240
11958WAT      O48551   1.411   2.853   3.693
11958WAT     H148552   1.341   2.813   3.661
11958WAT     H248553   1.383   2.934   3.710
11958WAT    EPW48554   1.397   2.859   3.691
11959WAT      O48555   0.874   1.802   3.645
11959WAT     H148556   0.842   1.731   3.605
11959WAT     H248557   0.840   1.868   3.599
11959WAT    EPW48558   0.864   1.801   3.632
11960WAT      O48559   0.994   1.155   2.149
11960WAT     H148560   1.005   1.164   2.063
11960WAT     H248561   0.907   1.153   2.158
11960WAT    EPW48562   0.983   1.156   2.137
11961WAT      O48563   1.880   2.317   3.236
11961WAT     H148564   1.842   2.250   3.195
11961WAT     H248565   1.832   2.386   3.211
11961WAT    EPW48566   1.867   2.317   3.226
11962WAT      O48567   0.790   2.792   3.645
11962WAT     H148568   0.773   2.788   3.730
11962WAT     H248569   0.848   2.729   3.632
11962WAT    EPW48570   0.796   2.782   3.656
11963WAT      O48571   1.768   2.564   3.167
11963WAT     H148572   1.835   2.578   3.113
11963WAT     H248573   1.708   2.526   3.117
11963WAT    EPW48574   1.769   2.561   3.152
11964WAT      O48575   0.503   1.269   3.394
11964WAT     H148576   0.443   1.208   3.378
11964WAT     H248577   0.458   1.344   3.387
11964WAT    EPW48578   0.487   1.271   3.390
11965WAT      O48579   1.363   1.236   3.021
11965WAT     H148580   1.429   1.289   3.042
11965WAT     H248581   1.333   1.270   2.946
11965WAT    EPW48582   1.369   1.249   3.013
11966WAT      O48583   0.524   2.631   3.752
11966WAT     H148584   0.585   2.667   3.803
11966WAT     H248585   0.477   2.699   3.724
11966WAT    EPW48586   0.526   2.646   3.755
11967WAT      O48587   1.337   1.734   2.782
11967WAT     H148588   1.391   1.666   2.794
11967WAT     H248589   1.302   1.747   2.860
11967WAT    EPW48590   1.340   1.726   2.795
11968WAT      O48591   0.358   1.544   2.707
11968WAT     H148592   0.313   1.518   2.777
11968WAT     H248593   0.428   1.492   2.707
11968WAT    EPW48594   0.362   1.532   2.717
11969WAT      O48595   0.376   2.468   3.476
11969WAT     H148596   0.336   2.519   3.535
11969WAT     H248597   0.461   2.480   3.492
11969WAT    EPW48598   0.382   2.478   3.487
11970WAT      O48599   1.511   1.904   2.406
11970WAT     H148600   1.532   1.821   2.426
11970WAT     H248601   1.436   1.896   2.361
11970WAT    EPW48602   1.503   1.891   2.402
11971WAT      O48603   0.484   2.791   2.311
11971WAT     H148604   0.459   2.743   2.242
11971WAT     H248605   0.568   2.769   2.321
11971WAT    EPW48606   0.493   2.781   2.302
11972WAT      O48607   0.894   1.975   2.339
11972WAT     H148608   0.922   2.003   2.261
11972WAT     H248609   0.969   1.958   2.382
11972WAT    EPW48610   0.909   1.977   2.334
11973WAT      O48611   1.779   2.846   2.042
11973WAT     H148612   1.852   2.834   2.090
11973WAT     H248613   1.762   2.767   2.010
11973WAT    EPW48614   1.787   2.833   2.045
11974WAT      O48615   1.811   2.079   3.732
11974WAT     H148616   1.881   2.044   3.771
11974WAT     H248617   1.845   2.124   3.666
11974WAT    EPW48618   1.826   2.080   3.728
11975WAT      O48619   1.425   2.455   2.316
11975WAT     H148620   1.377   2.451   2.389
11975WAT     H248621   1.386   2.397   2.263
11975WAT    EPW48622   1.412   2.446   2.319
11976WAT      O48623   1.868   1.528   3.850
11976WAT     H148624   1.858   1.607   3.886
11976WAT     H248625   1.791   1.514   3.812
11976WAT    EPW48626   1.855   1.538   3.850
11977WAT      O48627   1.911   1.634   3.106
11977WAT     H148628   1.827   1.658   3.101
11977WAT     H248629   1.906   1.547   3.115
11977WAT    EPW48630   1.898   1.624   3.107
11978WAT      O48631   0.823   1.338   3.645
11978WAT     H148632   0.864   1.301   3.577
11978WAT     H248633   0.747   1.295   3.648
11978WAT    EPW48634   0.818   1.326   3.635
11979WAT      O48635   1.588   2.131   3.953
11979WAT     H148636   1.662   2.159   3.990
11979WAT     H248637   1.596   2.156   3.869
11979WAT    EPW48638   1.600   2.139   3.946
11980WAT      O48639   0.507   2.651   3.014
11980WAT     H148640   0.506   2.573   2.977
11980WAT     H248641   0.461   2.701   2.959
11980WAT    EPW48642   0.500   2.647   3.000
11981WAT      O48643   1.092   2.307   2.219
11981WAT     H148644   1.171   2.279   2.194
11981WAT     H248645   1.080   2.378   2.170
11981WAT    EPW48646   1.102   2.314   2.208
11982WAT      O48647   0.330   2.898   3.385
11982WAT     H148648   0.327   2.872   3.469
11982WAT     H248649   0.360   2.827   3.343
11982WAT    EPW48650   0.334   2.884   3.391
11983WAT      O48651   1.301   1.142   0.680
11983WAT     H148652   1.323   1.173   0.602
11983WAT     H248653   1.377   1.116   0.714
11983WAT    EPW48654   1.316   1.143   0.674
11984WAT      O48655   1.222   1.767   1.143
11984WAT     H148656   1.187   1.843   1.168
11984WAT     H248657   1.282   1.751   1.205
11984WAT    EPW48658   1.226   1.776   1.156
11985WAT      O48659   1.823   2.608   0.459
11985WAT     H148660   1.887   2.551   0.478
11985WAT     H248661   1.775   2.566   0.399
11985WAT    EPW48662   1.825   2.593   0.453
11986WAT      O48663   0.549   2.148   0.228
11986WAT     H148664   0.514   2.123   0.152
11986WAT     H248665   0.529   2.083   0.282
11986WAT    EPW48666   0.541   2.135   0.225
11987WAT      O48667   1.469   1.967   0.801
11987WAT     H148668   1.483   1.953   0.716
11987WAT     H248669   1.417   1.901   0.824
11987WAT    EPW48670   1.463   1.955   0.792
11988WAT      O48671   0.398   2.386   0.593
11988WAT     H148672   0.445   2.334   0.644
11988WAT     H248673   0.317   2.353   0.599
11988WAT    EPW48674   0.393   2.374   0.602
11989WAT      O48675   0.937   1.241   0.605
11989WAT     H148676   0.937   1.323   0.574
11989WAT     H248677   0.981   1.197   0.545
11989WAT    EPW48678   0.944   1.247   0.592
11990WAT      O48679   0.422   2.651   0.229
11990WAT     H148680   0.432   2.644   0.142
11990WAT     H248681   0.441   2.572   0.258
11990WAT    EPW48682   0.426   2.639   0.220
11991WAT      O48683   0.882   2.300   1.784
11991WAT     H148684   0.868   2.288   1.869
11991WAT     H248685   0.810   2.270   1.746
11991WAT    EPW48686   0.869   2.294   1.791
11992WAT      O48687   0.423   1.944   0.661
11992WAT     H148688   0.347   1.901   0.658
11992WAT     H248689   0.475   1.890   0.705
11992WAT    EPW48690   0.419   1.929   0.667
11993WAT      O48691   0.832   1.554   1.349
11993WAT     H148692   0.901   1.559   1.296
11993WAT     H248693   0.814   1.469   1.351
11993WAT    EPW48694   0.840   1.542   1.342
11994WAT      O48695   0.883   2.605   1.525
11994WAT     H148696   0.897   2.659   1.458
11994WAT     H248697   0.964   2.581   1.549
11994WAT    EPW48698   0.897   2.609   1.518
11995WAT      O48699   0.549   1.754   0.820
11995WAT     H148700   0.623   1.709   0.830
11995WAT     H248701   0.487   1.693   0.826
11995WAT    EPW48702   0.550   1.738   0.822
11996WAT      O48703   0.983   2.407   0.947
11996WAT     H148704   1.006   2.326   0.968
11996WAT     H248705   1.059   2.449   0.942
11996WAT    EPW48706   0.997   2.402   0.949
11997WAT      O48707   1.012   2.352   0.592
11997WAT     H148708   1.047   2.291   0.643
11997WAT     H248709   1.053   2.342   0.516
11997WAT    EPW48710   1.023   2.342   0.588
11998WAT      O48711   1.153   1.809   1.749
11998WAT     H148712   1.067   1.806   1.741
11998WAT     H248713   1.166   1.860   1.818
11998WAT    EPW48714   1.142   1.816   1.758
11999WAT      O48715   0.656   1.250   0.638
11999WAT     H148716   0.621   1.299   0.575
11999WAT     H248717   0.740   1.244   0.616
11999WAT    EPW48718   0.663   1.256   0.625
12000WAT      O48719   1.654   1.065   1.633
12000WAT     H148720   1.623   1.131   1.585
12000WAT     H248721   1.585   1.038   1.679
12000WAT    EPW48722   1.639   1.070   1.632
12001WAT      O48723   0.977   1.207   0.876
12001WAT     H148724   0.990   1.290   0.899
12001WAT     H248725   0.958   1.211   0.791
12001WAT    EPW48726   0.976   1.220   0.867
12002WAT      O48727   0.823   2.561   0.596
12002WAT     H148728   0.773   2.534   0.663
12002WAT     H248729   0.891   2.506   0.597
12002WAT    EPW48730   0.826   2.549   0.606
12003WAT      O48731   1.394   2.696   0.392
12003WAT     H148732   1.458   2.753   0.380
12003WAT     H248733   1.435   2.624   0.417
12003WAT    EPW48734   1.409   2.694   0.394
12004WAT      O48735   1.191   2.763   0.566
12004WAT     H148736   1.220   2.835   0.606
12004WAT     H248737   1.254   2.745   0.508
12004WAT    EPW48738   1.205   2.771   0.563
12005WAT      O48739   0.459   1.209   1.054
12005WAT     H148740   0.423   1.138   1.017
12005WAT     H248741   0.520   1.175   1.107
12005WAT    EPW48742   0.463   1.193   1.056
12006WAT      O48743   0.829   1.450   2.009
12006WAT     H148744   0.839   1.419   1.928
12006WAT     H248745   0.865   1.530   2.005
12006WAT    EPW48746   0.836   1.458   1.997
12007WAT      O48747   0.354   2.658   0.666
12007WAT     H148748   0.373   2.574   0.652
12007WAT     H248749   0.382   2.698   0.594
12007WAT    EPW48750   0.361   2.651   0.653
12008WAT      O48751   1.947   1.429   0.804
12008WAT     H148752   1.898   1.500   0.810
12008WAT     H248753   1.889   1.365   0.788
12008WAT    EPW48754   1.931   1.430   0.802
12009WAT      O48755   1.454   2.745   1.365
12009WAT     H148756   1.523   2.798   1.356
12009WAT     H248757   1.442   2.713   1.285
12009WAT    EPW48758   1.463   2.748   1.352
12010WAT      O48759   0.435   1.377   1.867
12010WAT     H148760   0.375   1.394   1.806
12010WAT     H248761   0.490   1.321   1.827
12010WAT    EPW48762   0.435   1.371   1.852
12011WAT      O48763   0.505   2.415   1.019
12011WAT     H148764   0.563   2.415   0.953
12011WAT     H248765   0.549   2.377   1.084
12011WAT    EPW48766   0.520   2.410   1.019
12012WAT      O48767   0.782   2.722   0.919
12012WAT     H148768   0.862   2.741   0.888
12012WAT     H248769   0.730   2.767   0.865
12012WAT    EPW48770   0.786   2.732   0.906
12013WAT      O48771   1.025   1.177   1.877
12013WAT     H148772   1.029   1.104   1.830
12013WAT     H248773   0.964   1.224   1.837
12013WAT    EPW48774   1.016   1.173   1.864
12014WAT      O48775   1.118   1.699   0.721
12014WAT     H148776   1.146   1.656   0.651
12014WAT     H248777   1.191   1.712   0.768
12014WAT    EPW48778   1.133   1.694   0.718
12015WAT      O48779   1.145   1.722   0.269
12015WAT     H148780   1.182   1.799   0.287
12015WAT     H248781   1.059   1.739   0.276
12015WAT    EPW48782   1.137   1.736   0.273
12016WAT      O48783   1.591   2.894   0.344
12016WAT     H148784   1.634   2.854   0.279
12016WAT     H248785   1.650   2.949   0.376
12016WAT    EPW48786   1.606   2.896   0.339
12017WAT      O48787   0.665   2.826   1.474
12017WAT     H148788   0.698   2.796   1.549
12017WAT     H248789   0.600   2.771   1.457
12017WAT    EPW48790   0.661   2.813   1.483
12018WAT      O48791   1.861   1.356   1.228
12018WAT     H148792   1.925   1.344   1.170
12018WAT     H248793   1.879   1.297   1.290
12018WAT    EPW48794   1.873   1.346   1.229
12019WAT      O48795   1.339   2.532   1.747
12019WAT     H148796   1.333   2.556   1.831
12019WAT     H248797   1.425   2.527   1.733
12019WAT    EPW48798   1.351   2.535   1.757
12020WAT      O48799   1.190   2.587   0.225
12020WAT     H148800   1.126   2.644   0.240
12020WAT     H248801   1.261   2.627   0.256
12020WAT    EPW48802   1.191   2.602   0.232
12021WAT      O48803   1.367   1.213   0.420
12021WAT     H148804   1.433   1.169   0.383
12021WAT     H248805   1.402   1.291   0.439
12021WAT    EPW48806   1.382   1.218   0.417
12022WAT      O48807   0.256   1.454   0.576
12022WAT     H148808   0.184   1.407   0.587
12022WAT     H248809   0.281   1.474   0.657
12022WAT    EPW48810   0.249   1.450   0.589
12023WAT      O48811   0.448   2.672   1.388
12023WAT     H148812   0.415   2.596   1.415
12023WAT     H248813   0.455   2.662   1.301
12023WAT    EPW48814   0.444   2.659   1.379
12024WAT      O48815   1.186   1.562   0.489
12024WAT     H148816   1.115   1.513   0.479
12024WAT     H248817   1.185   1.614   0.418
12024WAT    EPW48818   1.175   1.563   0.477
12025WAT      O48819   1.207   2.799   1.467
12025WAT     H148820   1.285   2.787   1.431
12025WAT     H248821   1.152   2.794   1.399
12025WAT    EPW48822   1.210   2.797   1.452
12026WAT      O48823   1.095   1.199   0.367
12026WAT     H148824   1.069   1.277   0.337
12026WAT     H248825   1.181   1.208   0.374
12026WAT    EPW48826   1.104   1.212   0.363
12027WAT      O48827   1.888   2.837   0.730
12027WAT     H148828   1.848   2.913   0.744
12027WAT     H248829   1.823   2.780   0.719
12027WAT    EPW48830   1.873   2.840   0.731
12028WAT      O48831   1.025   1.492   0.887
12028WAT     H148832   1.047   1.560   0.838
12028WAT     H248833   1.030   1.522   0.969
12028WAT    EPW48834   1.029   1.506   0.892
12029WAT      O48835   1.570   2.404   0.707
12029WAT     H148836   1.638   2.355   0.731
12029WAT     H248837   1.502   2.366   0.746
12029WAT    EPW48838   1.570   2.391   0.716
12030WAT      O48839   0.640   2.505   1.633
12030WAT     H148840   0.713   2.543   1.606
12030WAT     H248841   0.622   2.545   1.708
12030WAT    EPW48842   0.648   2.516   1.640
12031WAT      O48843   0.595   1.000   0.738
12031WAT     H148844   0.613   1.078   0.704
12031WAT     H248845   0.556   0.958   0.673
12031WAT    EPW48846   0.592   1.005   0.723
12032WAT      O48847   0.776   2.097   1.099
12032WAT     H148848   0.806   2.077   1.179
12032WAT     H248849   0.721   2.032   1.081
12032WAT    EPW48850   0.772   2.084   1.108
12033WAT      O48851   1.371   1.473   1.475
12033WAT     H148852   1.371   1.515   1.551
12033WAT     H248853   1.308   1.413   1.484
12033WAT    EPW48854   1.362   1.470   1.487
12034WAT      O48855   0.886   2.094   1.352
12034WAT     H148856   0.887   2.180   1.368
12034WAT     H248857   0.854   2.060   1.426
12034WAT    EPW48858   0.881   2.102   1.365
12035WAT      O48859   1.501   2.184   1.349
12035WAT     H148860   1.426   2.154   1.382
12035WAT     H248861   1.495   2.271   1.357
12035WAT    EPW48862   1.489   2.192   1.355
12036WAT      O48863   1.545   1.065   0.786
12036WAT     H148864   1.544   1.047   0.871
12036WAT     H248865   1.580   0.994   0.749
12036WAT    EPW48866   1.550   1.052   0.793
12037WAT      O48867   1.744   1.518   1.569
12037WAT     H148868   1.827   1.500   1.590
12037WAT     H248869   1.702   1.511   1.645
12037WAT    EPW48870   1.750   1.514   1.583
12038WAT      O48871   0.570   1.379   0.864
12038WAT     H148872   0.596   1.329   0.798
12038WAT     H248873   0.542   1.322   0.924
12038WAT    EPW48874   0.569   1.363   0.863
12039WAT      O48875   1.793   2.235   0.329
12039WAT     H148876   1.787   2.188   0.402
12039WAT     H248877   1.879   2.233   0.310
12039WAT    EPW48878   1.805   2.228   0.337
12040WAT      O48879   0.521   2.188   0.743
12040WAT     H148880   0.605   2.189   0.722
12040WAT     H248881   0.491   2.113   0.709
12040WAT    EPW48882   0.529   2.177   0.735
12041WAT      O48883   0.394   2.818   0.904
12041WAT     H148884   0.344   2.768   0.852
12041WAT     H248885   0.466   2.831   0.857
12041WAT    EPW48886   0.397   2.812   0.889
12042WAT      O48887   0.378   1.608   1.214
12042WAT     H148888   0.463   1.607   1.196
12042WAT     H248889   0.356   1.692   1.201
12042WAT    EPW48890   0.387   1.620   1.210
12043WAT      O48891   2.027   2.637   1.695
12043WAT     H148892   1.953   2.642   1.649
12043WAT     H248893   2.005   2.589   1.764
12043WAT    EPW48894   2.013   2.631   1.698
12044WAT      O48895   1.626   1.844   0.264
12044WAT     H148896   1.548   1.826   0.230
12044WAT     H248897   1.608   1.886   0.338
12044WAT    EPW48898   1.612   1.847   0.270
12045WAT      O48899   0.781   2.175   0.642
12045WAT     H148900   0.838   2.236   0.615
12045WAT     H248901   0.797   2.107   0.590
12045WAT    EPW48902   0.792   2.174   0.630
12046WAT      O48903   1.916   1.395   0.229
12046WAT     H148904   1.939   1.319   0.194
12046WAT     H248905   1.879   1.437   0.162
12046WAT    EPW48906   1.914   1.390   0.214
12047WAT      O48907   0.951   1.700   2.008
12047WAT     H148908   0.902   1.730   2.074
12047WAT     H248909   0.921   1.744   1.939
12047WAT    EPW48910   0.939   1.711   2.008
12048WAT      O48911   2.031   1.786   1.472
12048WAT     H148912   2.064   1.712   1.440
12048WAT     H248913   1.948   1.786   1.445
12048WAT    EPW48914   2.023   1.775   1.463
12049WAT      O48915   1.773   1.243   0.438
12049WAT     H148916   1.851   1.206   0.456
12049WAT     H248917   1.794   1.310   0.386
12049WAT    EPW48918   1.788   1.247   0.433
12050WAT      O48919   1.207   2.573   0.929
12050WAT     H148920   1.160   2.644   0.911
12050WAT     H248921   1.233   2.545   0.850
12050WAT    EPW48922   1.204   2.579   0.914
12051WAT      O48923   0.629   2.287   1.230
12051WAT     H148924   0.690   2.321   1.281
12051WAT     H248925   0.673   2.230   1.181
12051WAT    EPW48926   0.644   2.283   1.231
12052WAT      O48927   1.495   1.512   0.908
12052WAT     H148928   1.526   1.475   0.981
12052WAT     H248929   1.433   1.456   0.882
12052WAT    EPW48930   1.491   1.498   0.915
12053WAT      O48931   0.378   2.166   0.994
12053WAT     H148932   0.418   2.147   0.918
12053WAT     H248933   0.394   2.251   1.005
12053WAT    EPW48934   0.387   2.176   0.984
12054WAT      O48935   0.932   1.453   0.422
12054WAT     H148936   0.872   1.400   0.388
12054WAT     H248937   0.904   1.533   0.401
12054WAT    EPW48938   0.919   1.457   0.414
12055WAT      O48939   1.779   2.662   1.549
12055WAT     H148940   1.736   2.737   1.559
12055WAT     H248941   1.776   2.647   1.463
12055WAT    EPW48942   1.772   2.671   1.538
12056WAT      O48943   0.720   2.466   0.840
12056WAT     H148944   0.733   2.547   0.869
12056WAT     H248945   0.794   2.425   0.862
12056WAT    EPW48946   0.733   2.472   0.848
12057WAT      O48947   0.523   1.833   1.846
12057WAT     H148948   0.494   1.768   1.896
12057WAT     H248949   0.519   1.801   1.765
12057WAT    EPW48950   0.518   1.819   1.841
12058WAT      O48951   0.574   1.668   0.347
12058WAT     H148952   0.559   1.598   0.396
12058WAT     H248953   0.509   1.668   0.289
12058WAT    EPW48954   0.562   1.658   0.345
12059WAT      O48955   0.602   1.886   1.063
12059WAT     H148956   0.575   1.872   0.981
12059WAT     H248957   0.626   1.807   1.091
12059WAT    EPW48958   0.602   1.872   1.055
12060WAT      O48959   0.572   1.884   1.379
12060WAT     H148960   0.606   1.844   1.310
12060WAT     H248961   0.523   1.947   1.344
12060WAT    EPW48962   0.570   1.887   1.364
12061WAT      O48963   1.638   1.682   1.178
12061WAT     H148964   1.570   1.706   1.228
12061WAT     H248965   1.634   1.738   1.111
12061WAT    EPW48966   1.627   1.694   1.176
12062WAT      O48967   0.986   2.755   1.303
12062WAT     H148968   0.963   2.692   1.248
12062WAT     H248969   0.966   2.828   1.260
12062WAT    EPW48970   0.980   2.756   1.288
12063WAT      O48971   1.215   1.254   1.551
12063WAT     H148972   1.230   1.174   1.519
12063WAT     H248973   1.244   1.249   1.633
12063WAT    EPW48974   1.222   1.241   1.558
12064WAT      O48975   1.447   1.458   0.511
12064WAT     H148976   1.504   1.522   0.524
12064WAT     H248977   1.370   1.500   0.508
12064WAT    EPW48978   1.444   1.474   0.513
12065WAT      O48979   0.399   2.074   1.916
12065WAT     H148980   0.380   2.118   1.842
12065WAT     H248981   0.431   1.998   1.887
12065WAT    EPW48982   0.401   2.069   1.900
12066WAT      O48983   1.549   2.245   1.793
12066WAT     H148984   1.575   2.324   1.768
12066WAT     H248985   1.578   2.193   1.730
12066WAT    EPW48986   1.557   2.249   1.780
12067WAT      O48987   0.970   2.568   1.817
12067WAT     H148988   0.997   2.563   1.900
12067WAT     H248989   0.940   2.488   1.800
12067WAT    EPW48990   0.969   2.556   1.827
12068WAT      O48991   1.031   1.566   1.153
12068WAT     H148992   1.093   1.627   1.159
12068WAT     H248993   1.071   1.494   1.183
12068WAT    EPW48994   1.046   1.564   1.158
12069WAT      O48995   1.299   1.939   0.369
12069WAT     H148996   1.319   2.019   0.343
12069WAT     H248997   1.241   1.952   0.433
12069WAT    EPW48998   1.294   1.952   0.375
12070WAT      O48999   1.765   2.225   0.800
12070WAT     H149000   1.788   2.172   0.865
12070WAT     H249001   1.775   2.176   0.729
12070WAT    EPW49002   1.770   2.210   0.799
12071WAT      O49003   1.410   2.614   1.121
12071WAT     H149004   1.345   2.596   1.065
12071WAT     H249005   1.451   2.681   1.083
12071WAT    EPW49006   1.406   2.621   1.107
12072WAT      O49007   1.384   2.274   1.106
12072WAT     H149008   1.309   2.304   1.139
12072WAT     H249009   1.417   2.225   1.170
12072WAT    EPW49010   1.378   2.271   1.120
12073WAT      O49011   0.777   2.807   0.450
12073WAT     H149012   0.784   2.743   0.509
12073WAT     H249013   0.847   2.796   0.399
12073WAT    EPW49014   0.788   2.795   0.451
12074WAT      O49015   0.761   1.240   0.345
12074WAT     H149016   0.758   1.160   0.379
12074WAT     H249017   0.687   1.245   0.299
12074WAT    EPW49018   0.750   1.229   0.343
12075WAT      O49019   1.027   2.786   0.337
12075WAT     H149020   1.066   2.770   0.414
12075WAT     H249021   1.046   2.870   0.322
12075WAT    EPW49022   1.036   2.796   0.346
12076WAT      O49023   1.628   2.089   1.578
12076WAT     H149024   1.594   2.125   1.507
12076WAT     H249025   1.713   2.109   1.573
12076WAT    EPW49026   1.636   2.098   1.567
12077WAT      O49027   1.325   2.668   1.996
12077WAT     H149028   1.349   2.691   2.077
12077WAT     H249029   1.354   2.734   1.947
12077WAT    EPW49030   1.333   2.681   2.001
12078WAT      O49031   1.765   1.198   1.848
12078WAT     H149032   1.732   1.153   1.780
12078WAT     H249033   1.764   1.140   1.913
12078WAT    EPW49034   1.760   1.182   1.847
12079WAT      O49035   0.492   1.936   0.393
12079WAT     H149036   0.532   1.858   0.391
12079WAT     H249037   0.469   1.945   0.477
12079WAT    EPW49038   0.495   1.926   0.405
12080WAT      O49039   1.270   2.089   1.461
12080WAT     H149040   1.219   2.129   1.519
12080WAT     H249041   1.300   2.020   1.505
12080WAT    EPW49042   1.267   2.085   1.476
12081WAT      O49043   1.118   1.944   0.577
12081WAT     H149044   1.124   2.009   0.635
12081WAT     H249045   1.108   1.873   0.626
12081WAT    EPW49046   1.117   1.943   0.593
12082WAT      O49047   1.657   2.379   1.116
12082WAT     H149048   1.694   2.372   1.037
12082WAT     H249049   1.573   2.364   1.100
12082WAT    EPW49050   1.650   2.376   1.102
12083WAT      O49051   0.521   1.300   0.205
12083WAT     H149052   0.465   1.240   0.175
12083WAT     H249053   0.546   1.342   0.133
12083WAT    EPW49054   0.516   1.297   0.190
12084WAT      O49055   1.032   2.139   1.001
12084WAT     H149056   0.949   2.119   1.017
12084WAT     H249057   1.075   2.106   1.069
12084WAT    EPW49058   1.026   2.132   1.013
12085WAT      O49059   0.426   2.094   1.263
12085WAT     H149060   0.482   2.161   1.270
12085WAT     H249061   0.405   2.095   1.178
12085WAT    EPW49062   0.431   2.104   1.252
12086WAT      O49063   0.752   1.577   0.909
12086WAT     H149064   0.834   1.550   0.895
12086WAT     H249065   0.704   1.506   0.893
12086WAT    EPW49066   0.757   1.563   0.905
12087WAT      O49067   1.988   2.772   0.312
12087WAT     H149068   2.062   2.729   0.299
12087WAT     H249069   1.942   2.719   0.363
12087WAT    EPW49070   1.992   2.758   0.317
12088WAT      O49071   0.224   1.747   0.663
12088WAT     H149072   0.252   1.694   0.726
12088WAT     H249073   0.203   1.693   0.598
12088WAT    EPW49074   0.225   1.731   0.662
12089WAT      O49075   1.746   2.042   1.279
12089WAT     H149076   1.745   1.970   1.328
12089WAT     H249077   1.665   2.075   1.289
12089WAT    EPW49078   1.734   2.037   1.287
12090WAT      O49079   0.366   2.200   1.665
12090WAT     H149080   0.322   2.151   1.607
12090WAT     H249081   0.355   2.281   1.635
12090WAT    EPW49082   0.358   2.205   1.652
12091WAT      O49083   1.843   2.054   1.014
12091WAT     H149084   1.818   2.056   1.097
12091WAT     H249085   1.930   2.044   1.020
12091WAT    EPW49086   1.852   2.053   1.027
12092WAT      O49087   0.852   1.716   0.354
12092WAT     H149088   0.854   1.794   0.394
12092WAT     H249089   0.767   1.702   0.340
12092WAT    EPW49090   0.840   1.726   0.358
12093WAT      O49091   1.636   1.450   1.825
12093WAT     H149092   1.559   1.451   1.867
12093WAT     H249093   1.663   1.367   1.835
12093WAT    EPW49094   1.628   1.438   1.833
12094WAT      O49095   0.251   1.421   1.049
12094WAT     H149096   0.298   1.349   1.060
12094WAT     H249097   0.281   1.475   1.110
12094WAT    EPW49098   0.262   1.419   1.059
12095WAT      O49099   1.984   2.531   1.083
12095WAT     H149100   2.016   2.587   1.025
12095WAT     H249101   2.046   2.528   1.145
12095WAT    EPW49102   1.998   2.539   1.084
12096WAT      O49103   1.473   1.803   1.911
12096WAT     H149104   1.513   1.811   1.988
12096WAT     H249105   1.398   1.848   1.922
12096WAT    EPW49106   1.468   1.811   1.924
12097WAT      O49107   1.707   1.837   1.750
12097WAT     H149108   1.729   1.918   1.774
12097WAT     H249109   1.634   1.821   1.796
12097WAT    EPW49110   1.699   1.847   1.760
12098WAT      O49111   1.673   2.478   0.270
12098WAT     H149112   1.714   2.401   0.274
12098WAT     H249113   1.598   2.464   0.313
12098WAT    EPW49114   1.668   2.464   0.277
12099WAT      O49115   1.735   1.617   0.816
12099WAT     H149116   1.666   1.571   0.844
12099WAT     H249117   1.728   1.692   0.859
12099WAT    EPW49118   1.723   1.621   0.827
12100WAT      O49119   2.029   1.926   1.942
12100WAT     H149120   2.032   1.869   1.877
12100WAT     H249121   2.109   1.962   1.941
12100WAT    EPW49122   2.042   1.923   1.932
12101WAT      O49123   1.895   2.179   1.578
12101WAT     H149124   1.966   2.134   1.554
12101WAT     H249125   1.885   2.237   1.514
12101WAT    EPW49126   1.904   2.181   1.565
12102WAT      O49127   1.399   2.189   0.287
12102WAT     H149128   1.435   2.248   0.340
12102WAT     H249129   1.451   2.191   0.217
12102WAT    EPW49130   1.412   2.198   0.285
12103WAT      O49131   0.873   2.383   1.348
12103WAT     H149132   0.868   2.439   1.415
12103WAT     H249133   0.869   2.434   1.278
12103WAT    EPW49134   0.872   2.398   1.348
12104WAT      O49135   0.644   2.228   1.651
12104WAT     H149136   0.560   2.208   1.663
12104WAT     H249137   0.643   2.314   1.637
12104WAT    EPW49138   0.631   2.238   1.650
12105WAT      O49139   1.592   1.298   1.482
12105WAT     H149140   1.650   1.361   1.496
12105WAT     H249141   1.517   1.341   1.473
12105WAT    EPW49142   1.589   1.314   1.483
12106WAT      O49143   1.124   2.012   1.237
12106WAT     H149144   1.179   2.039   1.299
12106WAT     H249145   1.045   2.025   1.273
12106WAT    EPW49146   1.120   2.018   1.251
12107WAT      O49147   0.763   1.584   1.616
12107WAT     H149148   0.781   1.507   1.652
12107WAT     H249149   0.792   1.577   1.535
12107WAT    EPW49150   0.770   1.572   1.610
12108WAT      O49151   1.043   2.782   0.832
12108WAT     H149152   1.041   2.868   0.849
12108WAT     H249153   1.059   2.779   0.746
12108WAT    EPW49154   1.045   2.795   0.822
12109WAT      O49155   1.658   1.092   1.300
12109WAT     H149156   1.632   1.165   1.340
12109WAT     H249157   1.743   1.088   1.320
12109WAT    EPW49158   1.667   1.102   1.309
12110WAT      O49159   0.948   1.181   1.557
12110WAT     H149160   1.026   1.215   1.540
12110WAT     H249161   0.966   1.102   1.590
12110WAT    EPW49162   0.962   1.174   1.559
12111WAT      O49163   0.868   2.564   1.139
12111WAT     H149164   0.821   2.619   1.091
12111WAT     H249165   0.908   2.514   1.080
12111WAT    EPW49166   0.867   2.565   1.123
12112WAT      O49167   1.283   2.212   1.857
12112WAT     H149168   1.364   2.227   1.829
12112WAT     H249169   1.233   2.233   1.788
12112WAT    EPW49170   1.287   2.217   1.843
12113WAT      O49171   1.617   2.508   1.722
12113WAT     H149172   1.652   2.537   1.796
12113WAT     H249173   1.665   2.548   1.660
12113WAT    EPW49174   1.630   2.518   1.723
12114WAT      O49175   1.899   1.799   0.220
12114WAT     H149176   1.924   1.864   0.167
12114WAT     H249177   1.812   1.805   0.219
12114WAT    EPW49178   1.890   1.810   0.212
12115WAT      O49179   0.652   1.636   1.162
12115WAT     H149180   0.689   1.610   1.088
12115WAT     H249181   0.707   1.609   1.224
12115WAT    EPW49182   0.665   1.628   1.160
12116WAT      O49183   1.367   1.644   1.697
12116WAT     H149184   1.290   1.683   1.709
12116WAT     H249185   1.409   1.658   1.772
12116WAT    EPW49186   1.362   1.652   1.710
12117WAT      O49187   1.412   1.711   1.334
12117WAT     H149188   1.419   1.766   1.401
12117WAT     H249189   1.398   1.634   1.372
12117WAT    EPW49190   1.411   1.708   1.350
12118WAT      O49191   1.114   2.795   1.729
12118WAT     H149192   1.138   2.783   1.646
12118WAT     H249193   1.082   2.717   1.753
12118WAT    EPW49194   1.113   2.782   1.720
12119WAT      O49195   1.628   1.668   0.567
12119WAT     H149196   1.655   1.647   0.647
12119WAT     H249197   1.699   1.700   0.528
12119WAT    EPW49198   1.642   1.670   0.573
12120WAT      O49199   0.931   1.131   1.148
12120WAT     H149200   0.845   1.123   1.160
12120WAT     H249201   0.938   1.141   1.061
12120WAT    EPW49202   0.919   1.131   1.137
12121WAT      O49203   1.752   1.243   0.722
12121WAT     H149204   1.678   1.204   0.746
12121WAT     H249205   1.741   1.258   0.637
12121WAT    EPW49206   1.740   1.240   0.713
12122WAT      O49207   1.761   2.072   0.560
12122WAT     H149208   1.810   2.001   0.547
12122WAT     H249209   1.679   2.042   0.555
12122WAT    EPW49210   1.756   2.057   0.558
12123WAT      O49211   1.117   2.256   1.634
12123WAT     H149212   1.042   2.259   1.679
12123WAT     H249213   1.126   2.337   1.603
12123WAT    EPW49214   1.107   2.268   1.636
12124WAT      O49215   0.649   2.900   1.195
12124WAT     H149216   0.655   2.891   1.282
12124WAT     H249217   0.619   2.823   1.168
12124WAT    EPW49218   0.645   2.887   1.204
12125WAT      O49219   0.510   1.421   0.462
12125WAT     H149220   0.502   1.379   0.386
12125WAT     H249221   0.428   1.425   0.492
12125WAT    EPW49222   0.497   1.416   0.455
12126WAT      O49223   1.389   2.231   0.832
12126WAT     H149224   1.384   2.246   0.918
12126WAT     H249225   1.422   2.151   0.827
12126WAT    EPW49226   1.393   2.222   0.844
12127WAT      O49227   1.137   2.160   0.746
12127WAT     H149228   1.098   2.147   0.822
12127WAT     H249229   1.217   2.187   0.768
12127WAT    EPW49230   1.143   2.162   0.760
12128WAT      O49231   1.154   2.526   1.546
12128WAT     H149232   1.210   2.525   1.613
12128WAT     H249233   1.181   2.593   1.497
12128WAT    EPW49234   1.166   2.536   1.549
12129WAT      O49235   1.976   1.744   1.739
12129WAT     H149236   1.890   1.757   1.741
12129WAT     H249237   1.997   1.763   1.656
12129WAT    EPW49238   1.966   1.749   1.727
12130WAT      O49239   1.430   1.880   1.554
12130WAT     H149240   1.419   1.816   1.612
12130WAT     H249241   1.502   1.920   1.582
12130WAT    EPW49242   1.439   1.877   1.567
12131WAT      O49243   0.378   2.850   1.766
12131WAT     H149244   0.322   2.881   1.826
12131WAT     H249245   0.441   2.911   1.763
12131WAT    EPW49246   0.379   2.863   1.775
12132WAT      O49247   1.221   1.968   1.972
12132WAT     H149248   1.246   2.043   1.934
12132WAT     H249249   1.142   1.986   2.002
12132WAT    EPW49250   1.213   1.982   1.971
12133WAT      O49251   1.528   2.863   1.062
12133WAT     H149252   1.468   2.925   1.078
12133WAT     H249253   1.589   2.876   1.123
12133WAT    EPW49254   1.528   2.874   1.073
12134WAT      O49255   1.166   2.368   1.263
12134WAT     H149256   1.087   2.362   1.299
12134WAT     H249257   1.216   2.396   1.329
12134WAT    EPW49258   1.162   2.371   1.278
12135WAT      O49259   1.740   2.586   1.958
12135WAT     H149260   1.822   2.555   1.952
12135WAT     H249261   1.708   2.544   2.028
12135WAT    EPW49262   1.747   2.575   1.967
12136WAT      O49263   0.516   1.711   1.595
12136WAT     H149264   0.526   1.767   1.528
12136WAT     H249265   0.593   1.671   1.599
12136WAT    EPW49266   0.529   1.714   1.586
12137WAT      O49267   0.365   1.509   1.479
12137WAT     H149268   0.358   1.535   1.396
12137WAT     H249269   0.405   1.575   1.518
12137WAT    EPW49270   0.370   1.522   1.472
12138WAT      O49271   1.855   1.814   0.496
12138WAT     H149272   1.876   1.814   0.412
12138WAT     H249273   1.923   1.776   0.535
12138WAT    EPW49274   1.868   1.808   0.489
12139WAT      O49275   0.594   1.180   1.737
12139WAT     H149276   0.646   1.111   1.731
12139WAT     H249277   0.573   1.198   1.654
12139WAT    EPW49278   0.599   1.173   1.724
12140WAT      O49279   1.240   2.505   0.661
12140WAT     H149280   1.223   2.586   0.632
12140WAT     H249281   1.168   2.460   0.640
12140WAT    EPW49282   1.227   2.511   0.654
12141WAT      O49283   1.749   1.802   1.467
12141WAT     H149284   1.734   1.716   1.465
12141WAT     H249285   1.728   1.825   1.549
12141WAT    EPW49286   1.744   1.793   1.479
12142WAT      O49287   0.234   2.064   1.462
12142WAT     H149288   0.291   2.073   1.396
12142WAT     H249289   0.157   2.081   1.425
12142WAT    EPW49290   0.231   2.068   1.447
12143WAT      O49291   1.290   1.230   1.816
12143WAT     H149292   1.322   1.300   1.859
12143WAT     H249293   1.209   1.222   1.848
12143WAT    EPW49294   1.283   1.239   1.827
12144WAT      O49295   1.275   1.346   0.870
12144WAT     H149296   1.197   1.385   0.866
12144WAT     H249297   1.272   1.286   0.807
12144WAT    EPW49298   1.263   1.343   0.860
12145WAT      O49299   0.777   2.441   0.345
12145WAT     H149300   0.788   2.485   0.420
12145WAT     H249301   0.690   2.437   0.337
12145WAT    EPW49302   0.766   2.447   0.355
12146WAT      O49303   1.593   1.408   1.148
12146WAT     H149304   1.671   1.374   1.166
12146WAT     H249305   1.602   1.492   1.171
12146WAT    EPW49306   1.606   1.416   1.154
12147WAT      O49307   0.754   1.986   1.570
12147WAT     H149308   0.717   2.059   1.600
12147WAT     H249309   0.694   1.953   1.516
12147WAT    EPW49310   0.740   1.992   1.566
12148WAT      O49311   1.669   1.849   0.954
12148WAT     H149312   1.728   1.911   0.970
12148WAT     H249313   1.607   1.891   0.908
12148WAT    EPW49314   1.668   1.865   0.950
12149WAT      O49315   1.663   2.670   0.676
12149WAT     H149316   1.631   2.592   0.699
12149WAT     H249317   1.707   2.653   0.602
12149WAT    EPW49318   1.665   2.656   0.668
12150WAT      O49319   0.500   2.405   0.332
12150WAT     H149320   0.471   2.394   0.413
12150WAT     H249321   0.507   2.324   0.302
12150WAT    EPW49322   0.497   2.391   0.339
12151WAT      O49323   0.828   2.173   0.278
12151WAT     H149324   0.745   2.160   0.254
12151WAT     H249325   0.831   2.258   0.297
12151WAT    EPW49326   0.816   2.184   0.277
12152WAT      O49327   0.754   1.295   1.384
12152WAT     H149328   0.674   1.274   1.411
12152WAT     H249329   0.806   1.240   1.427
12152WAT    EPW49330   0.750   1.284   1.394
12153WAT      O49331   1.911   1.156   1.421
12153WAT     H149332   1.887   1.163   1.504
12153WAT     H249333   1.996   1.134   1.426
12153WAT    EPW49334   1.920   1.154   1.434
12154WAT      O49335   1.123   1.321   1.232
12154WAT     H149336   1.064   1.259   1.213
12154WAT     H249337   1.199   1.286   1.206
12154WAT    EPW49338   1.125   1.306   1.225
12155WAT      O49339   1.435   2.456   1.358
12155WAT     H149340   1.460   2.526   1.403
12155WAT     H249341   1.429   2.485   1.276
12155WAT    EPW49342   1.438   2.470   1.352
12156WAT      O49343   1.389   2.855   1.794
12156WAT     H149344   1.314   2.822   1.765
12156WAT     H249345   1.369   2.939   1.811
12156WAT    EPW49346   1.375   2.863   1.792
12157WAT      O49347   0.875   1.801   1.748
12157WAT     H149348   0.843   1.730   1.708
12157WAT     H249349   0.841   1.867   1.703
12157WAT    EPW49350   0.865   1.800   1.736
12158WAT      O49351   1.867   2.298   1.324
12158WAT     H149352   1.842   2.218   1.302
12158WAT     H249353   1.813   2.350   1.279
12158WAT    EPW49354   1.855   2.294   1.314
12159WAT      O49355   0.780   2.795   1.742
12159WAT     H149356   0.770   2.784   1.828
12159WAT     H249357   0.840   2.736   1.720
12159WAT    EPW49358   0.787   2.785   1.751
12160WAT      O49359   1.768   2.593   1.266
12160WAT     H149360   1.837   2.593   1.214
12160WAT     H249361   1.710   2.544   1.224
12160WAT    EPW49362   1.770   2.586   1.252
12161WAT      O49363   0.496   1.267   1.496
12161WAT     H149364   0.437   1.205   1.480
12161WAT     H249365   0.452   1.341   1.486
12161WAT    EPW49366   0.481   1.269   1.492
12162WAT      O49367   1.365   1.241   1.113
12162WAT     H149368   1.431   1.294   1.135
12162WAT     H249369   1.337   1.273   1.037
12162WAT    EPW49370   1.371   1.253   1.105
12163WAT      O49371   0.522   2.630   1.854
12163WAT     H149372   0.584   2.665   1.904
12163WAT     H249373   0.477   2.699   1.825
12163WAT    EPW49374   0.525   2.645   1.857
12164WAT      O49375   1.334   1.740   0.889
12164WAT     H149376   1.388   1.673   0.899
12164WAT     H249377   1.300   1.751   0.968
12164WAT    EPW49378   1.337   1.732   0.902
12165WAT      O49379   0.353   1.542   0.823
12165WAT     H149380   0.305   1.515   0.891
12165WAT     H249381   0.423   1.491   0.827
12165WAT    EPW49382   0.356   1.531   0.834
12166WAT      O49383   0.372   2.466   1.572
12166WAT     H149384   0.332   2.518   1.630
12166WAT     H249385   0.457   2.479   1.589
12166WAT    EPW49386   0.379   2.476   1.583
12167WAT      O49387   1.523   1.920   0.530
12167WAT     H149388   1.543   1.836   0.542
12167WAT     H249389   1.449   1.917   0.484
12167WAT    EPW49390   1.515   1.907   0.525
12168WAT      O49391   0.498   2.786   0.460
12168WAT     H149392   0.469   2.750   0.386
12168WAT     H249393   0.584   2.795   0.446
12168WAT    EPW49394   0.507   2.782   0.447
12169WAT      O49395   0.865   1.972   0.464
12169WAT     H149396   0.864   2.032   0.402
12169WAT     H249397   0.947   1.973   0.493
12169WAT    EPW49398   0.877   1.981   0.459
12170WAT      O49399   1.742   2.744   0.164
12170WAT     H149400   1.824   2.752   0.193
12170WAT     H249401   1.724   2.660   0.176
12170WAT    EPW49402   1.751   2.733   0.170
12171WAT      O49403   1.821   2.077   1.835
12171WAT     H149404   1.892   2.044   1.872
12171WAT     H249405   1.852   2.122   1.767
12171WAT    EPW49406   1.836   2.079   1.831
12172WAT      O49407   1.458   2.422   0.450
12172WAT     H149408   1.494   2.415   0.529
12172WAT     H249409   1.373   2.419   0.466
12172WAT    EPW49410   1.451   2.421   0.464
12173WAT      O49411   1.864   1.531   1.957
12173WAT     H149412   1.855   1.612   1.988
12173WAT     H249413   1.789   1.517   1.915
12173WAT    EPW49414   1.852   1.541   1.956
12174WAT      O49415   1.908   1.636   1.229
12174WAT     H149416   1.825   1.659   1.217
12174WAT     H249417   1.904   1.549   1.235
12174WAT    EPW49418   1.895   1.626   1.228
12175WAT      O49419   0.824   1.336   1.745
12175WAT     H149420   0.865   1.300   1.677
12175WAT     H249421   0.748   1.294   1.749
12175WAT    EPW49422   0.819   1.325   1.736
12176WAT      O49423   1.588   2.134   2.054
12176WAT     H149424   1.662   2.163   2.092
12176WAT     H249425   1.596   2.160   1.971
12176WAT    EPW49426   1.600   2.143   2.047
12177WAT      O49427   0.499   2.671   1.115
12177WAT     H149428   0.502   2.590   1.084
12177WAT     H249429   0.457   2.715   1.052
12177WAT    EPW49430   0.493   2.666   1.101
12178WAT      O49431   1.181   2.355   0.373
12178WAT     H149432   1.225   2.296   0.326
12178WAT     H249433   1.173   2.423   0.320
12178WAT    EPW49434   1.186   2.356   0.358
12179WAT      O49435   0.325   2.900   1.491
12179WAT     H149436   0.326   2.874   1.574
12179WAT     H249437   0.353   2.830   1.448
12179WAT    EPW49438   0.329   2.886   1.497
12180WAT      O49439   1.835   0.770   6.149
12180WAT     H149440   1.894   0.712   6.178
12180WAT     H249441   1.786   0.724   6.093
12180WAT    EPW49442   1.836   0.754   6.145
12181WAT      O49443   0.527   0.303   5.873
12181WAT     H149444   0.486   0.287   5.797
12181WAT     H249445   0.536   0.224   5.909
12181WAT    EPW49446   0.522   0.289   5.867
12182WAT      O49447   0.465   0.474   6.298
12182WAT     H149448   0.544   0.443   6.314
12182WAT     H249449   0.411   0.416   6.336
12182WAT    EPW49450   0.468   0.461   6.306
12183WAT      O49451   0.399   0.787   5.927
12183WAT     H149452   0.425   0.780   5.844
12183WAT     H249453   0.407   0.706   5.958
12183WAT    EPW49454   0.404   0.774   5.920
12184WAT      O49455   0.906   0.454   7.474
12184WAT     H149456   0.912   0.408   7.548
12184WAT     H249457   0.837   0.420   7.434
12184WAT    EPW49458   0.897   0.443   7.479
12185WAT      O49459   0.853   0.720   7.238
12185WAT     H149460   0.832   0.795   7.199
12185WAT     H249461   0.938   0.728   7.253
12185WAT    EPW49462   0.862   0.732   7.234
12186WAT      O49463   0.985   0.554   6.646
12186WAT     H149464   1.005   0.476   6.677
12186WAT     H249465   1.063   0.594   6.640
12186WAT    EPW49466   0.999   0.549   6.650
12187WAT      O49467   1.062   0.520   6.291
12187WAT     H149468   1.072   0.448   6.339
12187WAT     H249469   1.083   0.495   6.210
12187WAT    EPW49470   1.067   0.506   6.286
12188WAT      O49471   0.814   0.640   6.257
12188WAT     H149472   0.778   0.625   6.335
12188WAT     H249473   0.893   0.605   6.264
12188WAT    EPW49474   0.820   0.632   6.270
12189WAT      O49475   1.403   0.890   6.071
12189WAT     H149476   1.473   0.943   6.073
12189WAT     H249477   1.436   0.811   6.087
12189WAT    EPW49478   1.418   0.886   6.074
12190WAT      O49479   1.204   0.911   6.258
12190WAT     H149480   1.224   0.983   6.304
12190WAT     H249481   1.265   0.909   6.196
12190WAT    EPW49482   1.216   0.921   6.256
12191WAT      O49483   0.414   0.746   6.384
12191WAT     H149484   0.426   0.662   6.366
12191WAT     H249485   0.427   0.785   6.307
12191WAT    EPW49486   0.417   0.740   6.370
12192WAT      O49487   1.459   0.913   7.053
12192WAT     H149488   1.528   0.965   7.046
12192WAT     H249489   1.447   0.885   6.971
12192WAT    EPW49490   1.467   0.916   7.040
12193WAT      O49491   0.507   0.575   6.685
12193WAT     H149492   0.567   0.580   6.622
12193WAT     H249493   0.548   0.533   6.750
12193WAT    EPW49494   0.522   0.570   6.686
12194WAT      O49495   0.770   0.862   6.590
12194WAT     H149496   0.848   0.888   6.559
12194WAT     H249497   0.713   0.913   6.547
12194WAT    EPW49498   0.773   0.874   6.579
12195WAT      O49499   1.610   1.077   6.044
12195WAT     H149500   1.658   1.053   5.975
12195WAT     H249501   1.666   1.123   6.093
12195WAT    EPW49502   1.626   1.080   6.041
12196WAT      O49503   0.710   0.942   7.148
12196WAT     H149504   0.715   0.963   7.232
12196WAT     H249505   0.632   0.904   7.141
12196WAT    EPW49506   0.700   0.939   7.159
12197WAT      O49507   1.332   0.741   7.463
12197WAT     H149508   1.313   0.668   7.506
12197WAT     H249509   1.414   0.729   7.437
12197WAT    EPW49510   1.341   0.729   7.465
12198WAT      O49511   1.092   0.698   5.871
12198WAT     H149512   1.060   0.759   5.925
12198WAT     H249513   1.170   0.731   5.847
12198WAT    EPW49514   1.099   0.712   5.875
12199WAT      O49515   0.464   0.824   7.095
12199WAT     H149516   0.434   0.746   7.121
12199WAT     H249517   0.466   0.817   7.009
12199WAT    EPW49518   0.460   0.811   7.086
12200WAT      O49519   1.213   0.955   7.164
12200WAT     H149520   1.292   0.946   7.129
12200WAT     H249521   1.160   0.957   7.094
12200WAT    EPW49522   1.217   0.954   7.149
12201WAT      O49523   1.896   0.998   6.429
12201WAT     H149524   1.859   1.074   6.448
12201WAT     H249525   1.828   0.946   6.413
12201WAT    EPW49526   1.881   1.001   6.430
12202WAT      O49527   1.570   0.613   6.459
12202WAT     H149528   1.606   0.534   6.461
12202WAT     H249529   1.485   0.597   6.450
12202WAT    EPW49530   1.563   0.599   6.458
12203WAT      O49531   0.620   0.635   7.367
12203WAT     H149532   0.693   0.667   7.330
12203WAT     H249533   0.596   0.697   7.423
12203WAT    EPW49534   0.627   0.649   7.370
12204WAT      O49535   0.769   0.204   6.845
12204WAT     H149536   0.792   0.211   6.929
12204WAT     H249537   0.705   0.146   6.846
12204WAT    EPW49538   0.763   0.196   6.858
12205WAT      O49539   0.848   0.291   7.102
12205WAT     H149540   0.851   0.375   7.079
12205WAT     H249541   0.799   0.292   7.174
12205WAT    EPW49542   0.841   0.304   7.109
12206WAT      O49543   1.494   0.374   7.033
12206WAT     H149544   1.437   0.325   7.076
12206WAT     H249545   1.467   0.455   7.047
12206WAT    EPW49546   1.482   0.379   7.041
12207WAT      O49547   1.799   0.358   5.978
12207WAT     H149548   1.796   0.319   6.056
12207WAT     H249549   1.884   0.379   5.969
12207WAT    EPW49550   1.811   0.355   5.988
12208WAT      O49551   0.445   0.219   6.458
12208WAT     H149552   0.529   0.239   6.441
12208WAT     H249553   0.443   0.132   6.452
12208WAT    EPW49554   0.457   0.209   6.454
12209WAT      O49555   0.382   0.977   6.621
12209WAT     H149556   0.328   0.919   6.583
12209WAT     H249557   0.446   0.987   6.563
12209WAT    EPW49558   0.383   0.970   6.607
12210WAT      O49559   2.013   0.843   7.395
12210WAT     H149560   1.954   0.827   7.332
12210WAT     H249561   1.970   0.894   7.451
12210WAT    EPW49562   1.998   0.848   7.394
12211WAT      O49563   0.692   0.336   6.385
12211WAT     H149564   0.732   0.397   6.433
12211WAT     H249565   0.759   0.292   6.349
12211WAT    EPW49566   0.708   0.338   6.387
12212WAT      O49567   1.202   0.732   6.612
12212WAT     H149568   1.151   0.799   6.589
12212WAT     H249569   1.237   0.707   6.536
12212WAT    EPW49570   1.200   0.738   6.597
12213WAT      O49571   0.635   0.442   6.884
12213WAT     H149572   0.692   0.486   6.934
12213WAT     H249573   0.680   0.372   6.859
12213WAT    EPW49574   0.650   0.438   6.888
12214WAT      O49575   0.341   0.344   6.688
12214WAT     H149576   0.369   0.301   6.617
12214WAT     H249577   0.378   0.423   6.680
12214WAT    EPW49578   0.351   0.349   6.676
12215WAT      O49579   1.775   0.823   7.236
12215WAT     H149580   1.740   0.902   7.243
12215WAT     H249581   1.774   0.807   7.150
12215WAT    EPW49582   1.770   0.832   7.225
12216WAT      O49583   0.742   0.596   6.523
12216WAT     H149584   0.735   0.682   6.538
12216WAT     H249585   0.817   0.574   6.561
12216WAT    EPW49586   0.752   0.606   6.530
12217WAT      O49587   1.006   0.951   6.982
12217WAT     H149588   0.974   0.880   6.944
12217WAT     H249589   0.994   1.014   6.923
12217WAT    EPW49590   0.999   0.950   6.968
12218WAT      O49591   1.524   0.407   7.439
12218WAT     H149592   1.555   0.487   7.423
12218WAT     H249593   1.565   0.357   7.380
12218WAT    EPW49594   1.535   0.411   7.428
12219WAT      O49595   0.929   0.743   7.535
12219WAT     H149596   0.949   0.733   7.619
12219WAT     H249597   0.920   0.661   7.506
12219WAT    EPW49598   0.931   0.730   7.543
12220WAT      O49599   1.678   0.351   6.458
12220WAT     H149600   1.744   0.328   6.510
12220WAT     H249601   1.701   0.321   6.380
12220WAT    EPW49602   1.691   0.343   6.454
12221WAT      O49603   1.405   0.780   6.804
12221WAT     H149604   1.340   0.763   6.748
12221WAT     H249605   1.449   0.845   6.765
12221WAT    EPW49606   1.402   0.787   6.790
12222WAT      O49607   1.383   0.416   6.773
12222WAT     H149608   1.312   0.458   6.799
12222WAT     H249609   1.414   0.380   6.846
12222WAT    EPW49610   1.377   0.417   6.787
12223WAT      O49611   0.778   0.905   6.185
12223WAT     H149612   0.785   0.827   6.224
12223WAT     H249613   0.850   0.910   6.136
12223WAT    EPW49614   0.790   0.894   6.184
12224WAT      O49615   1.017   0.897   6.049
12224WAT     H149616   1.074   0.905   6.114
12224WAT     H249617   1.020   0.975   6.010
12224WAT    EPW49618   1.026   0.910   6.053
12225WAT      O49619   1.656   0.264   7.243
12225WAT     H149620   1.631   0.298   7.167
12225WAT     H249621   1.743   0.270   7.241
12225WAT    EPW49622   1.665   0.270   7.232
12226WAT      O49623   1.299   0.246   7.185
12226WAT     H149624   1.250   0.303   7.230
12226WAT     H249625   1.336   0.197   7.247
12226WAT    EPW49626   1.297   0.247   7.201
12227WAT      O49627   1.688   0.500   6.867
12227WAT     H149628   1.642   0.518   6.795
12227WAT     H249629   1.634   0.452   6.916
12227WAT    EPW49630   1.673   0.496   6.864
12228WAT      O49631   1.013   0.281   6.712
12228WAT     H149632   0.934   0.251   6.733
12228WAT     H249633   1.059   0.269   6.785
12228WAT    EPW49634   1.008   0.274   6.726
12229WAT      O49635   0.722   0.885   5.815
12229WAT     H149636   0.737   0.818   5.869
12229WAT     H249637   0.720   0.954   5.869
12229WAT    EPW49638   0.724   0.885   5.831
12230WAT      O49639   0.428   0.270   6.948
12230WAT     H149640   0.490   0.331   6.939
12230WAT     H249641   0.382   0.277   6.874
12230WAT    EPW49642   0.430   0.280   6.935
12231WAT      O49643   2.005   0.935   6.009
12231WAT     H149644   2.064   0.882   5.974
12231WAT     H249645   1.952   0.881   6.053
12231WAT    EPW49646   2.006   0.919   6.010
12232WAT      O49647   0.426   0.314   7.225
12232WAT     H149648   0.417   0.284   7.143
12232WAT     H249649   0.401   0.397   7.219
12232WAT    EPW49650   0.421   0.322   7.212
12233WAT      O49651   1.909   0.221   6.574
12233WAT     H149652   1.873   0.147   6.603
12233WAT     H249653   1.980   0.230   6.624
12233WAT    EPW49654   1.914   0.211   6.586
12234WAT      O49655   2.000   0.724   6.790
12234WAT     H149656   2.027   0.779   6.728
12234WAT     H249657   2.055   0.739   6.856
12234WAT    EPW49658   2.012   0.734   6.790
12235WAT      O49659   1.687   0.613   5.981
12235WAT     H149660   1.718   0.531   5.981
12235WAT     H249661   1.612   0.607   6.026
12235WAT    EPW49662   1.681   0.600   5.988
12236WAT      O49663   1.940   0.323   7.249
12236WAT     H149664   2.026   0.311   7.256
12236WAT     H249665   1.933   0.373   7.178
12236WAT    EPW49666   1.952   0.329   7.239
12237WAT      O49667   1.379   0.433   5.922
12237WAT     H149668   1.438   0.371   5.904
12237WAT     H249669   1.356   0.463   5.843
12237WAT    EPW49670   1.384   0.428   5.908
12238WAT      O49671   0.844   0.555   7.023
12238WAT     H149672   0.844   0.604   7.095
12238WAT     H249673   0.866   0.611   6.960
12238WAT    EPW49674   0.847   0.571   7.024
12239WAT      O49675   0.682   0.366   7.326
12239WAT     H149676   0.607   0.328   7.302
12239WAT     H249677   0.659   0.449   7.339
12239WAT    EPW49678   0.667   0.373   7.324
12240WAT      O49679   1.102   0.266   6.984
12240WAT     H149680   1.164   0.242   7.041
12240WAT     H249681   1.029   0.262   7.031
12240WAT    EPW49682   1.101   0.262   6.999
12241WAT      O49683   1.029   0.932   6.504
12241WAT     H149684   1.030   1.018   6.518
12241WAT     H249685   1.050   0.924   6.420
12241WAT    EPW49686   1.032   0.943   6.494
12242WAT      O49687   0.891   0.746   6.827
12242WAT     H149688   0.839   0.790   6.772
12242WAT     H249689   0.932   0.689   6.775
12242WAT    EPW49690   0.889   0.744   6.811
12243WAT      O49691   1.274   0.482   7.541
12243WAT     H149692   1.352   0.447   7.523
12243WAT     H249693   1.226   0.459   7.472
12243WAT    EPW49694   1.279   0.473   7.528
12244WAT      O49695   1.604   0.677   7.407
12244WAT     H149696   1.648   0.692   7.480
12244WAT     H249697   1.653   0.715   7.345
12244WAT    EPW49698   1.617   0.685   7.408
12245WAT      O49699   0.949   0.263   6.007
12245WAT     H149700   0.891   0.298   5.952
12245WAT     H249701   1.013   0.322   6.010
12245WAT    EPW49702   0.950   0.277   5.999
12246WAT      O49703   1.069   0.978   7.423
12246WAT     H149704   1.116   0.965   7.350
12246WAT     H249705   1.054   0.897   7.452
12246WAT    EPW49706   1.073   0.964   7.416
12247WAT      O49707   1.754   0.216   6.220
12247WAT     H149708   1.814   0.158   6.244
12247WAT     H249709   1.683   0.168   6.205
12247WAT    EPW49710   1.752   0.200   6.221
12248WAT      O49711   1.130   0.433   7.307
12248WAT     H149712   1.054   0.429   7.349
12248WAT     H249713   1.132   0.515   7.277
12248WAT    EPW49714   1.119   0.444   7.309
12249WAT      O49715   0.683   1.032   6.878
12249WAT     H149716   0.695   1.017   6.964
12249WAT     H249717   0.641   0.960   6.851
12249WAT    EPW49718   0.679   1.019   6.887
12250WAT      O49719   1.391   0.351   6.503
12250WAT     H149720   1.388   0.371   6.587
12250WAT     H249721   1.476   0.337   6.489
12250WAT    EPW49722   1.403   0.352   6.513
12251WAT      O49723   1.120   0.292   6.443
12251WAT     H149724   1.088   0.282   6.523
12251WAT     H249725   1.206   0.301   6.456
12251WAT    EPW49726   1.128   0.292   6.457
12252WAT      O49727   1.137   0.710   7.268
12252WAT     H149728   1.194   0.716   7.334
12252WAT     H249729   1.162   0.774   7.214
12252WAT    EPW49730   1.149   0.721   7.270
12253WAT      O49731   0.318   1.029   7.475
12253WAT     H149732   0.236   1.019   7.504
12253WAT     H249733   0.340   1.109   7.502
12253WAT    EPW49734   0.309   1.039   7.484
12254WAT      O49735   1.533   1.027   6.750
12254WAT     H149736   1.474   1.086   6.775
12254WAT     H249737   1.598   1.037   6.809
12254WAT    EPW49738   1.534   1.037   6.763
12255WAT      O49739   1.165   0.528   6.905
12255WAT     H149740   1.137   0.453   6.941
12255WAT     H249741   1.213   0.564   6.969
12255WAT    EPW49742   1.168   0.522   6.920
12256WAT      O49743   1.289   0.662   6.354
12256WAT     H149744   1.266   0.742   6.326
12256WAT     H249745   1.218   0.614   6.338
12256WAT    EPW49746   1.275   0.667   6.348
12257WAT      O49747   0.726   0.653   5.984
12257WAT     H149748   0.761   0.651   6.064
12257WAT     H249749   0.644   0.626   5.997
12257WAT    EPW49750   0.719   0.648   5.998
12258WAT      O49751   1.669   0.852   6.359
12258WAT     H149752   1.640   0.777   6.394
12258WAT     H249753   1.711   0.825   6.287
12258WAT    EPW49754   1.671   0.837   6.353
12259WAT      O49755   0.475   0.537   6.025
12259WAT     H149756   0.465   0.515   6.109
12259WAT     H249757   0.480   0.460   5.984
12259WAT    EPW49758   0.474   0.523   6.032
12260WAT      O49759   0.782   0.418   5.841
12260WAT     H149760   0.702   0.385   5.846
12260WAT     H249761   0.776   0.494   5.882
12260WAT    EPW49762   0.770   0.424   5.848
12261WAT      O49763   1.397   0.631   7.039
12261WAT     H149764   1.424   0.696   7.090
12261WAT     H249765   1.404   0.664   6.959
12261WAT    EPW49766   1.402   0.645   7.035
12262WAT      O49767   1.429   1.019   7.464
12262WAT     H149768   1.377   0.950   7.479
12262WAT     H249769   1.380   1.087   7.487
12262WAT    EPW49770   1.414   1.019   7.470
12263WAT      O49771   1.940   0.461   7.006
12263WAT     H149772   2.003   0.419   6.963
12263WAT     H249773   1.876   0.470   6.947
12263WAT    EPW49774   1.940   0.456   6.991
12264WAT      O49775   0.782   0.971   7.422
12264WAT     H149776   0.857   1.013   7.408
12264WAT     H249777   0.807   0.894   7.453
12264WAT    EPW49778   0.797   0.966   7.424
12265WAT      O49779   1.771   0.757   6.961
12265WAT     H149780   1.838   0.761   6.905
12265WAT     H249781   1.732   0.681   6.940
12265WAT    EPW49782   1.775   0.746   6.949
12266WAT      O49783   0.533   0.851   7.518
12266WAT     H149784   0.599   0.908   7.519
12266WAT     H249785   0.462   0.902   7.509
12266WAT    EPW49786   0.532   0.867   7.517
12267WAT      O49787   0.383   0.593   7.233
12267WAT     H149788   0.321   0.612   7.292
12267WAT     H249789   0.457   0.605   7.278
12267WAT    EPW49790   0.385   0.598   7.249
12268WAT      O49791   0.500   0.898   6.166
12268WAT     H149792   0.468   0.876   6.088
12268WAT     H249793   0.586   0.896   6.155
12268WAT    EPW49794   0.508   0.894   6.153
12269WAT      O49795   0.906   0.196   6.276
12269WAT     H149796   0.922   0.210   6.191
12269WAT     H249797   0.982   0.212   6.314
12269WAT    EPW49798   0.919   0.200   6.269
12270WAT      O49799   1.788   1.004   5.844
12270WAT     H149800   1.860   0.987   5.890
12270WAT     H249801   1.767   0.927   5.810
12270WAT    EPW49802   1.796   0.990   5.846
12271WAT      O49803   1.894   0.278   7.525
12271WAT     H149804   1.967   0.232   7.538
12271WAT     H249805   1.899   0.300   7.441
12271WAT    EPW49806   1.906   0.274   7.515
12272WAT      O49807   1.450   0.620   6.121
12272WAT     H149808   1.407   0.613   6.196
12272WAT     H249809   1.411   0.562   6.069
12272WAT    EPW49810   1.438   0.610   6.125
12273WAT      O49811   1.641   0.252   7.647
12273WAT     H149812   1.722   0.257   7.617
12273WAT     H249813   1.595   0.301   7.591
12273WAT    EPW49814   1.646   0.260   7.634
12274WAT      O49815   0.500   0.821   6.818
12274WAT     H149816   0.503   0.744   6.777
12274WAT     H249817   0.456   0.871   6.762
12274WAT    EPW49818   0.494   0.817   6.803
12275WAT      O49819   1.129   0.471   6.028
12275WAT     H149820   1.207   0.445   5.997
12275WAT     H249821   1.109   0.539   5.977
12275WAT    EPW49822   1.138   0.477   6.016
12276WAT      O49823   0.327   1.046   7.192
12276WAT     H149824   0.323   1.033   7.278
12276WAT     H249825   0.362   0.972   7.162
12276WAT    EPW49826   0.332   1.034   7.201
12277WAT      O49827   1.835   0.769   4.248
12277WAT     H149828   1.893   0.711   4.277
12277WAT     H249829   1.786   0.723   4.192
12277WAT    EPW49830   1.837   0.754   4.244
12278WAT      O49831   0.527   0.302   3.977
12278WAT     H149832   0.485   0.284   3.903
12278WAT     H249833   0.535   0.224   4.015
12278WAT    EPW49834   0.522   0.288   3.972
12279WAT      O49835   0.457   0.469   4.402
12279WAT     H149836   0.535   0.434   4.419
12279WAT     H249837   0.401   0.413   4.438
12279WAT    EPW49838   0.461   0.455   4.410
12280WAT      O49839   0.401   0.787   4.030
12280WAT     H149840   0.425   0.780   3.947
12280WAT     H249841   0.407   0.705   4.061
12280WAT    EPW49842   0.405   0.774   4.023
12281WAT      O49843   0.896   0.443   5.586
12281WAT     H149844   0.867   0.431   5.668
12281WAT     H249845   0.830   0.414   5.537
12281WAT    EPW49846   0.882   0.437   5.591
12282WAT      O49847   0.879   0.782   5.322
12282WAT     H149848   0.898   0.838   5.258
12282WAT     H249849   0.957   0.749   5.343
12282WAT    EPW49850   0.893   0.786   5.315
12283WAT      O49851   0.986   0.546   4.740
12283WAT     H149852   1.007   0.469   4.774
12283WAT     H249853   1.062   0.588   4.735
12283WAT    EPW49854   1.000   0.541   4.744
12284WAT      O49855   1.065   0.519   4.391
12284WAT     H149856   1.074   0.446   4.438
12284WAT     H249857   1.084   0.493   4.310
12284WAT    EPW49858   1.069   0.504   4.386
12285WAT      O49859   0.816   0.638   4.355
12285WAT     H149860   0.778   0.620   4.431
12285WAT     H249861   0.896   0.603   4.362
12285WAT    EPW49862   0.822   0.630   4.367
12286WAT      O49863   1.402   0.890   4.169
12286WAT     H149864   1.472   0.942   4.171
12286WAT     H249865   1.434   0.811   4.186
12286WAT    EPW49866   1.417   0.886   4.172
12287WAT      O49867   1.206   0.912   4.359
12287WAT     H149868   1.225   0.984   4.404
12287WAT     H249869   1.266   0.910   4.296
12287WAT    EPW49870   1.218   0.922   4.357
12288WAT      O49871   0.402   0.743   4.488
12288WAT     H149872   0.417   0.659   4.472
12288WAT     H249873   0.422   0.782   4.413
12288WAT    EPW49874   0.407   0.737   4.475
12289WAT      O49875   1.454   0.910   5.159
12289WAT     H149876   1.524   0.961   5.150
12289WAT     H249877   1.436   0.885   5.077
12289WAT    EPW49878   1.462   0.914   5.145
12290WAT      O49879   0.509   0.569   4.783
12290WAT     H149880   0.573   0.571   4.723
12290WAT     H249881   0.548   0.532   4.852
12290WAT    EPW49882   0.524   0.564   4.784
12291WAT      O49883   0.771   0.856   4.680
12291WAT     H149884   0.849   0.883   4.651
12291WAT     H249885   0.715   0.908   4.638
12291WAT    EPW49886   0.774   0.867   4.669
12292WAT      O49887   1.609   1.076   4.142
12292WAT     H149888   1.658   1.052   4.074
12292WAT     H249889   1.664   1.123   4.191
12292WAT    EPW49890   1.624   1.079   4.139
12293WAT      O49891   0.661   0.993   5.264
12293WAT     H149892   0.696   0.959   5.336
12293WAT     H249893   0.595   0.939   5.246
12293WAT    EPW49894   0.656   0.980   5.272
12294WAT      O49895   1.347   0.741   5.508
12294WAT     H149896   1.326   0.692   5.577
12294WAT     H249897   1.432   0.726   5.496
12294WAT    EPW49898   1.356   0.732   5.516
12295WAT      O49899   1.093   0.698   3.970
12295WAT     H149900   1.062   0.759   4.024
12295WAT     H249901   1.171   0.730   3.946
12295WAT    EPW49902   1.100   0.712   3.974
12296WAT      O49903   0.447   0.836   5.180
12296WAT     H149904   0.422   0.758   5.211
12296WAT     H249905   0.457   0.822   5.095
12296WAT    EPW49906   0.445   0.822   5.172
12297WAT      O49907   1.214   0.984   5.273
12297WAT     H149908   1.291   0.962   5.237
12297WAT     H249909   1.156   0.964   5.210
12297WAT    EPW49910   1.217   0.978   5.258
12298WAT      O49911   1.896   0.995   4.530
12298WAT     H149912   1.859   1.072   4.549
12298WAT     H249913   1.828   0.943   4.513
12298WAT    EPW49914   1.880   0.999   4.531
12299WAT      O49915   1.570   0.612   4.554
12299WAT     H149916   1.606   0.533   4.558
12299WAT     H249917   1.485   0.597   4.546
12299WAT    EPW49918   1.563   0.598   4.554
12300WAT      O49919   0.643   0.659   5.447
12300WAT     H149920   0.712   0.707   5.423
12300WAT     H249921   0.617   0.696   5.522
12300WAT    EPW49922   0.650   0.672   5.455
12301WAT      O49923   0.769   0.222   4.950
12301WAT     H149924   0.793   0.229   5.034
12301WAT     H249925   0.706   0.162   4.952
12301WAT    EPW49926   0.763   0.214   4.963
12302WAT      O49927   0.853   0.315   5.203
12302WAT     H149928   0.854   0.399   5.183
12302WAT     H249929   0.801   0.311   5.273
12302WAT    EPW49930   0.845   0.327   5.210
12303WAT      O49931   1.488   0.384   5.158
12303WAT     H149932   1.431   0.333   5.200
12303WAT     H249933   1.455   0.464   5.166
12303WAT    EPW49934   1.475   0.388   5.165
12304WAT      O49935   1.799   0.359   4.076
12304WAT     H149936   1.797   0.319   4.154
12304WAT     H249937   1.883   0.380   4.067
12304WAT    EPW49938   1.811   0.356   4.086
12305WAT      O49939   0.446   0.196   4.562
12305WAT     H149940   0.528   0.218   4.542
12305WAT     H249941   0.446   0.109   4.561
12305WAT    EPW49942   0.458   0.187   4.559
12306WAT      O49943   0.384   0.965   4.706
12306WAT     H149944   0.340   0.900   4.666
12306WAT     H249945   0.449   0.982   4.651
12306WAT    EPW49946   0.387   0.957   4.692
12307WAT      O49947   2.041   0.810   5.491
12307WAT     H149948   1.968   0.813   5.445
12307WAT     H249949   2.019   0.765   5.563
12307WAT    EPW49950   2.027   0.804   5.495
12308WAT      O49951   0.686   0.330   4.484
12308WAT     H149952   0.723   0.393   4.531
12308WAT     H249953   0.754   0.289   4.448
12308WAT    EPW49954   0.701   0.334   4.486
12309WAT      O49955   1.200   0.727   4.711
12309WAT     H149956   1.149   0.795   4.689
12309WAT     H249957   1.237   0.704   4.636
12309WAT    EPW49958   1.198   0.734   4.697
12310WAT      O49959   0.627   0.455   4.999
12310WAT     H149960   0.681   0.500   5.051
12310WAT     H249961   0.676   0.387   4.974
12310WAT    EPW49962   0.642   0.451   5.003
12311WAT      O49963   0.349   0.333   4.790
12311WAT     H149964   0.375   0.288   4.721
12311WAT     H249965   0.385   0.412   4.778
12311WAT    EPW49966   0.359   0.338   4.778
12312WAT      O49967   1.795   0.827   5.350
12312WAT     H149968   1.753   0.903   5.359
12312WAT     H249969   1.792   0.812   5.264
12312WAT    EPW49970   1.788   0.836   5.339
12313WAT      O49971   0.741   0.588   4.619
12313WAT     H149972   0.736   0.674   4.633
12313WAT     H249973   0.818   0.566   4.655
12313WAT    EPW49974   0.752   0.598   4.626
12314WAT      O49975   1.000   0.920   5.098
12314WAT     H149976   0.979   0.857   5.041
12314WAT     H249977   0.980   0.993   5.056
12314WAT    EPW49978   0.994   0.921   5.084
12315WAT      O49979   1.578   0.409   5.584
12315WAT     H149980   1.601   0.490   5.560
12315WAT     H249981   1.601   0.360   5.516
12315WAT    EPW49982   1.584   0.414   5.571
12316WAT      O49983   0.984   0.713   5.616
12316WAT     H149984   1.012   0.708   5.698
12316WAT     H249985   0.952   0.633   5.600
12316WAT    EPW49986   0.983   0.700   5.626
12317WAT      O49987   1.678   0.349   4.555
12317WAT     H149988   1.745   0.326   4.607
12317WAT     H249989   1.703   0.320   4.477
12317WAT    EPW49990   1.692   0.341   4.551
12318WAT      O49991   1.394   0.778   4.909
12318WAT     H149992   1.332   0.760   4.850
12318WAT     H249993   1.441   0.841   4.871
12318WAT    EPW49994   1.392   0.785   4.895
12319WAT      O49995   1.401   0.408   4.880
12319WAT     H149996   1.325   0.446   4.899
12319WAT     H249997   1.425   0.372   4.956
12319WAT    EPW49998   1.393   0.408   4.894
12320WAT      O49999   0.782   0.904   4.283
12320WAT     H150000   0.789   0.826   4.322
12320WAT     H250001   0.853   0.909   4.233
12320WAT    EPW50002   0.793   0.893   4.281
12321WAT      O50003   1.020   0.899   4.147
12321WAT     H150004   1.076   0.907   4.213
12321WAT     H250005   1.022   0.978   4.109
12321WAT    EPW50006   1.029   0.912   4.151
12322WAT      O50007   1.666   0.271   5.364
12322WAT     H150008   1.635   0.306   5.290
12322WAT     H250009   1.752   0.281   5.357
12322WAT    EPW50010   1.674   0.278   5.352
12323WAT      O50011   1.330   0.830   5.810
12323WAT     H150012   1.355   0.857   5.890
12323WAT     H250013   1.374   0.882   5.756
12323WAT    EPW50014   1.340   0.842   5.814
12324WAT      O50015   1.290   0.244   5.299
12324WAT     H150016   1.244   0.295   5.353
12324WAT     H250017   1.317   0.179   5.349
12324WAT    EPW50018   1.287   0.242   5.314
12325WAT      O50019   1.685   0.502   4.988
12325WAT     H150020   1.638   0.514   4.916
12325WAT     H250021   1.631   0.458   5.040
12325WAT    EPW50022   1.670   0.497   4.985
12326WAT      O50023   1.015   0.274   4.812
12326WAT     H150024   0.934   0.251   4.835
12326WAT     H250025   1.062   0.259   4.885
12326WAT    EPW50026   1.010   0.268   4.826
12327WAT      O50027   0.722   0.884   3.914
12327WAT     H150028   0.736   0.817   3.968
12327WAT     H250029   0.720   0.953   3.968
12327WAT    EPW50030   0.724   0.885   3.930
12328WAT      O50031   0.419   0.283   5.061
12328WAT     H150032   0.481   0.344   5.051
12328WAT     H250033   0.378   0.283   4.984
12328WAT    EPW50034   0.422   0.292   5.049
12329WAT      O50035   2.003   0.937   4.109
12329WAT     H150036   2.065   0.885   4.076
12329WAT     H250037   1.952   0.882   4.152
12329WAT    EPW50038   2.005   0.921   4.110
12330WAT      O50039   0.418   0.333   5.338
12330WAT     H150040   0.407   0.302   5.258
12330WAT     H250041   0.394   0.417   5.332
12330WAT    EPW50042   0.413   0.341   5.326
12331WAT      O50043   1.912   0.221   4.671
12331WAT     H150044   1.881   0.142   4.693
12331WAT     H250045   1.981   0.231   4.722
12331WAT    EPW50046   1.917   0.211   4.682
12332WAT      O50047   1.997   0.721   4.886
12332WAT     H150048   2.024   0.777   4.825
12332WAT     H250049   2.053   0.732   4.951
12332WAT    EPW50050   2.009   0.731   4.887
12333WAT      O50051   1.687   0.613   4.081
12333WAT     H150052   1.717   0.531   4.080
12333WAT     H250053   1.612   0.607   4.125
12333WAT    EPW50054   1.680   0.600   4.087
12334WAT      O50055   1.946   0.341   5.371
12334WAT     H150056   2.030   0.319   5.374
12334WAT     H250057   1.940   0.387   5.297
12334WAT    EPW50058   1.958   0.345   5.360
12335WAT      O50059   1.379   0.432   4.021
12335WAT     H150060   1.437   0.369   4.004
12335WAT     H250061   1.356   0.461   3.942
12335WAT    EPW50062   1.384   0.427   4.007
12336WAT      O50063   0.830   0.583   5.137
12336WAT     H150064   0.836   0.641   5.202
12336WAT     H250065   0.850   0.629   5.066
12336WAT    EPW50066   0.834   0.598   5.136
12337WAT      O50067   0.679   0.383   5.418
12337WAT     H150068   0.600   0.351   5.398
12337WAT     H250069   0.667   0.469   5.422
12337WAT    EPW50070   0.666   0.391   5.415
12338WAT      O50071   1.102   0.261   5.090
12338WAT     H150072   1.161   0.241   5.152
12338WAT     H250073   1.027   0.266   5.134
12338WAT    EPW50074   1.100   0.259   5.106
12339WAT      O50075   1.031   0.930   4.605
12339WAT     H150076   1.031   1.015   4.623
12339WAT     H250077   1.055   0.926   4.521
12339WAT    EPW50078   1.034   0.942   4.595
12340WAT      O50079   0.888   0.738   4.916
12340WAT     H150080   0.838   0.782   4.860
12340WAT     H250081   0.926   0.678   4.866
12340WAT    EPW50082   0.886   0.735   4.900
12341WAT      O50083   1.321   0.498   5.658
12341WAT     H150084   1.396   0.466   5.628
12341WAT     H250085   1.261   0.466   5.603
12341WAT    EPW50086   1.324   0.489   5.645
12342WAT      O50087   1.619   0.677   5.508
12342WAT     H150088   1.648   0.706   5.585
12342WAT     H250089   1.674   0.714   5.451
12342WAT    EPW50090   1.631   0.687   5.511
12343WAT      O50091   0.950   0.262   4.104
12343WAT     H150092   0.891   0.297   4.050
12343WAT     H250093   1.013   0.322   4.108
12343WAT    EPW50094   0.951   0.276   4.097
12344WAT      O50095   1.059   0.959   5.505
12344WAT     H150096   1.118   0.949   5.442
12344WAT     H250097   1.052   0.879   5.538
12344WAT    EPW50098   1.067   0.946   5.501
12345WAT      O50099   1.757   0.215   4.318
12345WAT     H150100   1.818   0.157   4.342
12345WAT     H250101   1.686   0.165   4.303
12345WAT    EPW50102   1.755   0.199   4.319
12346WAT      O50103   1.142   0.419   5.457
12346WAT     H150104   1.066   0.412   5.499
12346WAT     H250105   1.136   0.495   5.415
12346WAT    EPW50106   1.130   0.429   5.457
12347WAT      O50107   0.656   1.056   4.981
12347WAT     H150108   0.662   1.053   5.068
12347WAT     H250109   0.628   0.976   4.960
12347WAT    EPW50110   0.653   1.044   4.991
12348WAT      O50111   1.394   0.348   4.608
12348WAT     H150112   1.395   0.365   4.693
12348WAT     H250113   1.478   0.334   4.589
12348WAT    EPW50114   1.407   0.348   4.617
12349WAT      O50115   1.123   0.291   4.542
12349WAT     H150116   1.090   0.278   4.622
12349WAT     H250117   1.209   0.299   4.557
12349WAT    EPW50118   1.131   0.290   4.556
12350WAT      O50119   1.141   0.670   5.336
12350WAT     H150120   1.200   0.700   5.393
12350WAT     H250121   1.185   0.673   5.260
12350WAT    EPW50122   1.156   0.675   5.333
12351WAT      O50123   0.380   1.003   5.572
12351WAT     H150124   0.323   1.038   5.628
12351WAT     H250125   0.443   1.064   5.567
12351WAT    EPW50126   0.381   1.017   5.580
12352WAT      O50127   1.525   1.021   4.850
12352WAT     H150128   1.466   1.081   4.872
12352WAT     H250129   1.589   1.032   4.908
12352WAT    EPW50130   1.526   1.031   4.862
12353WAT      O50131   1.168   0.510   4.991
12353WAT     H150132   1.140   0.436   5.028
12353WAT     H250133   1.212   0.550   5.055
12353WAT    EPW50134   1.170   0.505   5.006
12354WAT      O50135   1.734   0.752   5.748
12354WAT     H150136   1.815   0.723   5.737
12354WAT     H250137   1.706   0.708   5.818
12354WAT    EPW50138   1.741   0.741   5.757
12355WAT      O50139   1.289   0.662   4.454
12355WAT     H150140   1.267   0.741   4.426
12355WAT     H250141   1.219   0.613   4.438
12355WAT    EPW50142   1.276   0.666   4.448
12356WAT      O50143   0.725   0.652   4.083
12356WAT     H150144   0.762   0.650   4.163
12356WAT     H250145   0.643   0.626   4.098
12356WAT    EPW50146   0.719   0.648   4.097
12357WAT      O50147   1.669   0.851   4.457
12357WAT     H150148   1.639   0.776   4.491
12357WAT     H250149   1.710   0.826   4.384
12357WAT    EPW50150   1.670   0.836   4.451
12358WAT      O50151   0.475   0.537   4.129
12358WAT     H150152   0.464   0.514   4.213
12358WAT     H250153   0.480   0.460   4.088
12358WAT    EPW50154   0.474   0.522   4.136
12359WAT      O50155   0.781   0.418   3.940
12359WAT     H150156   0.701   0.384   3.946
12359WAT     H250157   0.775   0.494   3.982
12359WAT    EPW50158   0.768   0.424   3.947
12360WAT      O50159   1.369   0.637   5.148
12360WAT     H150160   1.406   0.698   5.198
12360WAT     H250161   1.381   0.667   5.067
12360WAT    EPW50162   1.376   0.650   5.143
12361WAT      O50163   1.438   0.993   5.599
12361WAT     H150164   1.389   0.933   5.559
12361WAT     H250165   1.386   1.063   5.604
12361WAT    EPW50166   1.423   0.995   5.594
12362WAT      O50167   1.940   0.462   5.121
12362WAT     H150168   2.003   0.420   5.078
12362WAT     H250169   1.876   0.469   5.061
12362WAT    EPW50170   1.940   0.457   5.106
12363WAT      O50171   0.762   0.953   5.543
12363WAT     H150172   0.761   0.931   5.627
12363WAT     H250173   0.836   0.918   5.513
12363WAT    EPW50174   0.773   0.945   5.551
12364WAT      O50175   1.780   0.757   5.075
12364WAT     H150176   1.841   0.764   5.013
12364WAT     H250177   1.739   0.682   5.055
12364WAT    EPW50178   1.783   0.747   5.063
12365WAT      O50179   0.513   0.778   5.668
12365WAT     H150180   0.578   0.814   5.714
12365WAT     H250181   0.471   0.847   5.635
12365WAT    EPW50182   0.516   0.794   5.670
12366WAT      O50183   0.390   0.614   5.343
12366WAT     H150184   0.337   0.641   5.407
12366WAT     H250185   0.470   0.628   5.375
12366WAT    EPW50186   0.394   0.620   5.357
12367WAT      O50187   0.503   0.891   4.272
12367WAT     H150188   0.469   0.872   4.194
12367WAT     H250189   0.589   0.889   4.257
12367WAT    EPW50190   0.511   0.888   4.258
12368WAT      O50191   0.905   0.200   4.374
12368WAT     H150192   0.921   0.212   4.289
12368WAT     H250193   0.983   0.214   4.412
12368WAT    EPW50194   0.919   0.204   4.367
12369WAT      O50195   1.787   1.004   3.943
12369WAT     H150196   1.860   0.988   3.989
12369WAT     H250197   1.767   0.926   3.909
12369WAT    EPW50198   1.795   0.990   3.944
12370WAT      O50199   1.936   0.400   5.646
12370WAT     H150200   1.871   0.351   5.676
12370WAT     H250201   1.935   0.386   5.560
12370WAT    EPW50202   1.926   0.391   5.637
12371WAT      O50203   1.450   0.620   4.220
12371WAT     H150204   1.406   0.613   4.295
12371WAT     H250205   1.410   0.562   4.168
12371WAT    EPW50206   1.437   0.610   4.223
12372WAT      O50207   1.582   0.267   5.829
12372WAT     H150208   1.655   0.294   5.869
12372WAT     H250209   1.586   0.308   5.752
12372WAT    EPW50210   1.594   0.277   5.823
12373WAT      O50211   0.506   0.821   4.908
12373WAT     H150212   0.509   0.742   4.871
12373WAT     H250213   0.462   0.869   4.850
12373WAT    EPW50214   0.500   0.816   4.894
12374WAT      O50215   1.129   0.470   4.126
12374WAT     H150216   1.207   0.444   4.096
12374WAT     H250217   1.109   0.539   4.076
12374WAT    EPW50218   1.138   0.476   4.115
12375WAT      O50219   0.324   1.057   5.298
12375WAT     H150220   0.327   1.028   5.381
12375WAT     H250221   0.351   0.989   5.251
12375WAT    EPW50222   0.329   1.043   5.304
12376WAT      O50223   1.838   0.772   2.348
12376WAT     H150224   1.898   0.714   2.376
12376WAT     H250225   1.789   0.726   2.293
12376WAT    EPW50226   1.840   0.757   2.344
12377WAT      O50227   0.526   0.303   2.074
12377WAT     H150228   0.485   0.287   1.999
12377WAT     H250229   0.535   0.223   2.110
12377WAT    EPW50230   0.521   0.289   2.068
12378WAT      O50231   0.461   0.475   2.500
12378WAT     H150232   0.541   0.443   2.516
12378WAT     H250233   0.408   0.417   2.538
12378WAT    EPW50234   0.465   0.462   2.508
12379WAT      O50235   0.399   0.788   2.132
12379WAT     H150236   0.424   0.782   2.048
12379WAT     H250237   0.406   0.707   2.162
12379WAT    EPW50238   0.404   0.775   2.124
12380WAT      O50239   0.895   0.442   3.686
12380WAT     H150240   0.866   0.430   3.767
12380WAT     H250241   0.829   0.414   3.636
12380WAT    EPW50242   0.881   0.436   3.691
12381WAT      O50243   0.879   0.783   3.422
12381WAT     H150244   0.897   0.839   3.358
12381WAT     H250245   0.957   0.749   3.443
12381WAT    EPW50246   0.893   0.786   3.416
12382WAT      O50247   0.985   0.546   2.840
12382WAT     H150248   1.007   0.469   2.874
12382WAT     H250249   1.062   0.588   2.835
12382WAT    EPW50250   1.000   0.541   2.844
12383WAT      O50251   1.064   0.519   2.491
12383WAT     H150252   1.074   0.446   2.538
12383WAT     H250253   1.084   0.493   2.410
12383WAT    EPW50254   1.069   0.504   2.486
12384WAT      O50255   0.816   0.638   2.455
12384WAT     H150256   0.779   0.622   2.533
12384WAT     H250257   0.895   0.603   2.462
12384WAT    EPW50258   0.822   0.631   2.468
12385WAT      O50259   1.403   0.892   2.269
12385WAT     H150260   1.473   0.944   2.271
12385WAT     H250261   1.436   0.813   2.285
12385WAT    EPW50262   1.418   0.888   2.272
12386WAT      O50263   1.208   0.912   2.459
12386WAT     H150264   1.228   0.984   2.504
12386WAT     H250265   1.268   0.910   2.396
12386WAT    EPW50266   1.219   0.922   2.457
12387WAT      O50267   0.400   0.747   2.588
12387WAT     H150268   0.416   0.662   2.572
12387WAT     H250269   0.421   0.786   2.513
12387WAT    EPW50270   0.406   0.740   2.575
12388WAT      O50271   1.452   0.910   3.257
12388WAT     H150272   1.522   0.961   3.247
12388WAT     H250273   1.434   0.884   3.176
12388WAT    EPW50274   1.460   0.914   3.244
12389WAT      O50275   0.510   0.572   2.884
12389WAT     H150276   0.573   0.573   2.823
12389WAT     H250277   0.548   0.534   2.953
12389WAT    EPW50278   0.525   0.567   2.885
12390WAT      O50279   0.772   0.858   2.780
12390WAT     H150280   0.850   0.885   2.752
12390WAT     H250281   0.715   0.910   2.739
12390WAT    EPW50282   0.775   0.870   2.770
12391WAT      O50283   1.612   1.078   2.245
12391WAT     H150284   1.660   1.054   2.176
12391WAT     H250285   1.668   1.124   2.294
12391WAT    EPW50286   1.627   1.081   2.242
12392WAT      O50287   0.662   0.993   3.364
12392WAT     H150288   0.697   0.960   3.436
12392WAT     H250289   0.596   0.939   3.346
12392WAT    EPW50290   0.657   0.981   3.372
12393WAT      O50291   1.346   0.740   3.607
12393WAT     H150292   1.325   0.691   3.676
12393WAT     H250293   1.431   0.724   3.596
12393WAT    EPW50294   1.356   0.730   3.615
12394WAT      O50295   1.093   0.698   2.072
12394WAT     H150296   1.062   0.759   2.125
12394WAT     H250297   1.170   0.730   2.046
12394WAT    EPW50298   1.100   0.712   2.076
12395WAT      O50299   0.448   0.836   3.280
12395WAT     H150300   0.423   0.758   3.311
12395WAT     H250301   0.457   0.822   3.195
12395WAT    EPW50302   0.445   0.822   3.272
12396WAT      O50303   1.213   0.984   3.372
12396WAT     H150304   1.290   0.962   3.336
12396WAT     H250305   1.155   0.964   3.310
12396WAT    EPW50306   1.216   0.978   3.358
12397WAT      O50307   1.901   0.998   2.628
12397WAT     H150308   1.863   1.075   2.647
12397WAT     H250309   1.833   0.946   2.612
12397WAT    EPW50310   1.885   1.002   2.629
12398WAT      O50311   1.572   0.613   2.655
12398WAT     H150312   1.607   0.533   2.657
12398WAT     H250313   1.487   0.597   2.646
12398WAT    EPW50314   1.565   0.599   2.654
12399WAT      O50315   0.642   0.659   3.548
12399WAT     H150316   0.711   0.707   3.524
12399WAT     H250317   0.616   0.696   3.622
12399WAT    EPW50318   0.649   0.671   3.555
12400WAT      O50319   0.769   0.221   3.050
12400WAT     H150320   0.793   0.229   3.134
12400WAT     H250321   0.706   0.161   3.053
12400WAT    EPW50322   0.763   0.214   3.063
12401WAT      O50323   0.853   0.315   3.302
12401WAT     H150324   0.854   0.400   3.282
12401WAT     H250325   0.801   0.311   3.372
12401WAT    EPW50326   0.845   0.327   3.310
12402WAT      O50327   1.488   0.383   3.258
12402WAT     H150328   1.431   0.332   3.300
12402WAT     H250329   1.454   0.463   3.266
12402WAT    EPW50330   1.474   0.387   3.266
12403WAT      O50331   1.799   0.361   2.177
12403WAT     H150332   1.795   0.320   2.255
12403WAT     H250333   1.883   0.381   2.169
12403WAT    EPW50334   1.811   0.358   2.188
12404WAT      O50335   0.445   0.217   2.657
12404WAT     H150336   0.528   0.237   2.639
12404WAT     H250337   0.443   0.131   2.650
12404WAT    EPW50338   0.457   0.208   2.653
12405WAT      O50339   0.384   0.965   2.805
12405WAT     H150340   0.341   0.900   2.765
12405WAT     H250341   0.450   0.983   2.751
12405WAT    EPW50342   0.387   0.958   2.791
12406WAT      O50343   2.036   0.801   3.590
12406WAT     H150344   1.961   0.805   3.546
12406WAT     H250345   2.016   0.758   3.663
12406WAT    EPW50346   2.022   0.795   3.594
12407WAT      O50347   0.690   0.335   2.581
12407WAT     H150348   0.728   0.397   2.629
12407WAT     H250349   0.757   0.292   2.546
12407WAT    EPW50350   0.706   0.338   2.583
12408WAT      O50351   1.199   0.727   2.811
12408WAT     H150352   1.149   0.794   2.788
12408WAT     H250353   1.237   0.703   2.735
12408WAT    EPW50354   1.198   0.733   2.796
12409WAT      O50355   0.628   0.454   3.098
12409WAT     H150356   0.681   0.500   3.150
12409WAT     H250357   0.676   0.386   3.074
12409WAT    EPW50358   0.643   0.451   3.102
12410WAT      O50359   0.347   0.340   2.892
12410WAT     H150360   0.372   0.297   2.820
12410WAT     H250361   0.382   0.419   2.881
12410WAT    EPW50362   0.356   0.345   2.880
12411WAT      O50363   1.791   0.824   3.448
12411WAT     H150364   1.749   0.901   3.458
12411WAT     H250365   1.789   0.810   3.362
12411WAT    EPW50366   1.785   0.834   3.437
12412WAT      O50367   0.742   0.591   2.720
12412WAT     H150368   0.736   0.677   2.734
12412WAT     H250369   0.818   0.569   2.756
12412WAT    EPW50370   0.752   0.600   2.727
12413WAT      O50371   0.999   0.920   3.198
12413WAT     H150372   0.978   0.858   3.141
12413WAT     H250373   0.979   0.994   3.156
12413WAT    EPW50374   0.993   0.922   3.184
12414WAT      O50375   1.578   0.407   3.684
12414WAT     H150376   1.601   0.487   3.660
12414WAT     H250377   1.601   0.358   3.616
12414WAT    EPW50378   1.585   0.411   3.670
12415WAT      O50379   0.983   0.712   3.715
12415WAT     H150380   1.012   0.707   3.798
12415WAT     H250381   0.951   0.633   3.700
12415WAT    EPW50382   0.983   0.700   3.725
12416WAT      O50383   1.679   0.349   2.655
12416WAT     H150384   1.745   0.325   2.706
12416WAT     H250385   1.702   0.318   2.576
12416WAT    EPW50386   1.692   0.341   2.651
12417WAT      O50387   1.393   0.778   3.008
12417WAT     H150388   1.331   0.760   2.950
12417WAT     H250389   1.439   0.842   2.970
12417WAT    EPW50390   1.391   0.785   2.994
12418WAT      O50391   1.401   0.409   2.980
12418WAT     H150392   1.325   0.447   2.999
12418WAT     H250393   1.424   0.371   3.055
12418WAT    EPW50394   1.393   0.409   2.994
12419WAT      O50395   0.782   0.904   2.384
12419WAT     H150396   0.790   0.826   2.422
12419WAT     H250397   0.853   0.909   2.334
12419WAT    EPW50398   0.794   0.893   2.383
12420WAT      O50399   1.021   0.899   2.248
12420WAT     H150400   1.077   0.907   2.314
12420WAT     H250401   1.023   0.978   2.210
12420WAT    EPW50402   1.029   0.912   2.252
12421WAT      O50403   1.667   0.270   3.463
12421WAT     H150404   1.635   0.305   3.389
12421WAT     H250405   1.753   0.282   3.455
12421WAT    EPW50406   1.675   0.277   3.451
12422WAT      O50407   1.332   0.828   3.908
12422WAT     H150408   1.355   0.856   3.988
12422WAT     H250409   1.375   0.881   3.854
12422WAT    EPW50410   1.342   0.840   3.912
12423WAT      O50411   1.289   0.243   3.398
12423WAT     H150412   1.243   0.294   3.453
12423WAT     H250413   1.313   0.176   3.449
12423WAT    EPW50414   1.286   0.241   3.414
12424WAT      O50415   1.682   0.504   3.088
12424WAT     H150416   1.636   0.514   3.015
12424WAT     H250417   1.629   0.459   3.140
12424WAT    EPW50418   1.667   0.499   3.085
12425WAT      O50419   1.015   0.274   2.912
12425WAT     H150420   0.934   0.251   2.935
12425WAT     H250421   1.061   0.258   2.984
12425WAT    EPW50422   1.010   0.268   2.926
12426WAT      O50423   0.720   0.885   2.017
12426WAT     H150424   0.735   0.818   2.071
12426WAT     H250425   0.719   0.954   2.071
12426WAT    EPW50426   0.722   0.885   2.033
12427WAT      O50427   0.419   0.283   3.161
12427WAT     H150428   0.481   0.343   3.151
12427WAT     H250429   0.377   0.284   3.084
12427WAT    EPW50430   0.422   0.292   3.148
12428WAT      O50431   2.008   0.938   2.209
12428WAT     H150432   2.067   0.885   2.173
12428WAT     H250433   1.956   0.884   2.253
12428WAT    EPW50434   2.009   0.922   2.210
12429WAT      O50435   0.417   0.333   3.438
12429WAT     H150436   0.407   0.302   3.357
12429WAT     H250437   0.394   0.416   3.431
12429WAT    EPW50438   0.412   0.340   3.425
12430WAT      O50439   1.915   0.223   2.768
12430WAT     H150440   1.890   0.141   2.783
12430WAT     H250441   1.984   0.234   2.820
12430WAT    EPW50442   1.922   0.212   2.778
12431WAT      O50443   1.996   0.726   2.982
12431WAT     H150444   2.026   0.782   2.922
12431WAT     H250445   2.053   0.735   3.048
12431WAT    EPW50446   2.009   0.736   2.983
12432WAT      O50447   1.688   0.615   2.183
12432WAT     H150448   1.718   0.533   2.182
12432WAT     H250449   1.613   0.609   2.226
12432WAT    EPW50450   1.682   0.602   2.189
12433WAT      O50451   1.946   0.344   3.467
12433WAT     H150452   2.030   0.320   3.470
12433WAT     H250453   1.941   0.389   3.392
12433WAT    EPW50454   1.958   0.347   3.456
12434WAT      O50455   1.379   0.434   2.121
12434WAT     H150456   1.438   0.372   2.103
12434WAT     H250457   1.356   0.464   2.042
12434WAT    EPW50458   1.385   0.429   2.107
12435WAT      O50459   0.829   0.583   3.237
12435WAT     H150460   0.835   0.641   3.302
12435WAT     H250461   0.850   0.630   3.166
12435WAT    EPW50462   0.833   0.598   3.236
12436WAT      O50463   0.679   0.382   3.516
12436WAT     H150464   0.600   0.351   3.498
12436WAT     H250465   0.666   0.469   3.522
12436WAT    EPW50466   0.666   0.391   3.515
12437WAT      O50467   1.102   0.261   3.189
12437WAT     H150468   1.160   0.240   3.251
12437WAT     H250469   1.027   0.266   3.233
12437WAT    EPW50470   1.100   0.259   3.205
12438WAT      O50471   1.032   0.930   2.704
12438WAT     H150472   1.032   1.015   2.722
12438WAT     H250473   1.056   0.927   2.620
12438WAT    EPW50474   1.035   0.942   2.694
12439WAT      O50475   0.887   0.738   3.016
12439WAT     H150476   0.838   0.783   2.960
12439WAT     H250477   0.926   0.678   2.966
12439WAT    EPW50478   0.886   0.736   3.001
12440WAT      O50479   1.321   0.496   3.757
12440WAT     H150480   1.396   0.463   3.726
12440WAT     H250481   1.261   0.465   3.702
12440WAT    EPW50482   1.323   0.487   3.744
12441WAT      O50483   1.619   0.674   3.609
12441WAT     H150484   1.648   0.704   3.686
12441WAT     H250485   1.672   0.711   3.551
12441WAT    EPW50486   1.631   0.684   3.612
12442WAT      O50487   0.950   0.261   2.204
12442WAT     H150488   0.891   0.297   2.150
12442WAT     H250489   1.013   0.321   2.208
12442WAT    EPW50490   0.950   0.275   2.197
12443WAT      O50491   1.060   0.959   3.606
12443WAT     H150492   1.118   0.949   3.542
12443WAT     H250493   1.052   0.878   3.639
12443WAT    EPW50494   1.067   0.945   3.601
12444WAT      O50495   1.755   0.214   2.417
12444WAT     H150496   1.817   0.156   2.437
12444WAT     H250497   1.685   0.164   2.400
12444WAT    EPW50498   1.754   0.198   2.417
12445WAT      O50499   1.141   0.418   3.557
12445WAT     H150500   1.065   0.411   3.598
12445WAT     H250501   1.135   0.494   3.514
12445WAT    EPW50502   1.129   0.428   3.557
12446WAT      O50503   0.657   1.057   3.081
12446WAT     H150504   0.663   1.055   3.168
12446WAT     H250505   0.628   0.978   3.060
12446WAT    EPW50506   0.653   1.045   3.091
12447WAT      O50507   1.395   0.348   2.707
12447WAT     H150508   1.396   0.366   2.792
12447WAT     H250509   1.478   0.334   2.688
12447WAT    EPW50510   1.407   0.349   2.717
12448WAT      O50511   1.123   0.291   2.642
12448WAT     H150512   1.090   0.278   2.722
12448WAT     H250513   1.209   0.299   2.657
12448WAT    EPW50514   1.131   0.290   2.656
12449WAT      O50515   1.141   0.669   3.435
12449WAT     H150516   1.199   0.699   3.492
12449WAT     H250517   1.183   0.672   3.359
12449WAT    EPW50518   1.156   0.674   3.432
12450WAT      O50519   0.380   1.003   3.672
12450WAT     H150520   0.322   1.037   3.728
12450WAT     H250521   0.442   1.063   3.667
12450WAT    EPW50522   0.380   1.017   3.680
12451WAT      O50523   1.523   1.022   2.947
12451WAT     H150524   1.464   1.082   2.968
12451WAT     H250525   1.586   1.032   3.005
12451WAT    EPW50526   1.524   1.032   2.959
12452WAT      O50527   1.167   0.510   3.091
12452WAT     H150528   1.140   0.436   3.128
12452WAT     H250529   1.212   0.549   3.155
12452WAT    EPW50530   1.170   0.505   3.106
12453WAT      O50531   1.736   0.750   3.848
12453WAT     H150532   1.818   0.722   3.839
12453WAT     H250533   1.707   0.707   3.918
12453WAT    EPW50534   1.744   0.740   3.857
12454WAT      O50535   1.290   0.661   2.554
12454WAT     H150536   1.267   0.741   2.526
12454WAT     H250537   1.219   0.613   2.537
12454WAT    EPW50538   1.276   0.666   2.547
12455WAT      O50539   0.725   0.652   2.185
12455WAT     H150540   0.760   0.649   2.264
12455WAT     H250541   0.643   0.626   2.198
12455WAT    EPW50542   0.718   0.648   2.198
12456WAT      O50543   1.673   0.852   2.559
12456WAT     H150544   1.643   0.778   2.593
12456WAT     H250545   1.714   0.826   2.486
12456WAT    EPW50546   1.675   0.837   2.553
12457WAT      O50547   0.474   0.537   2.227
12457WAT     H150548   0.463   0.516   2.311
12457WAT     H250549   0.479   0.460   2.187
12457WAT    EPW50550   0.473   0.523   2.234
12458WAT      O50551   0.781   0.418   2.042
12458WAT     H150552   0.700   0.384   2.047
12458WAT     H250553   0.774   0.494   2.083
12458WAT    EPW50554   0.768   0.424   2.049
12459WAT      O50555   1.369   0.636   3.247
12459WAT     H150556   1.406   0.698   3.297
12459WAT     H250557   1.381   0.666   3.166
12459WAT    EPW50558   1.376   0.650   3.242
12460WAT      O50559   1.438   0.992   3.696
12460WAT     H150560   1.389   0.932   3.657
12460WAT     H250561   1.385   1.062   3.703
12460WAT    EPW50562   1.423   0.994   3.692
12461WAT      O50563   1.938   0.461   3.215
12461WAT     H150564   1.998   0.416   3.169
12461WAT     H250565   1.872   0.470   3.159
12461WAT    EPW50566   1.937   0.456   3.200
12462WAT      O50567   0.762   0.953   3.642
12462WAT     H150568   0.761   0.930   3.727
12462WAT     H250569   0.835   0.916   3.612
12462WAT    EPW50570   0.772   0.944   3.650
12463WAT      O50571   1.779   0.759   3.172
12463WAT     H150572   1.840   0.766   3.110
12463WAT     H250573   1.738   0.685   3.152
12463WAT    EPW50574   1.782   0.749   3.160
12464WAT      O50575   0.512   0.778   3.769
12464WAT     H150576   0.578   0.814   3.814
12464WAT     H250577   0.470   0.846   3.736
12464WAT    EPW50578   0.516   0.793   3.771
12465WAT      O50579   0.390   0.614   3.442
12465WAT     H150580   0.336   0.640   3.506
12465WAT     H250581   0.469   0.627   3.474
12465WAT    EPW50582   0.394   0.620   3.456
12466WAT      O50583   0.504   0.893   2.372
12466WAT     H150584   0.469   0.873   2.295
12466WAT     H250585   0.589   0.891   2.357
12466WAT    EPW50586   0.511   0.890   2.359
12467WAT      O50587   0.906   0.198   2.474
12467WAT     H150588   0.922   0.210   2.389
12467WAT     H250589   0.984   0.213   2.512
12467WAT    EPW50590   0.920   0.202   2.467
12468WAT      O50591   1.790   1.005   2.045
12468WAT     H150592   1.862   0.988   2.090
12468WAT     H250593   1.768   0.928   2.011
12468WAT    EPW50594   1.797   0.991   2.047
12469WAT      O50595   1.932   0.403   3.741
12469WAT     H150596   1.865   0.355   3.769
12469WAT     H250597   1.933   0.389   3.655
12469WAT    EPW50598   1.922   0.394   3.733
12470WAT      O50599   1.450   0.622   2.319
12470WAT     H150600   1.406   0.614   2.394
12470WAT     H250601   1.411   0.563   2.267
12470WAT    EPW50602   1.438   0.612   2.322
12471WAT      O50603   1.582   0.265   3.929
12471WAT     H150604   1.655   0.293   3.968
12471WAT     H250605   1.585   0.306   3.851
12471WAT    EPW50606   1.593   0.275   3.923
12472WAT      O50607   0.506   0.823   3.008
12472WAT     H150608   0.510   0.744   2.971
12472WAT     H250609   0.462   0.870   2.950
12472WAT    EPW50610   0.500   0.818   2.994
12473WAT      O50611   1.129   0.469   2.227
12473WAT     H150612   1.207   0.444   2.196
12473WAT     H250613   1.109   0.538   2.177
12473WAT    EPW50614   1.138   0.476   2.215
12474WAT      O50615   0.324   1.057   3.398
12474WAT     H150616   0.327   1.028   3.480
12474WAT     H250617   0.351   0.989   3.351
12474WAT    EPW50618   0.328   1.042   3.403
12475WAT      O50619   1.839   0.762   0.467
12475WAT     H150620   1.896   0.700   0.489
12475WAT     H250621   1.789   0.724   0.407
12475WAT    EPW50622   1.840   0.747   0.461
12476WAT      O50623   0.495   0.295   0.223
12476WAT     H150624   0.458   0.262   0.151
12476WAT     H250625   0.506   0.225   0.274
12476WAT    EPW50626   0.491   0.280   0.220
12477WAT      O50627   0.490   0.494   0.612
12477WAT     H150628   0.574   0.472   0.614
12477WAT     H250629   0.451   0.428   0.653
12477WAT    EPW50630   0.497   0.481   0.619
12478WAT      O50631   0.417   0.803   0.231
12478WAT     H150632   0.475   0.799   0.166
12478WAT     H250633   0.414   0.722   0.262
12478WAT    EPW50634   0.425   0.791   0.226
12479WAT      O50635   0.894   0.441   1.788
12479WAT     H150636   0.866   0.429   1.869
12479WAT     H250637   0.828   0.413   1.739
12479WAT    EPW50638   0.880   0.435   1.793
12480WAT      O50639   0.873   0.782   1.530
12480WAT     H150640   0.895   0.837   1.465
12480WAT     H250641   0.949   0.747   1.554
12480WAT    EPW50642   0.888   0.785   1.524
12481WAT      O50643   0.978   0.548   0.951
12481WAT     H150644   0.998   0.469   0.982
12481WAT     H250645   1.056   0.586   0.941
12481WAT    EPW50646   0.992   0.542   0.954
12482WAT      O50647   1.045   0.525   0.611
12482WAT     H150648   1.065   0.460   0.666
12482WAT     H250649   1.068   0.494   0.533
12482WAT    EPW50650   1.051   0.511   0.607
12483WAT      O50651   0.821   0.696   0.572
12483WAT     H150652   0.780   0.674   0.646
12483WAT     H250653   0.896   0.652   0.577
12483WAT    EPW50654   0.826   0.686   0.584
12484WAT      O50655   1.377   0.865   0.361
12484WAT     H150656   1.442   0.922   0.351
12484WAT     H250657   1.418   0.792   0.386
12484WAT    EPW50658   1.393   0.863   0.363
12485WAT      O50659   1.199   0.915   0.564
12485WAT     H150660   1.230   0.987   0.603
12485WAT     H250661   1.253   0.904   0.497
12485WAT    EPW50662   1.212   0.924   0.560
12486WAT      O50663   0.397   0.761   0.686
12486WAT     H150664   0.424   0.678   0.676
12486WAT     H250665   0.417   0.798   0.610
12486WAT    EPW50666   0.404   0.754   0.674
12487WAT      O50667   1.456   0.907   1.364
12487WAT     H150668   1.526   0.959   1.354
12487WAT     H250669   1.438   0.882   1.283
12487WAT    EPW50670   1.463   0.911   1.351
12488WAT      O50671   0.508   0.575   0.982
12488WAT     H150672   0.572   0.583   0.923
12488WAT     H250673   0.547   0.538   1.050
12488WAT    EPW50674   0.523   0.571   0.983
12489WAT      O50675   0.782   0.877   0.905
12489WAT     H150676   0.860   0.898   0.871
12489WAT     H250677   0.726   0.923   0.858
12489WAT    EPW50678   0.785   0.887   0.893
12490WAT      O50679   1.586   1.058   0.333
12490WAT     H150680   1.633   1.017   0.272
12490WAT     H250681   1.644   1.112   0.370
12490WAT    EPW50682   1.602   1.060   0.329
12491WAT      O50683   0.657   0.994   1.471
12491WAT     H150684   0.694   0.958   1.541
12491WAT     H250685   0.592   0.939   1.453
12491WAT    EPW50686   0.653   0.980   1.479
12492WAT      O50687   1.346   0.740   1.702
12492WAT     H150688   1.325   0.690   1.771
12492WAT     H250689   1.432   0.725   1.692
12492WAT    EPW50690   1.356   0.730   1.711
12493WAT      O50691   1.164   0.705   0.253
12493WAT     H150692   1.100   0.764   0.257
12493WAT     H250693   1.237   0.751   0.267
12493WAT    EPW50694   1.165   0.720   0.255
12494WAT      O50695   0.446   0.835   1.383
12494WAT     H150696   0.422   0.756   1.412
12494WAT     H250697   0.457   0.822   1.297
12494WAT    EPW50698   0.444   0.821   1.374
12495WAT      O50699   1.218   0.983   1.480
12495WAT     H150700   1.295   0.961   1.444
12495WAT     H250701   1.160   0.963   1.419
12495WAT    EPW50702   1.221   0.976   1.466
12496WAT      O50703   1.900   1.007   0.727
12496WAT     H150704   1.859   1.083   0.742
12496WAT     H250705   1.834   0.951   0.715
12496WAT    EPW50706   1.884   1.010   0.727
12497WAT      O50707   1.580   0.607   0.779
12497WAT     H150708   1.626   0.533   0.776
12497WAT     H250709   1.497   0.580   0.777
12497WAT    EPW50710   1.574   0.592   0.778
12498WAT      O50711   0.638   0.657   1.651
12498WAT     H150712   0.707   0.705   1.627
12498WAT     H250713   0.612   0.694   1.726
12498WAT    EPW50714   0.644   0.669   1.659
12499WAT      O50715   0.763   0.222   1.159
12499WAT     H150716   0.786   0.231   1.243
12499WAT     H250717   0.695   0.168   1.162
12499WAT    EPW50718   0.756   0.216   1.172
12500WAT      O50719   0.848   0.314   1.411
12500WAT     H150720   0.850   0.399   1.390
12500WAT     H250721   0.796   0.311   1.481
12500WAT    EPW50722   0.841   0.326   1.418
12501WAT      O50723   1.495   0.376   1.363
12501WAT     H150724   1.436   0.327   1.406
12501WAT     H250725   1.465   0.457   1.373
12501WAT    EPW50726   1.482   0.380   1.371
12502WAT      O50727   1.767   0.385   0.300
12502WAT     H150728   1.755   0.339   0.373
12502WAT     H250729   1.853   0.382   0.288
12502WAT    EPW50730   1.778   0.378   0.309
12503WAT      O50731   0.506   0.226   0.737
12503WAT     H150732   0.585   0.249   0.708
12503WAT     H250733   0.501   0.141   0.718
12503WAT    EPW50734   0.517   0.217   0.730
12504WAT      O50735   0.384   0.975   0.913
12504WAT     H150736   0.334   0.916   0.873
12504WAT     H250737   0.452   0.984   0.859
12504WAT    EPW50738   0.387   0.967   0.899
12505WAT      O50739   2.041   0.805   1.691
12505WAT     H150740   1.968   0.809   1.644
12505WAT     H250741   2.018   0.760   1.762
12505WAT    EPW50742   2.027   0.799   1.695
12506WAT      O50743   0.739   0.355   0.623
12506WAT     H150744   0.797   0.398   0.671
12506WAT     H250745   0.784   0.330   0.553
12506WAT    EPW50746   0.754   0.357   0.620
12507WAT      O50747   1.201   0.719   0.918
12507WAT     H150748   1.152   0.789   0.897
12507WAT     H250749   1.237   0.696   0.841
12507WAT    EPW50750   1.199   0.726   0.903
12508WAT      O50751   0.626   0.460   1.198
12508WAT     H150752   0.678   0.504   1.252
12508WAT     H250753   0.674   0.391   1.174
12508WAT    EPW50754   0.641   0.456   1.202
12509WAT      O50755   0.379   0.323   0.973
12509WAT     H150756   0.415   0.286   0.903
12509WAT     H250757   0.404   0.406   0.969
12509WAT    EPW50758   0.388   0.330   0.962
12510WAT      O50759   1.795   0.826   1.551
12510WAT     H150760   1.753   0.902   1.559
12510WAT     H250761   1.792   0.811   1.465
12510WAT    EPW50762   1.789   0.835   1.539
12511WAT      O50763   0.738   0.618   0.827
12511WAT     H150764   0.740   0.701   0.852
12511WAT     H250765   0.811   0.584   0.862
12511WAT    EPW50766   0.749   0.625   0.836
12512WAT      O50767   1.004   0.916   1.312
12512WAT     H150768   0.983   0.854   1.254
12512WAT     H250769   0.984   0.990   1.271
12512WAT    EPW50770   0.998   0.918   1.297
12513WAT      O50771   1.576   0.410   1.784
12513WAT     H150772   1.600   0.490   1.760
12513WAT     H250773   1.601   0.360   1.717
12513WAT    EPW50774   1.583   0.415   1.771
12514WAT      O50775   0.979   0.712   1.819
12514WAT     H150776   1.009   0.707   1.901
12514WAT     H250777   0.949   0.631   1.803
12514WAT    EPW50778   0.979   0.699   1.828
12515WAT      O50779   1.693   0.347   0.770
12515WAT     H150780   1.761   0.318   0.817
12515WAT     H250781   1.708   0.315   0.691
12515WAT    EPW50782   1.705   0.338   0.765
12516WAT      O50783   1.395   0.774   1.115
12516WAT     H150784   1.334   0.754   1.057
12516WAT     H250785   1.440   0.838   1.077
12516WAT    EPW50786   1.393   0.781   1.101
12517WAT      O50787   1.396   0.411   1.095
12517WAT     H150788   1.320   0.449   1.113
12517WAT     H250789   1.420   0.375   1.170
12517WAT    EPW50790   1.388   0.411   1.108
12518WAT      O50791   0.775   0.955   0.453
12518WAT     H150792   0.782   0.886   0.506
12518WAT     H250793   0.845   0.948   0.401
12518WAT    EPW50794   0.786   0.943   0.453
12519WAT      O50795   1.023   0.933   0.340
12519WAT     H150796   1.064   0.918   0.415
12519WAT     H250797   1.043   1.016   0.322
12519WAT    EPW50798   1.032   0.943   0.349
12520WAT      O50799   1.669   0.267   1.569
12520WAT     H150800   1.638   0.300   1.494
12520WAT     H250801   1.756   0.278   1.561
12520WAT    EPW50802   1.677   0.274   1.557
12521WAT      O50803   1.330   0.830   2.008
12521WAT     H150804   1.355   0.858   2.087
12521WAT     H250805   1.374   0.881   1.953
12521WAT    EPW50806   1.340   0.842   2.012
12522WAT      O50807   1.295   0.243   1.507
12522WAT     H150808   1.248   0.294   1.561
12522WAT     H250809   1.322   0.178   1.559
12522WAT    EPW50810   1.292   0.241   1.523
12523WAT      O50811   1.688   0.500   1.190
12523WAT     H150812   1.643   0.512   1.117
12523WAT     H250813   1.634   0.452   1.239
12523WAT    EPW50814   1.674   0.494   1.187
12524WAT      O50815   1.013   0.279   1.032
12524WAT     H150816   0.932   0.253   1.051
12524WAT     H250817   1.057   0.266   1.107
12524WAT    EPW50818   1.008   0.273   1.046
12525WAT      O50819   0.424   0.279   1.253
12525WAT     H150820   0.482   0.344   1.246
12525WAT     H250821   0.388   0.274   1.173
12525WAT    EPW50822   0.427   0.288   1.240
12526WAT      O50823   1.992   0.932   0.313
12526WAT     H150824   2.067   0.891   0.297
12526WAT     H250825   1.950   0.876   0.366
12526WAT    EPW50826   1.997   0.917   0.319
12527WAT      O50827   0.417   0.329   1.531
12527WAT     H150828   0.407   0.298   1.450
12527WAT     H250829   0.393   0.413   1.525
12527WAT    EPW50830   0.412   0.337   1.518
12528WAT      O50831   1.924   0.212   0.877
12528WAT     H150832   1.899   0.129   0.890
12528WAT     H250833   1.996   0.220   0.926
12528WAT    EPW50834   1.931   0.201   0.886
12529WAT      O50835   1.996   0.724   1.090
12529WAT     H150836   2.021   0.779   1.028
12529WAT     H250837   2.053   0.738   1.155
12529WAT    EPW50838   2.008   0.734   1.090
12530WAT      O50839   1.683   0.648   0.274
12530WAT     H150840   1.713   0.567   0.268
12530WAT     H250841   1.611   0.640   0.323
12530WAT    EPW50842   1.677   0.635   0.281
12531WAT      O50843   1.948   0.340   1.572
12531WAT     H150844   2.032   0.316   1.574
12531WAT     H250845   1.942   0.386   1.498
12531WAT    EPW50846   1.960   0.343   1.561
12532WAT      O50847   1.389   0.419   0.242
12532WAT     H150848   1.462   0.376   0.222
12532WAT     H250849   1.367   0.457   0.167
12532WAT    EPW50850   1.396   0.418   0.228
12533WAT      O50851   0.825   0.582   1.345
12533WAT     H150852   0.830   0.640   1.410
12533WAT     H250853   0.849   0.628   1.275
12533WAT    EPW50854   0.829   0.597   1.344
12534WAT      O50855   0.674   0.380   1.624
12534WAT     H150856   0.596   0.349   1.601
12534WAT     H250857   0.661   0.466   1.629
12534WAT    EPW50858   0.661   0.388   1.621
12535WAT      O50859   1.102   0.266   1.304
12535WAT     H150860   1.161   0.243   1.365
12535WAT     H250861   1.027   0.269   1.349
12535WAT    EPW50862   1.100   0.263   1.320
12536WAT      O50863   1.043   0.932   0.817
12536WAT     H150864   1.046   1.016   0.838
12536WAT     H250865   1.068   0.931   0.733
12536WAT    EPW50866   1.047   0.944   0.807
12537WAT      O50867   0.891   0.739   1.129
12537WAT     H150868   0.845   0.789   1.074
12537WAT     H250869   0.927   0.679   1.078
12537WAT    EPW50870   0.889   0.738   1.113
12538WAT      O50871   1.321   0.501   1.857
12538WAT     H150872   1.395   0.468   1.827
12538WAT     H250873   1.260   0.468   1.804
12538WAT    EPW50874   1.323   0.491   1.845
12539WAT      O50875   1.619   0.677   1.708
12539WAT     H150876   1.647   0.707   1.785
12539WAT     H250877   1.674   0.714   1.651
12539WAT    EPW50878   1.631   0.687   1.711
12540WAT      O50879   1.059   0.958   1.709
12540WAT     H150880   1.119   0.948   1.647
12540WAT     H250881   1.051   0.877   1.742
12540WAT    EPW50882   1.066   0.944   1.705
12541WAT      O50883   1.744   0.214   0.526
12541WAT     H150884   1.819   0.170   0.523
12541WAT     H250885   1.683   0.152   0.515
12541WAT    EPW50886   1.746   0.198   0.524
12542WAT      O50887   1.141   0.418   1.659
12542WAT     H150888   1.065   0.411   1.701
12542WAT     H250889   1.134   0.493   1.616
12542WAT    EPW50890   1.129   0.428   1.659
12543WAT      O50891   0.660   1.054   1.191
12543WAT     H150892   0.663   1.047   1.278
12543WAT     H250893   0.632   0.975   1.165
12543WAT    EPW50894   0.656   1.041   1.200
12544WAT      O50895   1.411   0.361   0.823
12544WAT     H150896   1.409   0.374   0.909
12544WAT     H250897   1.494   0.341   0.807
12544WAT    EPW50898   1.423   0.360   0.833
12545WAT      O50899   1.135   0.323   0.775
12545WAT     H150900   1.104   0.296   0.852
12545WAT     H250901   1.222   0.326   0.787
12545WAT    EPW50902   1.144   0.319   0.788
12546WAT      O50903   1.134   0.668   1.537
12546WAT     H150904   1.199   0.699   1.587
12546WAT     H250905   1.163   0.681   1.456
12546WAT    EPW50906   1.148   0.675   1.532
12547WAT      O50907   0.379   1.003   1.772
12547WAT     H150908   0.322   1.038   1.827
12547WAT     H250909   0.442   1.063   1.766
12547WAT    EPW50910   0.380   1.017   1.779
12548WAT      O50911   1.523   1.019   1.060
12548WAT     H150912   1.465   1.082   1.077
12548WAT     H250913   1.585   1.032   1.120
12548WAT    EPW50914   1.524   1.030   1.071
12549WAT      O50915   1.167   0.520   1.215
12549WAT     H150916   1.141   0.444   1.250
12549WAT     H250917   1.225   0.550   1.274
12549WAT    EPW50918   1.172   0.513   1.229
12550WAT      O50919   1.733   0.753   1.949
12550WAT     H150920   1.814   0.723   1.937
12550WAT     H250921   1.705   0.709   2.019
12550WAT    EPW50922   1.741   0.742   1.957
12551WAT      O50923   1.282   0.662   0.656
12551WAT     H150924   1.260   0.742   0.630
12551WAT     H250925   1.210   0.615   0.642
12551WAT    EPW50926   1.268   0.667   0.650
12552WAT      O50927   0.723   0.625   0.313
12552WAT     H150928   0.755   0.648   0.391
12552WAT     H250929   0.638   0.611   0.329
12552WAT    EPW50930   0.715   0.626   0.327
12553WAT      O50931   1.677   0.845   0.677
12553WAT     H150932   1.647   0.771   0.713
12553WAT     H250933   1.717   0.817   0.604
12553WAT    EPW50934   1.679   0.830   0.671
12554WAT      O50935   0.455   0.549   0.341
12554WAT     H150936   0.454   0.532   0.427
12554WAT     H250937   0.459   0.470   0.305
12554WAT    EPW50938   0.455   0.535   0.349
12555WAT      O50939   0.759   0.386   0.174
12555WAT     H150940   0.675   0.361   0.181
12555WAT     H250941   0.759   0.467   0.207
12555WAT    EPW50942   0.746   0.394   0.180
12556WAT      O50943   1.385   0.630   1.353
12556WAT     H150944   1.416   0.694   1.404
12556WAT     H250945   1.396   0.661   1.272
12556WAT    EPW50946   1.391   0.644   1.349
12557WAT      O50947   1.438   0.992   1.796
12557WAT     H150948   1.389   0.932   1.755
12557WAT     H250949   1.385   1.061   1.802
12557WAT    EPW50950   1.423   0.993   1.791
12558WAT      O50951   1.943   0.463   1.323
12558WAT     H150952   2.007   0.421   1.280
12558WAT     H250953   1.879   0.469   1.263
12558WAT    EPW50954   1.943   0.457   1.308
12559WAT      O50955   0.761   0.954   1.747
12559WAT     H150956   0.760   0.931   1.831
12559WAT     H250957   0.833   0.916   1.716
12559WAT    EPW50958   0.771   0.945   1.755
12560WAT      O50959   1.778   0.756   1.277
12560WAT     H150960   1.840   0.763   1.216
12560WAT     H250961   1.739   0.680   1.257
12560WAT    EPW50962   1.782   0.746   1.265
12561WAT      O50963   0.510   0.779   1.872
12561WAT     H150964   0.577   0.815   1.916
12561WAT     H250965   0.469   0.847   1.837
12561WAT    EPW50966   0.514   0.794   1.873
12562WAT      O50967   0.388   0.610   1.540
12562WAT     H150968   0.333   0.636   1.603
12562WAT     H250969   0.467   0.624   1.574
12562WAT    EPW50970   0.391   0.616   1.554
12563WAT      O50971   0.501   0.912   0.473
12563WAT     H150972   0.467   0.886   0.397
12563WAT     H250973   0.584   0.928   0.454
12563WAT    EPW50974   0.508   0.910   0.459
12564WAT      O50975   0.892   0.292   0.397
12564WAT     H150976   0.851   0.311   0.322
12564WAT     H250977   0.970   0.329   0.387
12564WAT    EPW50978   0.897   0.301   0.384
12565WAT      O50979   1.749   0.907   0.165
12565WAT     H150980   1.830   0.916   0.197
12565WAT     H250981   1.729   0.824   0.181
12565WAT    EPW50982   1.758   0.896   0.172
12566WAT      O50983   1.937   0.398   1.847
12566WAT     H150984   1.873   0.346   1.876
12566WAT     H250985   1.936   0.384   1.760
12566WAT    EPW50986   1.927   0.388   1.838
12567WAT      O50987   1.459   0.613   0.436
12567WAT     H150988   1.416   0.610   0.512
12567WAT     H250989   1.424   0.548   0.390
12567WAT    EPW50990   1.447   0.603   0.440
12568WAT      O50991   1.583   0.268   2.028
12568WAT     H150992   1.655   0.296   2.068
12568WAT     H250993   1.585   0.309   1.951
12568WAT    EPW50994   1.594   0.278   2.023
12569WAT      O50995   0.504   0.823   1.111
12569WAT     H150996   0.506   0.745   1.072
12569WAT     H250997   0.460   0.873   1.054
12569WAT    EPW50998   0.498   0.819   1.097
12570WAT      O50999   1.129   0.448   0.359
12570WAT     H151000   1.204   0.413   0.331
12570WAT     H251001   1.127   0.526   0.320
12570WAT    EPW51002   1.139   0.454   0.349
12571WAT      O51003   0.318   1.054   1.498
12571WAT     H151004   0.324   1.026   1.581
12571WAT     H251005   0.346   0.986   1.451
12571WAT    EPW51006   0.323   1.040   1.504
   7.75279   7.69708   7.86611
