Generic title
 1080
    1C5    HO5'    1   3.445   5.150   3.425
    1C5     O5'    2   3.374   5.214   3.435
    1C5     C5'    3   3.428   5.339   3.474
    1C5     H5'    4   3.360   5.418   3.441
    1C5    H5''    5   3.524   5.354   3.425
    1C5     C4'    6   3.448   5.356   3.626
    1C5     H4'    7   3.476   5.460   3.646
    1C5     O4'    8   3.330   5.327   3.700
    1C5     C1'    9   3.367   5.286   3.832
    1C5     H1'   10   3.335   5.361   3.904
    1C5      N1   11   3.308   5.155   3.869
    1C5      C6   12   3.258   5.068   3.775
    1C5      H6   13   3.265   5.093   3.669
    1C5      C5   14   3.198   4.953   3.813
    1C5      H5   15   3.159   4.885   3.740
    1C5      C4   16   3.189   4.927   3.953
    1C5      N4   17   3.132   4.820   3.997
    1C5     H41   18   3.135   4.805   4.097
    1C5     H42   19   3.109   4.747   3.933
    1C5      N3   20   3.237   5.009   4.044
    1C5      C2   21   3.299   5.123   4.005
    1C5      O2   22   3.346   5.195   4.092
    1C5     C3'   23   3.557   5.268   3.686
    1C5     H3'   24   3.545   5.165   3.652
    1C5     C2'   25   3.521   5.279   3.834
    1C5     H2'   26   3.556   5.191   3.887
    1C5     O2'   27   3.566   5.398   3.898
    1C5    HO2'   28   3.587   5.375   3.989
    1C5     O3'   29   3.686   5.318   3.655
    2U        P   30   3.812   5.222   3.658
    2U      OP1   31   3.929   5.311   3.635
    2U      OP2   32   3.783   5.112   3.563
    2U      O5'   33   3.815   5.170   3.811
    2U      C5'   34   3.863   5.256   3.913
    2U      H5'   35   3.817   5.354   3.900
    2U     H5''   36   3.971   5.269   3.899
    2U      C4'   37   3.839   5.211   4.058
    2U      H4'   38   3.874   5.292   4.121
    2U      O4'   39   3.701   5.190   4.089
    2U      C1'   40   3.694   5.090   4.190
    2U      H1'   41   3.639   5.128   4.277
    2U       N1   42   3.624   4.967   4.142
    2U       C6   43   3.608   4.938   4.008
    2U       H6   44   3.656   5.000   3.934
    2U       C5   45   3.532   4.831   3.970
    2U       H5   46   3.519   4.809   3.865
    2U       C4   47   3.468   4.744   4.066
    2U       O4   48   3.395   4.649   4.041
    2U       N3   49   3.492   4.779   4.196
    2U       H3   50   3.458   4.716   4.267
    2U       C2   51   3.567   4.885   4.240
    2U       O2   52   3.578   4.907   4.360
    2U      C3'   53   3.914   5.087   4.103
    2U      H3'   54   3.901   5.005   4.032
    2U      C2'   55   3.838   5.060   4.234
    2U      H2'   56   3.851   4.957   4.267
    2U      O2'   57   3.870   5.152   4.339
    2U     HO2'   58   3.844   5.112   4.424
    2U      O3'   59   4.051   5.117   4.123
    3G        P   60   4.162   5.004   4.134
    3G      OP1   61   4.287   5.076   4.167
    3G      OP2   62   4.156   4.920   4.012
    3G      O5'   63   4.120   4.914   4.259
    3G      C5'   64   4.147   4.957   4.391
    3G      H5'   65   4.095   5.051   4.410
    3G     H5''   66   4.254   4.973   4.402
    3G      C4'   67   4.103   4.854   4.495
    3G      H4'   68   4.132   4.888   4.595
    3G      O4'   69   3.962   4.836   4.495
    3G      C1'   70   3.934   4.701   4.531
    3G      H1'   71   3.876   4.696   4.623
    3G       N9   72   3.857   4.638   4.423
    3G       C8   73   3.851   4.671   4.291
    3G       H8   74   3.911   4.750   4.248
    3G       N7   75   3.765   4.602   4.222
    3G       C5   76   3.714   4.511   4.315
    3G       C6   77   3.617   4.406   4.303
    3G       O6   78   3.551   4.373   4.204
    3G       N1   79   3.597   4.335   4.420
    3G       H1   80   3.532   4.259   4.419
    3G       C2   81   3.659   4.363   4.538
    3G       N2   82   3.628   4.286   4.638
    3G      H21   83   3.565   4.207   4.626
    3G      H22   84   3.674   4.293   4.729
    3G       N3   85   3.747   4.462   4.554
    3G       C4   86   3.771   4.532   4.439
    3G      C3'   87   4.167   4.717   4.473
    3G      H3'   88   4.162   4.690   4.368
    3G      C2'   89   4.068   4.630   4.552
    3G      H2'   90   4.066   4.530   4.510
    3G      O2'   91   4.092   4.626   4.692
    3G     HO2'   92   4.099   4.533   4.718
    3G      O3'   93   4.302   4.717   4.518
    4G        P   94   4.400   4.596   4.485
    4G      OP1   95   4.533   4.630   4.540
    4G      OP2   96   4.388   4.567   4.340
    4G      O5'   97   4.338   4.475   4.568
    4G      C5'   98   4.329   4.344   4.514
    4G      H5'   99   4.426   4.296   4.516
    4G     H5''  100   4.293   4.347   4.411
    4G      C4'  101   4.229   4.263   4.597
    4G      H4'  102   4.258   4.269   4.702
    4G      O4'  103   4.096   4.313   4.586
    4G      C1'  104   4.005   4.206   4.568
    4G      H1'  105   3.918   4.217   4.634
    4G       N9  106   3.957   4.205   4.427
    4G       C8  107   3.989   4.292   4.325
    4G       H8  108   4.063   4.369   4.336
    4G       N7  109   3.922   4.272   4.215
    4G       C5  110   3.837   4.166   4.246
    4G       C6  111   3.731   4.102   4.172
    4G       O6  112   3.689   4.125   4.058
    4G       N1  113   3.668   4.001   4.242
    4G       H1  114   3.592   3.953   4.197
    4G       C2  115   3.697   3.969   4.370
    4G       N2  116   3.628   3.874   4.427
    4G      H21  117   3.555   3.825   4.375
    4G      H22  118   3.644   3.862   4.525
    4G       N3  119   3.791   4.027   4.444
    4G       C4  120   3.858   4.125   4.376
    4G      C3'  121   4.225   4.117   4.556
    4G      H3'  122   4.231   4.108   4.448
    4G      C2'  123   4.083   4.078   4.603
    4G      H2'  124   4.046   3.992   4.547
    4G      O2'  125   4.075   4.055   4.743
    4G     HO2'  126   3.982   4.043   4.767
    4G      O3'  127   4.331   4.047   4.620
    5G        P  128   4.411   3.934   4.543
    5G      OP1  129   4.510   3.883   4.640
    5G      OP2  130   4.461   3.994   4.417
    5G      O5'  131   4.299   3.823   4.512
    5G      C5'  132   4.237   3.751   4.618
    5G      H5'  133   4.202   3.822   4.693
    5G     H5''  134   4.311   3.686   4.665
    5G      C4'  135   4.116   3.666   4.575
    5G      H4'  136   4.075   3.617   4.664
    5G      O4'  137   4.013   3.744   4.517
    5G      C1'  138   3.943   3.666   4.421
    5G      H1'  139   3.838   3.654   4.450
    5G       N9  140   3.946   3.734   4.290
    5G       C8  141   4.029   3.836   4.249
    5G       H8  142   4.109   3.873   4.311
    5G       N7  143   4.000   3.884   4.132
    5G       C5  144   3.889   3.809   4.090
    5G       C6  145   3.807   3.815   3.972
    5G       O6  146   3.813   3.889   3.874
    5G       N1  147   3.705   3.722   3.971
    5G       H1  148   3.645   3.721   3.891
    5G       C2  149   3.682   3.634   4.071
    5G       N2  150   3.582   3.552   4.054
    5G      H21  151   3.529   3.552   3.967
    5G      H22  152   3.563   3.482   4.125
    5G       N3  153   3.754   3.626   4.183
    5G       C4  154   3.857   3.716   4.187
    5G      C3'  155   4.149   3.556   4.475
    5G      H3'  156   4.214   3.596   4.397
    5G      C2'  157   4.010   3.527   4.417
    5G      H2'  158   4.017   3.489   4.315
    5G      O2'  159   3.933   3.441   4.499
    5G     HO2'  160   3.990   3.369   4.529
    5G      O3'  161   4.210   3.444   4.538
    6U        P  162   4.287   3.332   4.454
    6U      OP1  163   4.417   3.302   4.517
    6U      OP2  164   4.285   3.368   4.311
    6U      O5'  165   4.196   3.203   4.472
    6U      C5'  166   4.189   3.133   4.595
    6U      H5'  167   4.170   3.203   4.676
    6U     H5''  168   4.284   3.083   4.613
    6U      C4'  169   4.077   3.029   4.592
    6U      H4'  170   4.073   2.976   4.687
    6U      O4'  171   3.951   3.093   4.572
    6U      C1'  172   3.870   3.010   4.489
    6U      H1'  173   3.775   2.990   4.538
    6U       N1  174   3.842   3.073   4.357
    6U       C6  175   3.917   3.177   4.307
    6U       H6  176   3.998   3.217   4.365
    6U       C5  177   3.890   3.232   4.186
    6U       H5  178   3.949   3.314   4.149
    6U       C4  179   3.780   3.185   4.106
    6U       O4  180   3.748   3.229   3.997
    6U       N3  181   3.709   3.081   4.162
    6U       H3  182   3.630   3.046   4.110
    6U       C2  183   3.733   3.023   4.284
    6U       O2  184   3.662   2.932   4.325
    6U      C3'  185   4.092   2.926   4.480
    6U      H3'  186   4.120   2.976   4.388
    6U      C2'  187   3.947   2.878   4.469
    6U      H2'  188   3.928   2.838   4.370
    6U      O2'  189   3.907   2.783   4.568
    6U     HO2'  190   3.815   2.758   4.550
    6U      O3'  191   4.183   2.822   4.511
    7C        P  192   4.283   2.767   4.399
    7C      OP1  193   4.346   2.646   4.455
    7C      OP2  194   4.369   2.880   4.356
    7C      O5'  195   4.191   2.727   4.275
    7C      C5'  196   4.100   2.618   4.280
    7C      H5'  197   4.044   2.623   4.373
    7C     H5''  198   4.155   2.524   4.278
    7C      C4'  199   3.999   2.622   4.163
    7C      H4'  200   3.926   2.542   4.178
    7C      O4'  201   3.929   2.746   4.163
    7C      C1'  202   3.905   2.790   4.031
    7C      H1'  203   3.798   2.813   4.018
    7C       N1  204   3.983   2.912   3.994
    7C       C6  205   4.083   2.963   4.073
    7C       H6  206   4.107   2.915   4.166
    7C       C5  207   4.151   3.074   4.034
    7C       H5  208   4.229   3.115   4.097
    7C       C4  209   4.113   3.134   3.911
    7C       N4  210   4.175   3.239   3.865
    7C      H41  211   4.143   3.274   3.775
    7C      H42  212   4.254   3.276   3.913
    7C       N3  213   4.015   3.088   3.838
    7C       C2  214   3.946   2.979   3.876
    7C       O2  215   3.852   2.938   3.808
    7C      C3'  216   4.055   2.606   4.022
    7C      H3'  217   4.145   2.666   4.012
    7C      C2'  218   3.943   2.672   3.941
    7C      H2'  219   3.982   2.705   3.844
    7C      O2'  220   3.825   2.593   3.922
    7C     HO2'  221   3.767   2.641   3.863
    7C      O3'  222   4.077   2.473   3.977
    8G        P  223   4.223   2.409   3.975
    8G      OP1  224   4.219   2.293   3.883
    8G      OP2  225   4.265   2.383   4.114
    8G      O5'  226   4.317   2.525   3.915
    8G      C5'  227   4.366   2.526   3.782
    8G      H5'  228   4.419   2.432   3.764
    8G     H5''  229   4.439   2.606   3.774
    8G      C4'  230   4.262   2.545   3.669
    8G      H4'  231   4.202   2.455   3.661
    8G      O4'  232   4.175   2.657   3.686
    8G      C1'  233   4.214   2.765   3.601
    8G      H1'  234   4.126   2.817   3.562
    8G       N9  235   4.295   2.865   3.677
    8G       C8  236   4.336   2.857   3.807
    8G       H8  237   4.311   2.773   3.870
    8G       N7  238   4.410   2.957   3.848
    8G       C5  239   4.412   3.042   3.736
    8G       C6  240   4.474   3.171   3.718
    8G       O6  241   4.540   3.237   3.798
    8G       N1  242   4.452   3.224   3.592
    8G       H1  243   4.508   3.304   3.567
    8G       C2  244   4.371   3.167   3.499
    8G       N2  245   4.349   3.238   3.390
    8G      H21  246   4.380   3.334   3.386
    8G      H22  247   4.277   3.207   3.326
    8G       N3  248   4.311   3.049   3.511
    8G       C4  249   4.337   2.989   3.632
    8G      C3'  250   4.340   2.567   3.538
    8G      H3'  251   4.445   2.583   3.563
    8G      C2'  252   4.292   2.703   3.485
    8G      H2'  253   4.380   2.764   3.463
    8G      O2'  254   4.208   2.698   3.370
    8G     HO2'  255   4.254   2.753   3.303
    8G      O3'  256   4.332   2.456   3.448
    9C        P  257   4.457   2.359   3.430
    9C      OP1  258   4.434   2.270   3.313
    9C      OP2  259   4.492   2.296   3.560
    9C      O5'  260   4.570   2.462   3.389
    9C      C5'  261   4.698   2.464   3.448
    9C      H5'  262   4.737   2.363   3.455
    9C     H5''  263   4.692   2.508   3.548
    9C      C4'  264   4.792   2.548   3.361
    9C      H4'  265   4.893   2.538   3.401
    9C      O4'  266   4.793   2.501   3.225
    9C      C1'  267   4.791   2.612   3.134
    9C      H1'  268   4.872   2.602   3.062
    9C       N1  269   4.662   2.626   3.059
    9C       C6  270   4.554   2.545   3.085
    9C       H6  271   4.559   2.471   3.163
    9C       C5  272   4.440   2.557   3.012
    9C       H5  273   4.355   2.495   3.035
    9C       C4  274   4.439   2.652   2.908
    9C       N4  275   4.334   2.664   2.832
    9C      H41  276   4.339   2.725   2.751
    9C      H42  277   4.249   2.617   2.857
    9C       N3  278   4.544   2.725   2.876
    9C       C2  279   4.656   2.714   2.950
    9C       O2  280   4.753   2.783   2.915
    9C      C3'  281   4.759   2.697   3.357
    9C      H3'  282   4.651   2.712   3.358
    9C      C2'  283   4.818   2.734   3.221
    9C      H2'  284   4.768   2.822   3.182
    9C      O2'  285   4.959   2.754   3.226
    9C     HO2'  286   4.973   2.830   3.283
    9C      O3'  287   4.825   2.771   3.460
   10A        P  288   4.744   2.880   3.544
   10A      OP1  289   4.844   2.940   3.635
   10A      OP2  290   4.623   2.815   3.597
   10A      O5'  291   4.707   2.986   3.430
   10A      C5'  292   4.805   3.076   3.380
   10A      H5'  293   4.898   3.021   3.365
   10A     H5''  294   4.824   3.153   3.454
   10A      C4'  295   4.766   3.141   3.247
   10A      H4'  296   4.855   3.189   3.205
   10A      O4'  297   4.721   3.045   3.152
   10A      C1'  298   4.607   3.094   3.082
   10A      H1'  299   4.626   3.088   2.975
   10A       N9  300   4.486   3.014   3.109
   10A       C8  301   4.461   2.925   3.211
   10A       H8  302   4.527   2.911   3.295
   10A       N7  303   4.351   2.856   3.195
   10A       C5  304   4.298   2.908   3.076
   10A       C6  305   4.180   2.884   3.002
   10A       N6  306   4.084   2.801   3.037
   10A      H61  307   3.995   2.818   2.993
   10A      H62  308   4.090   2.758   3.128
   10A       N1  309   4.154   2.952   2.890
   10A       C2  310   4.242   3.042   2.851
   10A       H2  311   4.217   3.096   2.760
   10A       N3  312   4.357   3.076   2.909
   10A       C4  313   4.379   3.004   3.024
   10A      C3'  314   4.660   3.250   3.257
   10A      H3'  315   4.592   3.227   3.338
   10A      C2'  316   4.589   3.241   3.121
   10A      H2'  317   4.484   3.267   3.133
   10A      O2'  318   4.649   3.317   3.016
   10A     HO2'  319   4.598   3.305   2.936
   10A      O3'  320   4.724   3.375   3.274
   11G        P  321   4.703   3.465   3.403
   11G      OP1  322   4.813   3.563   3.402
   11G      OP2  323   4.687   3.379   3.521
   11G      O5'  324   4.563   3.539   3.380
   11G      C5'  325   4.551   3.640   3.281
   11G      H5'  326   4.562   3.595   3.182
   11G     H5''  327   4.630   3.713   3.295
   11G      C4'  328   4.415   3.711   3.288
   11G      H4'  329   4.407   3.784   3.208
   11G      O4'  330   4.312   3.614   3.272
   11G      C1'  331   4.201   3.654   3.350
   11G      H1'  332   4.117   3.676   3.284
   11G       N9  333   4.160   3.544   3.438
   11G       C8  334   4.218   3.495   3.552
   11G       H8  335   4.307   3.538   3.596
   11G       N7  336   4.157   3.391   3.602
   11G       C5  337   4.049   3.371   3.515
   11G       C6  338   3.945   3.273   3.511
   11G       O6  339   3.927   3.175   3.581
   11G       N1  340   3.853   3.293   3.410
   11G       H1  341   3.781   3.224   3.402
   11G       C2  342   3.862   3.390   3.318
   11G       N2  343   3.769   3.395   3.227
   11G      H21  344   3.695   3.326   3.226
   11G      H22  345   3.773   3.470   3.158
   11G       N3  346   3.959   3.481   3.314
   11G       C4  347   4.049   3.467   3.416
   11G      C3'  348   4.389   3.783   3.422
   11G      H3'  349   4.429   3.723   3.504
   11G      C2'  350   4.236   3.781   3.426
   11G      H2'  351   4.199   3.779   3.528
   11G      O2'  352   4.174   3.886   3.352
   11G     HO2'  353   4.192   3.968   3.399
   11G      O3'  354   4.431   3.918   3.437
   12U        P  355   4.569   3.977   3.383
   12U      OP1  356   4.577   3.962   3.236
   12U      OP2  357   4.681   3.930   3.467
   12U      O5'  358   4.549   4.133   3.413
   12U      C5'  359   4.424   4.199   3.396
   12U      H5'  360   4.401   4.249   3.490
   12U     H5''  361   4.344   4.128   3.378
   12U      C4'  362   4.421   4.305   3.285
   12U      H4'  363   4.345   4.376   3.315
   12U      O4'  364   4.544   4.375   3.273
   12U      C1'  365   4.576   4.395   3.136
   12U      H1'  366   4.565   4.501   3.113
   12U       N1  367   4.716   4.352   3.108
   12U       C6  368   4.761   4.230   3.154
   12U       H6  369   4.696   4.171   3.217
   12U       C5  370   4.884   4.184   3.120
   12U       H5  371   4.915   4.088   3.158
   12U       C4  372   4.972   4.259   3.034
   12U       O4  373   5.083   4.221   2.997
   12U       N3  374   4.921   4.381   2.993
   12U       H3  375   4.978   4.437   2.932
   12U       C2  376   4.797   4.432   3.026
   12U       O2  377   4.765   4.542   2.983
   12U      C3'  378   4.383   4.248   3.147
   12U      H3'  379   4.406   4.142   3.145
   12U      C2'  380   4.479   4.316   3.047
   12U      H2'  381   4.530   4.238   2.992
   12U      O2'  382   4.421   4.407   2.956
   12U     HO2'  383   4.351   4.455   3.005
   12U      O3'  384   4.243   4.260   3.117
   13A        P  385   4.156   4.393   3.133
   13A      OP1  386   4.245   4.511   3.120
   13A      OP2  387   4.070   4.383   3.253
   13A      O5'  388   4.067   4.383   3.003
   13A      C5'  389   4.096   4.458   2.886
   13A      H5'  390   4.202   4.478   2.878
   13A     H5''  391   4.043   4.553   2.892
   13A      C4'  392   4.054   4.384   2.759
   13A      H4'  393   4.059   4.454   2.676
   13A      O4'  394   4.139   4.273   2.728
   13A      C1'  395   4.061   4.167   2.673
   13A      H1'  396   4.094   4.145   2.571
   13A       N9  397   4.078   4.043   2.754
   13A       C8  398   4.164   4.022   2.859
   13A       H8  399   4.219   4.103   2.907
   13A       N7  400   4.177   3.897   2.894
   13A       C5  401   4.088   3.830   2.809
   13A       C6  402   4.047   3.696   2.795
   13A       N6  403   4.091   3.597   2.871
   13A      H61  404   4.049   3.506   2.866
   13A      H62  405   4.152   3.622   2.947
   13A       N1  406   3.957   3.660   2.704
   13A       C2  407   3.908   3.756   2.626
   13A       H2  408   3.834   3.724   2.553
   13A       N3  409   3.936   3.886   2.626
   13A       C4  410   4.028   3.918   2.723
   13A      C3'  411   3.911   4.333   2.767
   13A      H3'  412   3.890   4.294   2.866
   13A      C2'  413   3.917   4.218   2.666
   13A      H2'  414   3.849   4.139   2.695
   13A      O2'  415   3.888   4.262   2.534
   13A     HO2'  416   3.806   4.312   2.544
   13A      O3'  417   3.821   4.437   2.730
   14A        P  418   3.706   4.485   2.831
   14A      OP1  419   3.636   4.603   2.775
   14A      OP2  420   3.757   4.488   2.969
   14A      O5'  421   3.612   4.359   2.813
   14A      C5'  422   3.541   4.342   2.693
   14A      H5'  423   3.604   4.371   2.609
   14A     H5''  424   3.452   4.404   2.694
   14A      C4'  425   3.502   4.196   2.675
   14A      H4'  426   3.444   4.185   2.583
   14A      O4'  427   3.616   4.111   2.666
   14A      C1'  428   3.585   3.986   2.726
   14A      H1'  429   3.596   3.906   2.654
   14A       N9  430   3.674   3.955   2.840
   14A       C8  431   3.756   4.038   2.913
   14A       H8  432   3.758   4.145   2.900
   14A       N7  433   3.833   3.976   2.997
   14A       C5  434   3.794   3.842   2.984
   14A       C6  435   3.830   3.720   3.046
   14A       N6  436   3.923   3.710   3.139
   14A      H61  437   3.935   3.622   3.187
   14A      H62  438   3.971   3.794   3.168
   14A       N1  439   3.768   3.606   3.016
   14A       C2  440   3.673   3.610   2.924
   14A       H2  441   3.624   3.517   2.902
   14A       N3  442   3.629   3.716   2.855
   14A       C4  443   3.695   3.829   2.891
   14A      C3'  444   3.418   4.145   2.791
   14A      H3'  445   3.463   4.176   2.885
   14A      C2'  446   3.439   3.994   2.773
   14A      H2'  447   3.428   3.945   2.868
   14A      O2'  448   3.358   3.933   2.673
   14A     HO2'  449   3.365   3.838   2.689
   14A      O3'  450   3.284   4.193   2.780
   15C        P  451   3.201   4.231   2.911
   15C      OP1  452   3.066   4.271   2.865
   15C      OP2  453   3.279   4.329   2.989
   15C      O5'  454   3.195   4.090   2.986
   15C      C5'  455   3.119   3.983   2.932
   15C      H5'  456   3.141   3.973   2.826
   15C     H5''  457   3.013   4.006   2.943
   15C      C4'  458   3.148   3.848   3.000
   15C      H4'  459   3.081   3.773   2.958
   15C      O4'  460   3.282   3.804   2.979
   15C      C1'  461   3.326   3.734   3.095
   15C      H1'  462   3.358   3.633   3.067
   15C       N1  463   3.441   3.801   3.163
   15C       C6  464   3.472   3.933   3.143
   15C       H6  465   3.408   3.994   3.080
   15C       C5  466   3.581   3.987   3.202
   15C       H5  467   3.607   4.090   3.184
   15C       C4  468   3.661   3.902   3.284
   15C       N4  469   3.768   3.948   3.342
   15C      H41  470   3.822   3.883   3.399
   15C      H42  471   3.806   4.035   3.313
   15C       N3  472   3.630   3.777   3.307
   15C       C2  473   3.522   3.723   3.246
   15C       O2  474   3.497   3.604   3.266
   15C      C3'  475   3.125   3.850   3.150
   15C      H3'  476   3.171   3.938   3.194
   15C      C2'  477   3.205   3.724   3.188
   15C      H2'  478   3.235   3.728   3.293
   15C      O2'  479   3.143   3.600   3.159
   15C     HO2'  480   3.166   3.539   3.231
   15C      O3'  481   2.986   3.847   3.177
   16C        P  482   2.926   3.897   3.316
   16C      OP1  483   2.779   3.879   3.304
   16C      OP2  484   2.978   4.032   3.345
   16C      O5'  485   2.987   3.791   3.419
   16C      C5'  486   2.941   3.656   3.417
   16C      H5'  487   2.954   3.614   3.317
   16C     H5''  488   2.834   3.655   3.439
   16C      C4'  489   3.012   3.566   3.519
   16C      H4'  490   2.967   3.468   3.515
   16C      O4'  491   3.152   3.551   3.495
   16C      C1'  492   3.220   3.540   3.620
   16C      H1'  493   3.280   3.448   3.625
   16C       N1  494   3.313   3.654   3.644
   16C       C6  495   3.314   3.765   3.562
   16C       H6  496   3.234   3.778   3.491
   16C       C5  497   3.414   3.856   3.571
   16C       H5  498   3.416   3.941   3.505
   16C       C4  499   3.514   3.833   3.669
   16C       N4  500   3.612   3.919   3.681
   16C      H41  501   3.684   3.901   3.751
   16C      H42  502   3.629   3.986   3.609
   16C       N3  503   3.510   3.734   3.755
   16C       C2  504   3.412   3.641   3.744
   16C       O2  505   3.409   3.548   3.825
   16C      C3'  506   2.997   3.617   3.662
   16C      H3'  507   3.021   3.723   3.666
   16C      C2'  508   3.110   3.536   3.727
   16C      H2'  509   3.143   3.581   3.820
   16C      O2'  510   3.080   3.399   3.748
   16C     HO2'  511   3.154   3.360   3.798
   16C      O3'  512   2.867   3.592   3.712
   17C        P  513   2.805   3.680   3.830
   17C      OP1  514   2.669   3.629   3.860
   17C      OP2  515   2.823   3.823   3.800
   17C      O5'  516   2.898   3.645   3.954
   17C      C5'  517   2.899   3.515   4.011
   17C      H5'  518   2.928   3.442   3.937
   17C     H5''  519   2.799   3.491   4.046
   17C      C4'  520   2.994   3.506   4.131
   17C      H4'  521   2.977   3.411   4.180
   17C      O4'  522   3.131   3.510   4.092
   17C      C1'  523   3.205   3.583   4.191
   17C      H1'  524   3.291   3.525   4.226
   17C       N1  525   3.257   3.710   4.133
   17C       C6  526   3.208   3.762   4.015
   17C       H6  527   3.119   3.720   3.972
   17C       C5  528   3.270   3.865   3.953
   17C       H5  529   3.232   3.903   3.860
   17C       C4  530   3.388   3.915   4.014
   17C       N4  531   3.450   4.015   3.959
   17C      H41  532   3.537   4.046   4.003
   17C      H42  533   3.433   4.037   3.863
   17C       N3  534   3.433   3.873   4.130
   17C       C2  535   3.369   3.770   4.192
   17C       O2  536   3.410   3.733   4.302
   17C      C3'  537   2.973   3.616   4.234
   17C      H3'  538   2.967   3.714   4.185
   17C      C2'  539   3.107   3.603   4.307
   17C      H2'  540   3.131   3.692   4.365
   17C      O2'  541   3.106   3.487   4.390
   17C     HO2'  542   3.183   3.490   4.452
   17C      O3'  543   2.858   3.593   4.316
   18C        P  544   2.788   3.715   4.392
   18C      OP1  545   2.682   3.659   4.479
   18C      OP2  546   2.750   3.817   4.292
   18C      O5'  547   2.901   3.775   4.487
   18C      C5'  548   2.936   3.708   4.606
   18C      H5'  549   2.963   3.604   4.584
   18C     H5''  550   2.850   3.708   4.674
   18C      C4'  551   3.053   3.772   4.679
   18C      H4'  552   3.070   3.717   4.771
   18C      O4'  553   3.173   3.766   4.601
   18C      C1'  554   3.251   3.882   4.630
   18C      H1'  555   3.352   3.853   4.661
   18C       N1  556   3.262   3.972   4.511
   18C       C6  557   3.177   3.961   4.403
   18C       H6  558   3.095   3.892   4.407
   18C       C5  559   3.197   4.036   4.292
   18C       H5  560   3.132   4.026   4.208
   18C       C4  561   3.306   4.127   4.295
   18C       N4  562   3.332   4.201   4.191
   18C      H41  563   3.417   4.256   4.200
   18C      H42  564   3.307   4.165   4.101
   18C       N3  565   3.387   4.141   4.397
   18C       C2  566   3.366   4.064   4.507
   18C       O2  567   3.441   4.080   4.603
   18C      C3'  568   3.034   3.920   4.716
   18C      H3'  569   3.001   3.975   4.628
   18C      C2'  570   3.181   3.952   4.747
   18C      H2'  571   3.200   4.058   4.747
   18C      O2'  572   3.229   3.889   4.865
   18C     HO2'  573   3.260   3.957   4.929
   18C      O3'  574   2.943   3.939   4.824
   19A        P  575   2.849   4.069   4.832
   19A      OP1  576   2.751   4.049   4.941
   19A      OP2  577   2.796   4.099   4.697
   19A      O5'  578   2.949   4.188   4.871
   19A      C5'  579   3.016   4.189   4.996
   19A      H5'  580   3.050   4.088   5.019
   19A     H5''  581   2.948   4.221   5.074
   19A      C4'  582   3.141   4.280   4.997
   19A      H4'  583   3.192   4.267   5.092
   19A      O4'  584   3.231   4.241   4.894
   19A      C1'  585   3.299   4.355   4.844
   19A      H1'  586   3.408   4.340   4.847
   19A       N9  587   3.257   4.378   4.703
   19A       C8  588   3.165   4.308   4.629
   19A       H8  589   3.103   4.231   4.672
   19A       N7  590   3.159   4.342   4.503
   19A       C5  591   3.256   4.443   4.493
   19A       C6  592   3.306   4.522   4.388
   19A       N6  593   3.274   4.505   4.261
   19A      H61  594   3.330   4.555   4.192
   19A      H62  595   3.235   4.415   4.240
   19A       N1  596   3.398   4.616   4.410
   19A       C2  597   3.444   4.631   4.533
   19A       H2  598   3.519   4.707   4.548
   19A       N3  599   3.410   4.561   4.641
   19A       C4  600   3.314   4.468   4.615
   19A      C3'  601   3.116   4.430   4.978
   19A      H3'  602   3.046   4.445   4.896
   19A      C2'  603   3.258   4.471   4.935
   19A      H2'  604   3.257   4.566   4.882
   19A      O2'  605   3.349   4.475   5.044
   19A     HO2'  606   3.437   4.498   5.006
   19A      O3'  607   3.071   4.494   5.097
   20G        P  608   3.007   4.640   5.096
   20G      OP1  609   2.976   4.674   5.236
   20G      OP2  610   2.895   4.640   4.999
   20G      O5'  611   3.116   4.745   5.045
   20G      C5'  612   3.227   4.782   5.126
   20G      H5'  613   3.288   4.694   5.146
   20G     H5''  614   3.192   4.821   5.221
   20G      C4'  615   3.316   4.888   5.060
   20G      H4'  616   3.409   4.897   5.117
   20G      O4'  617   3.347   4.844   4.928
   20G      C1'  618   3.298   4.938   4.835
   20G      H1'  619   3.381   5.002   4.805
   20G       N9  620   3.238   4.874   4.716
   20G       C8  621   3.151   4.768   4.709
   20G       H8  622   3.123   4.710   4.796
   20G       N7  623   3.104   4.746   4.589
   20G       C5  624   3.170   4.841   4.510
   20G       C6  625   3.165   4.868   4.369
   20G       O6  626   3.100   4.812   4.280
   20G       N1  627   3.241   4.978   4.332
   20G       H1  628   3.245   4.999   4.233
   20G       C2  629   3.309   5.056   4.419
   20G       N2  630   3.360   5.167   4.372
   20G      H21  631   3.362   5.182   4.271
   20G      H22  632   3.415   5.224   4.435
   20G       N3  633   3.311   5.039   4.551
   20G       C4  634   3.245   4.925   4.589
   20G      C3'  635   3.247   5.026   5.050
   20G      H3'  636   3.165   5.035   5.121
   20G      C2'  637   3.192   5.021   4.907
   20G      H2'  638   3.098   4.965   4.909
   20G      O2'  639   3.172   5.145   4.840
   20G     HO2'  640   3.183   5.129   4.746
   20G      O3'  641   3.336   5.136   5.065
   21U        P  642   3.396   5.179   5.207
   21U      OP1  643   3.391   5.064   5.299
   21U      OP2  644   3.339   5.309   5.250
   21U      O5'  645   3.547   5.206   5.164
   21U      C5'  646   3.657   5.133   5.214
   21U      H5'  647   3.655   5.030   5.178
   21U     H5''  648   3.654   5.132   5.323
   21U      C4'  649   3.787   5.202   5.167
   21U      H4'  650   3.872   5.156   5.217
   21U      O4'  651   3.804   5.182   5.027
   21U      C1'  652   3.827   5.304   4.959
   21U      H1'  653   3.926   5.298   4.913
   21U       N1  654   3.728   5.326   4.850
   21U       C6  655   3.605   5.264   4.849
   21U       H6  656   3.577   5.197   4.930
   21U       C5  657   3.518   5.281   4.745
   21U       H5  658   3.423   5.230   4.746
   21U       C4  659   3.552   5.364   4.632
   21U       O4  660   3.481   5.385   4.534
   21U       N3  661   3.676   5.423   4.640
   21U       H3  662   3.705   5.478   4.562
   21U       C2  663   3.765   5.411   4.745
   21U       O2  664   3.870   5.476   4.742
   21U      C3'  665   3.785   5.354   5.193
   21U      H3'  666   3.681   5.385   5.203
   21U      C2'  667   3.829   5.419   5.061
   21U      H2'  668   3.754   5.493   5.033
   21U      O2'  669   3.957   5.480   5.062
   21U     HO2'  670   4.012   5.433   5.130
   21U      O3'  671   3.844   5.406   5.313
   22U        P  672   3.988   5.369   5.370
   22U      OP1  673   4.010   5.460   5.484
   22U      OP2  674   4.085   5.368   5.259
   22U      O5'  675   3.970   5.223   5.431
   22U      C5'  676   4.067   5.120   5.418
   22U      H5'  677   4.164   5.154   5.456
   22U     H5''  678   4.078   5.093   5.313
   22U      C4'  679   4.024   4.995   5.497
   22U      H4'  680   4.097   4.917   5.478
   22U      O4'  681   4.022   5.017   5.638
   22U      C1'  682   3.899   4.970   5.694
   22U      H1'  683   3.920   4.884   5.757
   22U       N1  684   3.840   5.077   5.779
   22U       C6  685   3.855   5.211   5.748
   22U       H6  686   3.892   5.239   5.650
   22U       C5  687   3.829   5.308   5.840
   22U       H5  688   3.842   5.412   5.815
   22U       C4  689   3.784   5.274   5.974
   22U       O4  690   3.767   5.351   6.068
   22U       N3  691   3.761   5.140   5.993
   22U       H3  692   3.731   5.111   6.084
   22U       C2  693   3.784   5.040   5.902
   22U       O2  694   3.754   4.925   5.932
   22U      C3'  695   3.884   4.948   5.454
   22U      H3'  696   3.832   5.032   5.408
   22U      C2'  697   3.804   4.921   5.583
   22U      H2'  698   3.713   4.981   5.581
   22U      O2'  699   3.769   4.786   5.610
   22U     HO2'  700   3.837   4.728   5.566
   22U      O3'  701   3.886   4.849   5.354
   23A        P  702   3.974   4.715   5.359
   23A      OP1  703   3.962   4.658   5.495
   23A      OP2  704   4.108   4.745   5.304
   23A      O5'  705   3.890   4.629   5.257
   23A      C5'  706   3.751   4.606   5.277
   23A      H5'  707   3.710   4.678   5.347
   23A     H5''  708   3.737   4.507   5.319
   23A      C4'  709   3.674   4.619   5.146
   23A      H4'  710   3.570   4.592   5.164
   23A      O4'  711   3.677   4.753   5.098
   23A      C1'  712   3.673   4.750   4.957
   23A      H1'  713   3.580   4.795   4.922
   23A       N9  714   3.784   4.831   4.903
   23A       C8  715   3.913   4.845   4.950
   23A       H8  716   3.950   4.790   5.035
   23A       N7  717   3.985   4.933   4.883
   23A       C5  718   3.895   4.978   4.785
   23A       C6  719   3.901   5.073   4.680
   23A       N6  720   4.007   5.146   4.651
   23A      H61  721   4.002   5.205   4.571
   23A      H62  722   4.090   5.129   4.704
   23A       N1  723   3.796   5.097   4.601
   23A       C2  724   3.685   5.027   4.624
   23A       H2  725   3.601   5.049   4.561
   23A       N3  726   3.663   4.939   4.720
   23A       C4  727   3.773   4.917   4.797
   23A      C3'  728   3.726   4.529   5.034
   23A      H3'  729   3.835   4.528   5.035
   23A      C2'  730   3.676   4.604   4.910
   23A      H2'  731   3.742   4.587   4.825
   23A      O2'  732   3.542   4.570   4.881
   23A     HO2'  733   3.525   4.570   4.785
   23A      O3'  734   3.670   4.400   5.048
   24A        P  735   3.755   4.268   5.022
   24A      OP1  736   3.898   4.297   5.046
   24A      OP2  737   3.712   4.212   4.892
   24A      O5'  738   3.700   4.179   5.144
   24A      C5'  739   3.740   4.211   5.276
   24A      H5'  740   3.713   4.315   5.295
   24A     H5''  741   3.848   4.202   5.283
   24A      C4'  742   3.675   4.127   5.386
   24A      H4'  743   3.721   4.157   5.480
   24A      O4'  744   3.535   4.149   5.399
   24A      C1'  745   3.471   4.025   5.425
   24A      H1'  746   3.411   4.030   5.516
   24A       N9  747   3.382   3.990   5.313
   24A       C8  748   3.381   4.039   5.184
   24A       H8  749   3.455   4.109   5.147
   24A       N7  750   3.281   3.995   5.113
   24A       C5  751   3.212   3.909   5.200
   24A       C6  752   3.096   3.828   5.192
   24A       N6  753   3.018   3.816   5.087
   24A      H61  754   2.935   3.761   5.097
   24A      H62  755   3.039   3.866   5.001
   24A       N1  756   3.054   3.756   5.296
   24A       C2  757   3.125   3.763   5.408
   24A       H2  758   3.089   3.704   5.491
   24A       N3  759   3.235   3.834   5.432
   24A       C4  760   3.274   3.905   5.322
   24A      C3'  761   3.700   3.978   5.369
   24A      H3'  762   3.698   3.949   5.264
   24A      C2'  763   3.580   3.920   5.445
   24A      H2'  764   3.551   3.823   5.405
   24A      O2'  765   3.607   3.911   5.585
   24A     HO2'  766   3.702   3.896   5.588
   24A      O3'  767   3.821   3.941   5.435
   25C        P  768   3.914   3.827   5.376
   25C      OP1  769   4.025   3.812   5.473
   25C      OP2  770   3.942   3.853   5.235
   25C      O5'  771   3.820   3.698   5.390
   25C      C5'  772   3.810   3.634   5.516
   25C      H5'  773   3.789   3.709   5.592
   25C     H5''  774   3.905   3.586   5.538
   25C      C4'  775   3.699   3.530   5.521
   25C      H4'  776   3.695   3.492   5.623
   25C      O4'  777   3.573   3.587   5.490
   25C      C1'  778   3.489   3.485   5.436
   25C      H1'  779   3.404   3.471   5.503
   25C       N1  780   3.436   3.519   5.301
   25C       C6  781   3.489   3.620   5.224
   25C       H6  782   3.580   3.670   5.255
   25C       C5  783   3.428   3.656   5.108
   25C       H5  784   3.469   3.736   5.048
   25C       C4  785   3.311   3.584   5.070
   25C       N4  786   3.247   3.614   4.961
   25C      H41  787   3.165   3.560   4.941
   25C      H42  788   3.271   3.699   4.911
   25C       N3  789   3.260   3.486   5.141
   25C       C2  790   3.320   3.452   5.258
   25C       O2  791   3.273   3.360   5.325
   25C      C3'  792   3.719   3.409   5.430
   25C      H3'  793   3.746   3.441   5.329
   25C      C2'  794   3.574   3.357   5.435
   25C      H2'  795   3.553   3.297   5.347
   25C      O2'  796   3.542   3.283   5.553
   25C     HO2'  797   3.452   3.250   5.542
   25C      O3'  798   3.813   3.318   5.484
   26A        P  799   3.873   3.196   5.401
   26A      OP1  800   3.922   3.100   5.504
   26A      OP2  801   3.970   3.245   5.303
   26A      O5'  802   3.746   3.126   5.329
   26A      C5'  803   3.735   3.112   5.188
   26A      H5'  804   3.787   3.021   5.156
   26A     H5''  805   3.778   3.197   5.135
   26A      C4'  806   3.585   3.102   5.151
   26A      H4'  807   3.532   3.057   5.235
   26A      O4'  808   3.531   3.231   5.128
   26A      C1'  809   3.433   3.227   5.025
   26A      H1'  810   3.337   3.263   5.062
   26A       N9  811   3.477   3.316   4.915
   26A       C8  812   3.585   3.401   4.912
   26A       H8  813   3.662   3.401   4.988
   26A       N7  814   3.587   3.483   4.811
   26A       C5  815   3.470   3.450   4.741
   26A       C6  816   3.408   3.499   4.624
   26A       N6  817   3.458   3.594   4.549
   26A      H61  818   3.413   3.622   4.463
   26A      H62  819   3.550   3.628   4.574
   26A       N1  820   3.291   3.448   4.583
   26A       C2  821   3.237   3.351   4.655
   26A       H2  822   3.143   3.313   4.618
   26A       N3  823   3.282   3.296   4.767
   26A       C4  824   3.401   3.349   4.805
   26A      C3'  825   3.553   3.019   5.028
   26A      H3'  826   3.629   3.035   4.950
   26A      C2'  827   3.419   3.080   4.983
   26A      H2'  828   3.408   3.070   4.875
   26A      O2'  829   3.304   3.027   5.051
   26A     HO2'  830   3.228   3.061   5.003
   26A      O3'  831   3.543   2.882   5.064
   27A        P  832   3.586   2.767   4.963
   27A      OP1  833   3.546   2.640   5.027
   27A      OP2  834   3.729   2.788   4.933
   27A      O5'  835   3.497   2.794   4.832
   27A      C5'  836   3.359   2.764   4.831
   27A      H5'  837   3.311   2.811   4.917
   27A     H5''  838   3.346   2.656   4.840
   27A      C4'  839   3.287   2.812   4.704
   27A      H4'  840   3.183   2.778   4.710
   27A      O4'  841   3.284   2.953   4.692
   27A      C1'  842   3.292   2.986   4.553
   27A      H1'  843   3.205   3.044   4.523
   27A       N9  844   3.411   3.070   4.530
   27A       C8  845   3.525   3.082   4.606
   27A       H8  846   3.545   3.019   4.691
   27A       N7  847   3.606   3.177   4.567
   27A       C5  848   3.540   3.230   4.455
   27A       C6  849   3.568   3.334   4.362
   27A       N6  850   3.675   3.411   4.365
   27A      H61  851   3.688   3.482   4.294
   27A      H62  852   3.746   3.396   4.436
   27A       N1  853   3.485   3.360   4.261
   27A       C2  854   3.375   3.287   4.252
   27A       H2  855   3.309   3.310   4.169
   27A       N3  856   3.333   3.189   4.332
   27A       C4  857   3.423   3.165   4.431
   27A      C3'  858   3.344   2.753   4.576
   27A      H3'  859   3.453   2.752   4.580
   27A      C2'  860   3.295   2.856   4.472
   27A      H2'  861   3.365   2.863   4.388
   27A      O2'  862   3.162   2.832   4.427
   27A     HO2'  863   3.169   2.774   4.350
   27A      O3'  864   3.290   2.622   4.561
   28A        P  865   3.366   2.506   4.483
   28A      OP1  866   3.301   2.381   4.530
   28A      OP2  867   3.511   2.523   4.499
   28A      O5'  868   3.323   2.531   4.331
   28A      C5'  869   3.199   2.482   4.286
   28A      H5'  870   3.123   2.501   4.362
   28A     H5''  871   3.206   2.375   4.270
   28A      C4'  872   3.152   2.550   4.158
   28A      H4'  873   3.049   2.520   4.138
   28A      O4'  874   3.156   2.691   4.174
   28A      C1'  875   3.167   2.748   4.046
   28A      H1'  876   3.074   2.800   4.020
   28A       N9  877   3.276   2.848   4.037
   28A       C8  878   3.404   2.847   4.086
   28A       H8  879   3.445   2.764   4.143
   28A       N7  880   3.470   2.957   4.060
   28A       C5  881   3.380   3.035   3.987
   28A       C6  882   3.378   3.165   3.930
   28A       N6  883   3.476   3.253   3.933
   28A      H61  884   3.464   3.339   3.882
   28A      H62  885   3.569   3.227   3.965
   28A       N1  886   3.271   3.210   3.864
   28A       C2  887   3.167   3.128   3.853
   28A       H2  888   3.083   3.165   3.797
   28A       N3  889   3.151   3.007   3.903
   28A       C4  890   3.263   2.967   3.970
   28A      C3'  891   3.232   2.517   4.031
   28A      H3'  892   3.339   2.522   4.051
   28A      C2'  893   3.187   2.636   3.945
   28A      H2'  894   3.262   2.660   3.871
   28A      O2'  895   3.059   2.616   3.885
   28A     HO2'  896   3.075   2.617   3.790
   28A      O3'  897   3.195   2.393   3.974
   29A        P  898   3.273   2.331   3.850
   29A      OP1  899   3.202   2.205   3.818
   29A      OP2  900   3.416   2.323   3.886
   29A      O5'  901   3.258   2.433   3.726
   29A      C5'  902   3.148   2.426   3.637
   29A      H5'  903   3.057   2.412   3.695
   29A     H5''  904   3.161   2.339   3.572
   29A      C4'  905   3.131   2.552   3.551
   29A      H4'  906   3.033   2.548   3.504
   29A      O4'  907   3.136   2.667   3.634
   29A      C1'  908   3.182   2.779   3.560
   29A      H1'  909   3.105   2.855   3.558
   29A       N9  910   3.305   2.841   3.613
   29A       C8  911   3.409   2.783   3.681
   29A       H8  912   3.409   2.679   3.711
   29A       N7  913   3.507   2.865   3.707
   29A       C5  914   3.466   2.986   3.649
   29A       C6  915   3.522   3.116   3.637
   29A       N6  916   3.638   3.152   3.686
   29A      H61  917   3.668   3.249   3.678
   29A      H62  918   3.699   3.084   3.730
   29A       N1  919   3.456   3.212   3.571
   29A       C2  920   3.337   3.183   3.520
   29A       H2  921   3.288   3.263   3.468
   29A       N3  922   3.271   3.067   3.524
   29A       C4  923   3.343   2.972   3.591
   29A      C3'  924   3.231   2.577   3.438
   29A      H3'  925   3.333   2.557   3.472
   29A      C2'  926   3.209   2.728   3.419
   29A      H2'  927   3.299   2.774   3.379
   29A      O2'  928   3.096   2.765   3.341
   29A     HO2'  929   3.131   2.780   3.252
   29A      O3'  930   3.201   2.501   3.320
   30C        P  931   3.305   2.486   3.200
   30C      OP1  932   3.240   2.410   3.091
   30C      OP2  933   3.433   2.437   3.254
   30C      O5'  934   3.327   2.635   3.147
   30C      C5'  935   3.234   2.697   3.061
   30C      H5'  936   3.133   2.683   3.098
   30C     H5''  937   3.241   2.652   2.962
   30C      C4'  938   3.262   2.848   3.048
   30C      H4'  939   3.176   2.897   3.002
   30C      O4'  940   3.285   2.909   3.175
   30C      C1'  941   3.388   3.006   3.163
   30C      H1'  942   3.351   3.103   3.198
   30C       N1  943   3.510   2.974   3.243
   30C       C6  944   3.536   2.850   3.294
   30C       H6  945   3.475   2.766   3.266
   30C       C5  946   3.638   2.831   3.382
   30C       H5  947   3.656   2.734   3.424
   30C       C4  948   3.718   2.944   3.414
   30C       N4  949   3.815   2.934   3.499
   30C      H41  950   3.857   3.022   3.530
   30C      H42  951   3.818   2.857   3.563
   30C       N3  952   3.697   3.063   3.361
   30C       C2  953   3.594   3.081   3.276
   30C       O2  954   3.574   3.194   3.231
   30C      C3'  955   3.383   2.880   2.962
   30C      H3'  956   3.464   2.809   2.982
   30C      C2'  957   3.420   3.019   3.014
   30C      H2'  958   3.526   3.039   2.997
   30C      O2'  959   3.339   3.126   2.966
   30C     HO2'  960   3.398   3.200   2.951
   30C      O3'  961   3.343   2.877   2.826
   31A        P  962   3.448   2.857   2.710
   31A      OP1  963   3.370   2.864   2.584
   31A      OP2  964   3.523   2.733   2.739
   31A      O5'  965   3.543   2.985   2.721
   31A      C5'  966   3.498   3.112   2.676
   31A      H5'  967   3.409   3.142   2.732
   31A     H5''  968   3.469   3.103   2.571
   31A      C4'  969   3.603   3.223   2.686
   31A      H4'  970   3.560   3.315   2.646
   31A      O4'  971   3.644   3.253   2.819
   31A      C1'  972   3.784   3.283   2.817
   31A      H1'  973   3.803   3.382   2.860
   31A       N9  974   3.849   3.184   2.907
   31A       C8  975   3.799   3.063   2.949
   31A       H8  976   3.716   3.015   2.899
   31A       N7  977   3.855   3.015   3.057
   31A       C5  978   3.954   3.110   3.086
   31A       C6  979   4.054   3.123   3.186
   31A       N6  980   4.071   3.040   3.288
   31A      H61  981   4.145   3.056   3.355
   31A      H62  982   4.000   2.971   3.305
   31A       N1  983   4.143   3.222   3.181
   31A       C2  984   4.130   3.312   3.085
   31A       H2  985   4.202   3.393   3.085
   31A       N3  986   4.040   3.316   2.986
   31A       C4  987   3.955   3.210   2.992
   31A      C3'  988   3.726   3.191   2.601
   31A      H3'  989   3.756   3.087   2.613
   31A      C2'  990   3.829   3.284   2.669
   31A      H2'  991   3.930   3.245   2.658
   31A      O2'  992   3.817   3.417   2.621
   31A     HO2'  993   3.888   3.474   2.656
   31A      O3'  994   3.686   3.219   2.467
   32A        P  995   3.767   3.171   2.338
   32A      OP1  996   3.667   3.153   2.231
   32A      OP2  997   3.855   3.057   2.372
   32A      O5'  998   3.856   3.297   2.300
   32A      C5'  999   3.796   3.413   2.246
   32A      H5' 1000   3.712   3.442   2.310
   32A     H5'' 1001   3.759   3.390   2.146
   32A      C4' 1002   3.893   3.530   2.236
   32A      H4' 1003   3.844   3.612   2.184
   32A      O4' 1004   3.931   3.576   2.366
   32A      C1' 1005   4.071   3.602   2.369
   32A      H1' 1006   4.090   3.703   2.405
   32A       N9 1007   4.140   3.508   2.461
   32A       C8 1008   4.116   3.375   2.487
   32A       H8 1009   4.041   3.318   2.435
   32A       N7 1010   4.189   3.324   2.583
   32A       C5 1011   4.267   3.432   2.625
   32A       C6 1012   4.363   3.454   2.727
   32A       N6 1013   4.403   3.367   2.818
   32A      H61 1014   4.452   3.409   2.895
   32A      H62 1015   4.360   3.276   2.823
   32A       N1 1016   4.422   3.572   2.742
   32A       C2 1017   4.385   3.670   2.661
   32A       H2 1018   4.435   3.765   2.677
   32A       N3 1019   4.297   3.667   2.562
   32A       C4 1020   4.240   3.544   2.549
   32A      C3' 1021   4.020   3.495   2.160
   32A      H3' 1022   4.046   3.393   2.186
   32A      C2' 1023   4.119   3.593   2.224
   32A      H2' 1024   4.221   3.556   2.218
   32A      O2' 1025   4.110   3.722   2.164
   32A     HO2' 1026   4.120   3.707   2.069
   32A      O3' 1027   4.011   3.511   2.019
   33G3       P 1028   4.082   3.409   1.917
   33G3     OP1 1029   4.076   3.468   1.782
   33G3     OP2 1030   4.024   3.274   1.937
   33G3     O5' 1031   4.235   3.409   1.964
   33G3     C5' 1032   4.282   3.317   2.062
   33G3     H5' 1033   4.292   3.219   2.017
   33G3    H5'' 1034   4.209   3.309   2.141
   33G3     C4' 1035   4.414   3.363   2.125
   33G3     H4' 1036   4.445   3.457   2.078
   33G3     O4' 1037   4.398   3.387   2.265
   33G3     C1' 1038   4.489   3.306   2.339
   33G3     H1' 1039   4.529   3.361   2.425
   33G3      N9 1040   4.423   3.183   2.390
   33G3      C8 1041   4.308   3.122   2.345
   33G3      H8 1042   4.241   3.166   2.274
   33G3      N7 1043   4.289   3.002   2.392
   33G3      C5 1044   4.392   2.987   2.484
   33G3      C6 1045   4.425   2.877   2.570
   33G3      O6 1046   4.376   2.765   2.576
   33G3      N1 1047   4.530   2.904   2.654
   33G3      H1 1048   4.549   2.837   2.727
   33G3      C2 1049   4.604   3.017   2.651
   33G3      N2 1050   4.706   3.021   2.732
   33G3     H21 1051   4.723   2.942   2.795
   33G3     H22 1052   4.766   3.100   2.728
   33G3      N3 1053   4.584   3.118   2.565
   33G3      C4 1054   4.473   3.099   2.487
   33G3     C3' 1055   4.526   3.260   2.107
   33G3     H3' 1056   4.484   3.160   2.097
   33G3     C2' 1057   4.602   3.269   2.240
   33G3     H2' 1058   4.646   3.172   2.264
   33G3     O2' 1059   4.702   3.370   2.236
   33G3    HO2' 1060   4.749   3.373   2.321
   33G3     O3' 1061   4.611   3.288   1.999
   33G3    HO3' 1062   4.680   3.344   2.036
   34pq0     N1 1063   3.730   3.621   3.527
   34pq0     C2 1064   3.668   3.516   3.577
   34pq0     N3 1065   3.699   3.442   3.677
   34pq0     C4 1066   3.811   3.488   3.741
   34pq0     C5 1067   3.881   3.597   3.702
   34pq0     C6 1068   3.840   3.672   3.585
   34pq0     O6 1069   3.895   3.769   3.537
   34pq0     C7 1070   3.989   3.616   3.792
   34pq0    C10 1071   4.090   3.718   3.785
   34pq0    N11 1072   4.177   3.795   3.780
   34pq0     C8 1073   3.983   3.515   3.886
   34pq0     N9 1074   3.872   3.436   3.852
   34pq0     N2 1075   3.560   3.486   3.512
   34pq0     H1 1076   3.694   3.668   3.446
   34pq0     H2 1077   4.048   3.493   3.970
   34pq0     H3 1078   3.839   3.351   3.898
   34pq0     H4 1079   3.558   3.516   3.416
   34pq0     H5 1080   3.536   3.390   3.534
   7.75279   7.69708   7.86611
