GROningen MAchine for Chemical Simulation
 1894
    1U5    HO5'    1   9.177   7.260   8.543
    1U5     O5'    2   9.229   7.277   8.464
    1U5     C5'    3   9.323   7.380   8.466
    1U5     H5'    4   9.400   7.367   8.541
    1U5    H5''    5   9.272   7.475   8.482
    1U5     C4'    6   9.388   7.382   8.329
    1U5     H4'    7   9.478   7.444   8.330
    1U5     O4'    8   9.436   7.249   8.296
    1U5     C1'    9   9.426   7.228   8.156
    1U5     H1'   10   9.522   7.202   8.111
    1U5      N1   11   9.341   7.106   8.128
    1U5      C6   12   9.255   7.059   8.227
    1U5      H6   13   9.249   7.115   8.319
    1U5      C5   14   9.178   6.951   8.211
    1U5      H5   15   9.110   6.916   8.289
    1U5      C4   16   9.184   6.880   8.086
    1U5      O4   17   9.120   6.779   8.058
    1U5      N3   18   9.271   6.933   7.992
    1U5      H3   19   9.275   6.880   7.896
    1U5      C2   20   9.352   7.043   8.006
    1U5      O2   21   9.425   7.080   7.915
    1U5     C3'   22   9.295   7.412   8.212
    1U5     H3'   23   9.190   7.414   8.185
    1U5     C2'   24   9.376   7.358   8.095
    1U5     H2'   25   9.299   7.364   8.018
    1U5     O2'   26   9.485   7.442   8.060
    1U5    HO2'   27   9.519   7.411   7.976
    1U5     O3'   28   9.281   7.551   8.198
    2U        P   29   9.143   7.618   8.155
    2U      OP1   30   9.158   7.760   8.193
    2U      OP2   31   9.028   7.540   8.205
    2U      O5'   32   9.146   7.604   7.994
    2U      C5'   33   9.242   7.672   7.913
    2U      H5'   34   9.342   7.667   7.958
    2U     H5''   35   9.211   7.776   7.906
    2U      C4'   36   9.246   7.610   7.775
    2U      H4'   37   9.322   7.660   7.714
    2U      O4'   38   9.293   7.473   7.787
    2U      C1'   39   9.226   7.391   7.692
    2U      H1'   40   9.296   7.334   7.631
    2U       N1   41   9.145   7.282   7.760
    2U       C6   42   9.105   7.293   7.893
    2U       H6   43   9.127   7.385   7.944
    2U       C5   44   9.035   7.198   7.958
    2U       H5   45   9.006   7.209   8.062
    2U       C4   46   8.999   7.078   7.887
    2U       O4   47   8.935   6.983   7.933
    2U       N3   48   9.042   7.073   7.756
    2U       H3   49   9.015   6.984   7.700
    2U       C2   50   9.114   7.169   7.688
    2U       O2   51   9.147   7.153   7.572
    2U      C3'   52   9.112   7.594   7.705
    2U      H3'   53   9.006   7.589   7.730
    2U      C2'   54   9.146   7.485   7.604
    2U      H2'   55   9.045   7.467   7.566
    2U      O2'   56   9.228   7.530   7.498
    2U     HO2'   57   9.229   7.460   7.432
    2U      O3'   58   9.072   7.712   7.641
    3C        P   59   8.917   7.746   7.613
    3C      OP1   60   8.918   7.888   7.569
    3C      OP2   61   8.834   7.708   7.729
    3C      O5'   62   8.877   7.656   7.487
    3C      C5'   63   8.942   7.670   7.359
    3C      H5'   64   9.050   7.677   7.370
    3C     H5''   65   8.904   7.760   7.311
    3C      C4'   66   8.908   7.549   7.272
    3C      H4'   67   8.959   7.559   7.176
    3C      O4'   68   8.962   7.428   7.330
    3C      C1'   69   8.873   7.320   7.310
    3C      H1'   70   8.930   7.237   7.268
    3C       N1   71   8.818   7.263   7.441
    3C       C6   72   8.821   7.334   7.560
    3C       H6   73   8.864   7.433   7.562
    3C       C5   74   8.771   7.281   7.674
    3C       H5   75   8.774   7.340   7.766
    3C       C4   76   8.717   7.149   7.667
    3C       N4   77   8.665   7.086   7.773
    3C      H41   78   8.629   6.993   7.760
    3C      H42   79   8.664   7.132   7.863
    3C       N3   80   8.714   7.080   7.552
    3C       C2   81   8.762   7.134   7.437
    3C       O2   82   8.758   7.069   7.331
    3C      C3'   83   8.760   7.516   7.261
    3C      H3'   84   8.668   7.534   7.316
    3C      C2'   85   8.766   7.371   7.215
    3C      H2'   86   8.659   7.348   7.222
    3C      O2'   87   8.810   7.350   7.083
    3C     HO2'   88   8.794   7.258   7.062
    3C      O3'   89   8.700   7.600   7.168
    4C        P   90   8.546   7.638   7.178
    4C      OP1   91   8.528   7.756   7.093
    4C      OP2   92   8.500   7.640   7.318
    4C      O5'   93   8.468   7.518   7.107
    4C      C5'   94   8.497   7.469   6.978
    4C      H5'   95   8.603   7.447   6.964
    4C     H5''   96   8.464   7.540   6.903
    4C      C4'   97   8.418   7.340   6.963
    4C      H4'   98   8.431   7.302   6.862
    4C      O4'   99   8.476   7.238   7.049
    4C      C1'  100   8.373   7.149   7.090
    4C      H1'  101   8.397   7.047   7.061
    4C       N1  102   8.371   7.144   7.241
    4C       C6  103   8.425   7.247   7.316
    4C       H6  104   8.468   7.333   7.267
    4C       C5  105   8.425   7.241   7.451
    4C       H5  106   8.465   7.324   7.509
    4C       C4  107   8.368   7.123   7.511
    4C       N4  108   8.364   7.108   7.643
    4C      H41  109   8.324   7.023   7.679
    4C      H42  110   8.401   7.179   7.704
    4C       N3  111   8.316   7.023   7.440
    4C       C2  112   8.315   7.030   7.305
    4C       O2  113   8.266   6.939   7.237
    4C      C3'  114   8.273   7.343   7.009
    4C      H3'  115   8.207   7.396   7.078
    4C      C2'  116   8.247   7.194   7.019
    4C      H2'  117   8.147   7.196   7.064
    4C      O2'  118   8.240   7.131   6.893
    4C     HO2'  119   8.208   7.042   6.907
    4C      O3'  120   8.190   7.401   6.911
    5C        P  121   8.050   7.468   6.947
    5C      OP1  122   8.005   7.537   6.824
    5C      OP2  123   8.068   7.545   7.071
    5C      O5'  124   7.949   7.348   6.975
    5C      C5'  125   7.892   7.267   6.871
    5C      H5'  126   7.965   7.235   6.797
    5C     H5''  127   7.815   7.327   6.823
    5C      C4'  128   7.828   7.144   6.935
    5C      H4'  129   7.803   7.071   6.858
    5C      O4'  130   7.924   7.077   7.020
    5C      C1'  131   7.856   7.012   7.126
    5C      H1'  132   7.883   6.907   7.123
    5C       N1  133   7.907   7.058   7.261
    5C       C6  134   7.978   7.175   7.276
    5C       H6  135   7.999   7.237   7.190
    5C       C5  136   8.022   7.213   7.397
    5C       H5  137   8.078   7.307   7.405
    5C       C4  138   7.993   7.129   7.510
    5C       N4  139   8.034   7.161   7.634
    5C      H41  140   8.010   7.098   7.709
    5C      H42  141   8.088   7.245   7.649
    5C       N3  142   7.922   7.017   7.497
    5C       C2  143   7.877   6.978   7.374
    5C       O2  144   7.810   6.876   7.357
    5C      C3'  145   7.716   7.173   7.033
    5C      H3'  146   7.684   7.251   7.102
    5C      C2'  147   7.708   7.038   7.104
    5C      H2'  148   7.635   7.061   7.182
    5C      O2'  149   7.655   6.940   7.018
    5C     HO2'  150   7.638   6.862   7.072
    5C      O3'  151   7.594   7.203   6.969
    6G        P  152   7.495   7.310   7.033
    6G      OP1  153   7.389   7.336   6.936
    6G      OP2  154   7.575   7.423   7.085
    6G      O5'  155   7.436   7.238   7.163
    6G      C5'  156   7.349   7.125   7.158
    6G      H5'  157   7.387   7.044   7.095
    6G     H5''  158   7.252   7.158   7.120
    6G      C4'  159   7.334   7.076   7.300
    6G      H4'  160   7.277   6.983   7.303
    6G      O4'  161   7.463   7.041   7.355
    6G      C1'  162   7.471   7.075   7.492
    6G      H1'  163   7.511   6.988   7.545
    6G       N9  164   7.572   7.178   7.513
    6G       C8  165   7.629   7.260   7.417
    6G       H8  166   7.600   7.249   7.314
    6G       N7  167   7.715   7.345   7.464
    6G       C5  168   7.717   7.317   7.600
    6G       C6  169   7.792   7.378   7.703
    6G       O6  170   7.875   7.469   7.691
    6G       N1  171   7.766   7.323   7.830
    6G       H1  172   7.815   7.358   7.909
    6G       C2  173   7.675   7.221   7.852
    6G       N2  174   7.661   7.181   7.979
    6G      H21  175   7.711   7.216   8.059
    6G      H22  176   7.596   7.106   7.996
    6G       N3  177   7.602   7.163   7.755
    6G       C4  178   7.629   7.215   7.632
    6G      C3'  179   7.285   7.181   7.398
    6G      H3'  180   7.267   7.288   7.407
    6G      C2'  181   7.334   7.126   7.532
    6G      H2'  182   7.317   7.216   7.591
    6G      O2'  183   7.255   7.022   7.582
    6G     HO2'  184   7.282   7.008   7.674
    6G      O3'  185   7.146   7.181   7.394
    7A        P  186   7.063   7.313   7.364
    7A      OP1  187   7.109   7.375   7.237
    7A      OP2  188   7.054   7.391   7.488
    7A      O5'  189   6.924   7.244   7.335
    7A      C5'  190   6.909   7.150   7.230
    7A      H5'  191   6.983   7.070   7.233
    7A     H5''  192   6.918   7.203   7.135
    7A      C4'  193   6.770   7.091   7.241
    7A      H4'  194   6.759   7.005   7.175
    7A      O4'  195   6.756   7.037   7.374
    7A      C1'  196   6.621   7.056   7.416
    7A      H1'  197   6.562   6.965   7.430
    7A       N9  198   6.618   7.117   7.548
    7A       C8  199   6.722   7.174   7.616
    7A       H8  200   6.818   7.186   7.568
    7A       N7  201   6.690   7.215   7.737
    7A       C5  202   6.556   7.182   7.748
    7A       C6  203   6.462   7.198   7.851
    7A       N6  204   6.492   7.254   7.968
    7A      H61  205   6.421   7.263   8.039
    7A      H62  206   6.586   7.287   7.985
    7A       N1  207   6.336   7.155   7.830
    7A       C2  208   6.305   7.098   7.713
    7A       H2  209   6.205   7.063   7.693
    7A       N3  210   6.385   7.077   7.609
    7A       C4  211   6.510   7.122   7.633
    7A      C3'  212   6.655   7.191   7.232
    7A      H3'  213   6.645   7.298   7.249
    7A      C2'  214   6.542   7.118   7.304
    7A      H2'  215   6.470   7.199   7.312
    7A      O2'  216   6.484   7.012   7.230
    7A     HO2'  217   6.406   6.984   7.277
    7A      O3'  218   6.621   7.222   7.099
    8A        P  219   6.598   7.374   7.056
    8A      OP1  220   6.600   7.375   6.907
    8A      OP2  221   6.693   7.463   7.128
    8A      O5'  222   6.451   7.407   7.113
    8A      C5'  223   6.333   7.332   7.078
    8A      H5'  224   6.356   7.226   7.075
    8A     H5''  225   6.299   7.365   6.980
    8A      C4'  226   6.223   7.357   7.180
    8A      H4'  227   6.131   7.308   7.147
    8A      O4'  228   6.255   7.292   7.307
    8A      C1'  229   6.214   7.373   7.416
    8A      H1'  230   6.159   7.315   7.490
    8A       N9  231   6.330   7.421   7.491
    8A       C8  232   6.456   7.446   7.442
    8A       H8  233   6.476   7.434   7.337
    8A       N7  234   6.540   7.488   7.532
    8A       C5  235   6.464   7.494   7.648
    8A       C6  236   6.496   7.531   7.781
    8A       N6  237   6.616   7.573   7.818
    8A      H61  238   6.633   7.599   7.914
    8A      H62  239   6.691   7.579   7.750
    8A       N1  240   6.398   7.525   7.873
    8A       C2  241   6.275   7.483   7.836
    8A       H2  242   6.195   7.477   7.908
    8A       N3  243   6.235   7.445   7.715
    8A       C4  244   6.335   7.452   7.625
    8A      C3'  245   6.204   7.502   7.219
    8A      H3'  246   6.260   7.596   7.214
    8A      C2'  247   6.137   7.490   7.356
    8A      H2'  248   6.149   7.594   7.386
    8A      O2'  249   5.999   7.459   7.350
    8A     HO2'  250   5.963   7.474   7.438
    8A      O3'  251   6.126   7.573   7.123
    9A        P  252   6.145   7.732   7.109
    9A      OP1  253   6.104   7.770   6.971
    9A      OP2  254   6.276   7.776   7.160
    9A      O5'  255   6.031   7.781   7.211
    9A      C5'  256   6.055   7.886   7.300
    9A      H5'  257   6.043   7.984   7.254
    9A     H5''  258   6.158   7.874   7.333
    9A      C4'  259   5.963   7.875   7.419
    9A      H4'  260   5.859   7.856   7.393
    9A      O4'  261   6.000   7.763   7.502
    9A      C1'  262   6.011   7.802   7.638
    9A      H1'  263   5.973   7.722   7.702
    9A       N9  264   6.150   7.814   7.680
    9A       C8  265   6.262   7.816   7.602
    9A       H8  266   6.254   7.811   7.494
    9A       N7  267   6.372   7.831   7.671
    9A       C5  268   6.330   7.840   7.802
    9A       C6  269   6.399   7.855   7.923
    9A       N6  270   6.532   7.866   7.931
    9A      H61  271   6.576   7.877   8.021
    9A      H62  272   6.587   7.862   7.847
    9A       N1  273   6.326   7.860   8.037
    9A       C2  274   6.193   7.850   8.031
    9A       H2  275   6.132   7.853   8.119
    9A       N3  276   6.117   7.835   7.922
    9A       C4  277   6.193   7.830   7.810
    9A      C3'  278   5.981   7.992   7.511
    9A      H3'  279   6.051   8.075   7.524
    9A      C2'  280   5.944   7.936   7.648
    9A      H2'  281   5.979   8.019   7.709
    9A      O2'  282   5.806   7.919   7.667
    9A     HO2'  283   5.793   7.899   7.760
    9A      O3'  284   5.898   8.096   7.469
   10G        P  285   5.962   8.242   7.455
   10G      OP1  286   5.861   8.321   7.380
   10G      OP2  287   6.099   8.233   7.399
   10G      O5'  288   5.966   8.289   7.608
   10G      C5'  289   5.839   8.301   7.674
   10G      H5'  290   5.776   8.215   7.649
   10G     H5''  291   5.792   8.392   7.636
   10G      C4'  292   5.853   8.310   7.823
   10G      H4'  293   5.755   8.313   7.871
   10G      O4'  294   5.914   8.188   7.873
   10G      C1'  295   5.998   8.222   7.983
   10G      H1'  296   5.980   8.144   8.057
   10G       N9  297   6.139   8.206   7.949
   10G       C8  298   6.199   8.192   7.825
   10G       H8  299   6.139   8.189   7.736
   10G       N7  300   6.329   8.184   7.831
   10G       C5  301   6.357   8.194   7.966
   10G       C6  302   6.481   8.191   8.036
   10G       O6  303   6.595   8.179   7.988
   10G       N1  304   6.465   8.204   8.174
   10G       H1  305   6.547   8.202   8.232
   10G       C2  306   6.344   8.218   8.238
   10G       N2  307   6.344   8.230   8.370
   10G      H21  308   6.425   8.228   8.431
   10G      H22  309   6.254   8.239   8.415
   10G       N3  310   6.228   8.220   8.175
   10G       C4  311   6.242   8.208   8.040
   10G      C3'  312   5.948   8.418   7.871
   10G      H3'  313   6.032   8.480   7.839
   10G      C2'  314   5.973   8.370   8.013
   10G      H2'  315   6.053   8.439   8.038
   10G      O2'  316   5.864   8.390   8.102
   10G     HO2'  317   5.896   8.374   8.190
   10G      O3'  318   5.888   8.546   7.867
   11G        P  319   5.976   8.674   7.827
   11G      OP1  320   5.879   8.786   7.810
   11G      OP2  321   6.068   8.641   7.717
   11G      O5'  322   6.064   8.701   7.958
   11G      C5'  323   6.000   8.732   8.081
   11G      H5'  324   5.917   8.664   8.099
   11G     H5''  325   5.963   8.834   8.077
   11G      C4'  326   6.100   8.720   8.193
   11G      H4'  327   6.049   8.727   8.289
   11G      O4'  328   6.159   8.587   8.193
   11G      C1'  329   6.289   8.597   8.248
   11G      H1'  330   6.297   8.519   8.324
   11G       N9  331   6.389   8.558   8.149
   11G       C8  332   6.371   8.535   8.014
   11G       H8  333   6.274   8.543   7.969
   11G       N7  334   6.482   8.505   7.953
   11G       C5  335   6.579   8.508   8.053
   11G       C6  336   6.718   8.484   8.048
   11G       O6  337   6.785   8.453   7.949
   11G       N1  338   6.780   8.499   8.172
   11G       H1  339   6.878   8.483   8.178
   11G       C2  340   6.714   8.534   8.288
   11G       N2  341   6.786   8.544   8.400
   11G      H21  342   6.886   8.528   8.409
   11G      H22  343   6.736   8.568   8.484
   11G       N3  344   6.584   8.556   8.294
   11G       C4  345   6.523   8.542   8.174
   11G      C3'  346   6.222   8.812   8.183
   11G      H3'  347   6.282   8.867   8.111
   11G      C2'  348   6.313   8.743   8.284
   11G      H2'  349   6.403   8.798   8.258
   11G      O2'  350   6.280   8.769   8.419
   11G     HO2'  351   6.354   8.740   8.472
   11G      O3'  352   6.192   8.945   8.220
   12A        P  353   6.269   9.069   8.153
   12A      OP1  354   6.197   9.191   8.195
   12A      OP2  355   6.290   9.043   8.009
   12A      O5'  356   6.413   9.067   8.222
   12A      C5'  357   6.432   9.097   8.360
   12A      H5'  358   6.366   9.037   8.423
   12A     H5''  359   6.410   9.202   8.374
   12A      C4'  360   6.576   9.070   8.400
   12A      H4'  361   6.589   9.085   8.507
   12A      O4'  362   6.608   8.930   8.378
   12A      C1'  363   6.744   8.918   8.336
   12A      H1'  364   6.795   8.841   8.394
   12A       N9  365   6.753   8.868   8.198
   12A       C8  366   6.654   8.861   8.104
   12A       H8  367   6.555   8.899   8.127
   12A       N7  368   6.693   8.813   7.989
   12A       C5  369   6.828   8.787   8.007
   12A       C6  370   6.928   8.734   7.923
   12A       N6  371   6.906   8.696   7.796
   12A      H61  372   6.981   8.659   7.740
   12A      H62  373   6.813   8.706   7.757
   12A       N1  374   7.053   8.721   7.973
   12A       C2  375   7.077   8.758   8.099
   12A       H2  376   7.176   8.749   8.142
   12A       N3  377   6.992   8.808   8.188
   12A       C4  378   6.867   8.820   8.136
   12A      C3'  379   6.682   9.140   8.315
   12A      H3'  380   6.692   9.180   8.214
   12A      C2'  381   6.804   9.057   8.350
   12A      H2'  382   6.875   9.101   8.280
   12A      O2'  383   6.850   9.078   8.482
   12A     HO2'  384   6.936   9.035   8.489
   12A      O3'  385   6.697   9.277   8.347
   13U        P  386   6.705   9.382   8.226
   13U      OP1  387   6.674   9.517   8.278
   13U      OP2  388   6.622   9.327   8.116
   13U      O5'  389   6.858   9.377   8.180
   13U      C5'  390   6.967   9.378   8.274
   13U      H5'  391   6.939   9.322   8.363
   13U     H5''  392   6.986   9.482   8.301
   13U      C4'  393   7.093   9.318   8.213
   13U      H4'  394   7.173   9.320   8.287
   13U      O4'  395   7.073   9.176   8.186
   13U      C1'  396   7.145   9.139   8.069
   13U      H1'  397   7.204   9.050   8.088
   13U       N1  398   7.052   9.096   7.956
   13U       C6  399   6.919   9.136   7.958
   13U       H6  400   6.887   9.200   8.038
   13U       C5  401   6.831   9.104   7.861
   13U       H5  402   6.728   9.138   7.864
   13U       C4  403   6.876   9.023   7.751
   13U       O4  404   6.806   8.988   7.657
   13U       N3  405   7.010   8.986   7.755
   13U       H3  406   7.046   8.926   7.672
   13U       C2  407   7.102   9.018   7.852
   13U       O2  408   7.217   8.979   7.844
   13U      C3'  409   7.133   9.373   8.077
   13U      H3'  410   7.086   9.420   7.991
   13U      C2'  411   7.228   9.262   8.030
   13U      H2'  412   7.240   9.297   7.927
   13U      O2'  413   7.353   9.261   8.094
   13U     HO2'  414   7.410   9.202   8.044
   13U      O3'  415   7.191   9.504   8.084
   14G        P  416   7.158   9.614   7.971
   14G      OP1  417   7.155   9.748   8.035
   14G      OP2  418   7.040   9.571   7.891
   14G      O5'  419   7.290   9.603   7.880
   14G      C5'  420   7.280   9.562   7.745
   14G      H5'  421   7.257   9.648   7.682
   14G     H5''  422   7.199   9.489   7.739
   14G      C4'  423   7.408   9.497   7.695
   14G      H4'  424   7.497   9.537   7.744
   14G      O4'  425   7.409   9.355   7.728
   14G      C1'  426   7.415   9.278   7.609
   14G      H1'  427   7.466   9.184   7.631
   14G       N9  428   7.279   9.235   7.570
   14G       C8  429   7.160   9.266   7.633
   14G       H8  430   7.161   9.329   7.721
   14G       N7  431   7.055   9.214   7.576
   14G       C5  432   7.107   9.144   7.468
   14G       C6  433   7.040   9.067   7.370
   14G       O6  434   6.918   9.045   7.359
   14G       N1  435   7.129   9.012   7.278
   14G       H1  436   7.092   8.955   7.205
   14G       C2  437   7.266   9.029   7.281
   14G       N2  438   7.337   8.969   7.185
   14G      H21  439   7.301   8.910   7.110
   14G      H22  440   7.437   8.981   7.188
   14G       N3  441   7.329   9.101   7.372
   14G       C4  442   7.244   9.156   7.463
   14G      C3'  443   7.418   9.501   7.543
   14G      H3'  444   7.356   9.536   7.460
   14G      C2'  445   7.482   9.368   7.505
   14G      H2'  446   7.455   9.367   7.399
   14G      O2'  447   7.622   9.367   7.518
   14G     HO2'  448   7.654   9.287   7.475
   14G      O3'  449   7.492   9.613   7.500
   15G        P  450   7.416   9.724   7.413
   15G      OP1  451   7.497   9.848   7.417
   15G      OP2  452   7.273   9.726   7.453
   15G      O5'  453   7.425   9.663   7.265
   15G      C5'  454   7.550   9.617   7.211
   15G      H5'  455   7.604   9.559   7.286
   15G     H5''  456   7.609   9.703   7.183
   15G      C4'  457   7.525   9.531   7.089
   15G      H4'  458   7.620   9.505   7.042
   15G      O4'  459   7.469   9.403   7.130
   15G      C1'  460   7.384   9.356   7.026
   15G      H1'  461   7.417   9.255   6.999
   15G       N9  462   7.248   9.335   7.077
   15G       C8  463   7.193   9.379   7.195
   15G       H8  464   7.253   9.437   7.264
   15G       N7  465   7.068   9.346   7.211
   15G       C5  466   7.037   9.274   7.096
   15G       C6  467   6.916   9.211   7.057
   15G       O6  468   6.808   9.207   7.118
   15G       N1  469   6.928   9.148   6.932
   15G       H1  470   6.848   9.101   6.896
   15G       C2  471   7.043   9.147   6.856
   15G       N2  472   7.036   9.082   6.739
   15G      H21  473   6.957   9.033   6.701
   15G      H22  474   7.121   9.080   6.683
   15G       N3  475   7.157   9.205   6.891
   15G       C4  476   7.147   9.266   7.012
   15G      C3'  477   7.422   9.585   6.992
   15G      H3'  478   7.337   9.654   6.989
   15G      C2'  479   7.388   9.459   6.914
   15G      H2'  480   7.299   9.498   6.864
   15G      O2'  481   7.485   9.425   6.817
   15G     HO2'  482   7.446   9.358   6.760
   15G      O3'  483   7.476   9.688   6.910
   16C        P  484   7.381   9.804   6.850
   16C      OP1  485   7.468   9.911   6.796
   16C      OP2  486   7.278   9.839   6.951
   16C      O5'  487   7.309   9.731   6.727
   16C      C5'  488   7.384   9.680   6.616
   16C      H5'  489   7.470   9.624   6.652
   16C     H5''  490   7.418   9.765   6.557
   16C      C4'  491   7.297   9.591   6.530
   16C      H4'  492   7.358   9.548   6.451
   16C      O4'  493   7.248   9.475   6.605
   16C      C1'  494   7.121   9.436   6.555
   16C      H1'  495   7.125   9.329   6.534
   16C       N1  496   7.014   9.447   6.663
   16C       C6  497   7.042   9.515   6.779
   16C       H6  498   7.140   9.559   6.791
   16C       C5  499   6.952   9.529   6.876
   16C       H5  500   6.978   9.585   6.967
   16C       C4  501   6.824   9.469   6.856
   16C       N4  502   6.730   9.480   6.951
   16C      H41  503   6.641   9.436   6.933
   16C      H42  504   6.750   9.530   7.036
   16C       N3  505   6.794   9.402   6.744
   16C       C2  506   6.887   9.389   6.645
   16C       O2  507   6.859   9.326   6.541
   16C      C3'  508   7.168   9.654   6.480
   16C      H3'  509   7.096   9.732   6.507
   16C      C2'  510   7.093   9.529   6.436
   16C      H2'  511   6.997   9.576   6.417
   16C      O2'  512   7.144   9.473   6.316
   16C     HO2'  513   7.080   9.408   6.286
   16C      O3'  514   7.191   9.747   6.376
   17G        P  515   7.108   9.884   6.370
   17G      OP1  516   7.166   9.968   6.263
   17G      OP2  517   7.096   9.938   6.507
   17G      O5'  518   6.962   9.834   6.325
   17G      C5'  519   6.940   9.775   6.197
   17G      H5'  520   7.020   9.707   6.170
   17G     H5''  521   6.936   9.857   6.125
   17G      C4'  522   6.808   9.700   6.196
   17G      H4'  523   6.801   9.642   6.105
   17G      O4'  524   6.803   9.602   6.303
   17G      C1'  525   6.666   9.578   6.333
   17G      H1'  526   6.651   9.470   6.324
   17G       N9  527   6.636   9.605   6.474
   17G       C8  528   6.712   9.674   6.566
   17G       H8  529   6.808   9.715   6.539
   17G       N7  530   6.655   9.682   6.683
   17G       C5  531   6.534   9.615   6.668
   17G       C6  532   6.428   9.591   6.760
   17G       O6  533   6.421   9.625   6.879
   17G       N1  534   6.322   9.519   6.703
   17G       H1  535   6.244   9.497   6.761
   17G       C2  536   6.319   9.475   6.572
   17G       N2  537   6.210   9.407   6.533
   17G      H21  538   6.130   9.383   6.590
   17G      H22  539   6.209   9.375   6.438
   17G       N3  540   6.417   9.498   6.485
   17G       C4  541   6.521   9.568   6.539
   17G      C3'  542   6.685   9.783   6.227
   17G      H3'  543   6.653   9.869   6.286
   17G      C2'  544   6.584   9.670   6.244
   17G      H2'  545   6.500   9.730   6.280
   17G      O2'  546   6.549   9.607   6.123
   17G     HO2'  547   6.473   9.551   6.141
   17G      O3'  548   6.650   9.870   6.123
   18G        P  549   6.623  10.024   6.160
   18G      OP1  550   6.645  10.104   6.038
   18G      OP2  551   6.699  10.056   6.283
   18G      O5'  552   6.468  10.027   6.199
   18G      C5'  553   6.371   9.983   6.105
   18G      H5'  554   6.414   9.910   6.036
   18G     H5''  555   6.336  10.070   6.049
   18G      C4'  556   6.254   9.919   6.177
   18G      H4'  557   6.189   9.871   6.104
   18G      O4'  558   6.298   9.811   6.265
   18G      C1'  559   6.210   9.800   6.375
   18G      H1'  560   6.192   9.693   6.389
   18G       N9  561   6.277   9.840   6.500
   18G       C8  562   6.404   9.889   6.515
   18G       H8  563   6.469   9.900   6.428
   18G       N7  564   6.435   9.919   6.638
   18G       C5  565   6.321   9.889   6.711
   18G       C6  566   6.295   9.902   6.850
   18G       O6  567   6.371   9.943   6.939
   18G       N1  568   6.166   9.860   6.884
   18G       H1  569   6.138   9.865   6.980
   18G       C2  570   6.073   9.812   6.794
   18G       N2  571   5.953   9.777   6.843
   18G      H21  572   5.924   9.781   6.940
   18G      H22  573   5.886   9.742   6.777
   18G       N3  574   6.096   9.801   6.663
   18G       C4  575   6.222   9.840   6.628
   18G      C3'  576   6.180  10.010   6.275
   18G      H3'  577   6.191  10.096   6.340
   18G      C2'  578   6.099   9.902   6.346
   18G      H2'  579   6.060   9.967   6.424
   18G      O2'  580   5.992   9.853   6.268
   18G     HO2'  581   5.934   9.804   6.327
   18G      O3'  582   6.099  10.109   6.214
   19A        P  583   6.134  10.265   6.233
   19A      OP1  584   6.071  10.338   6.121
   19A      OP2  585   6.281  10.274   6.255
   19A      O5'  586   6.062  10.310   6.369
   19A      C5'  587   6.108  10.426   6.442
   19A      H5'  588   6.133  10.505   6.372
   19A     H5''  589   6.196  10.397   6.498
   19A      C4'  590   6.002  10.477   6.538
   19A      H4'  591   6.033  10.571   6.583
   19A      O4'  592   5.885  10.511   6.460
   19A      C1'  593   5.766  10.464   6.523
   19A      H1'  594   5.689  10.540   6.533
   19A       N9  595   5.700  10.361   6.439
   19A       C8  596   5.751  10.299   6.328
   19A       H8  597   5.853  10.320   6.298
   19A       N7  598   5.670  10.213   6.270
   19A       C5  599   5.556  10.218   6.349
   19A       C6  600   5.431  10.150   6.342
   19A       N6  601   5.402  10.060   6.247
   19A      H61  602   5.312  10.015   6.247
   19A      H62  603   5.470  10.037   6.176
   19A       N1  604   5.338  10.178   6.436
   19A       C2  605   5.367  10.269   6.531
   19A       H2  606   5.295  10.293   6.608
   19A       N3  607   5.480  10.338   6.548
   19A       C4  608   5.572  10.309   6.453
   19A      C3'  609   5.949  10.376   6.641
   19A      H3'  610   5.953  10.268   6.652
   19A      C2'  611   5.806  10.424   6.664
   19A      H2'  612   5.767  10.337   6.717
   19A      O2'  613   5.804  10.536   6.749
   19A     HO2'  614   5.712  10.551   6.774
   19A      O3'  615   6.022  10.371   6.765
   20A        P  616   6.066  10.230   6.829
   20A      OP1  617   6.127  10.256   6.961
   20A      OP2  618   6.144  10.156   6.726
   20A      O5'  619   5.928  10.150   6.852
   20A      C5'  620   5.851  10.177   6.968
   20A      H5'  621   5.855  10.284   6.989
   20A     H5''  622   5.893  10.122   7.052
   20A      C4'  623   5.706  10.137   6.950
   20A      H4'  624   5.642  10.201   7.010
   20A      O4'  625   5.664  10.160   6.813
   20A      C1'  626   5.569  10.062   6.775
   20A      H1'  627   5.473  10.104   6.748
   20A       N9  628   5.613   9.998   6.650
   20A       C8  629   5.738  10.000   6.597
   20A       H8  630   5.817  10.049   6.651
   20A       N7  631   5.750   9.935   6.484
   20A       C5  632   5.623   9.886   6.461
   20A       C6  633   5.569   9.807   6.356
   20A       N6  634   5.641   9.764   6.252
   20A      H61  635   5.598   9.708   6.180
   20A      H62  636   5.739   9.787   6.246
   20A       N1  637   5.438   9.775   6.363
   20A       C2  638   5.366   9.818   6.468
   20A       H2  639   5.261   9.794   6.476
   20A       N3  640   5.406   9.893   6.572
   20A       C4  641   5.537   9.923   6.562
   20A      C3'  642   5.680   9.989   6.974
   20A      H3'  643   5.733   9.895   6.988
   20A      C2'  644   5.554   9.964   6.891
   20A      H2'  645   5.568   9.856   6.884
   20A      O2'  646   5.434   9.992   6.959
   20A     HO2'  647   5.363   9.951   6.909
   20A      O3'  648   5.658   9.969   7.113
   21A        P  649   5.709   9.838   7.189
   21A      OP1  650   5.681   9.860   7.332
   21A      OP2  651   5.848   9.808   7.145
   21A      O5'  652   5.613   9.721   7.133
   21A      C5'  653   5.474   9.713   7.169
   21A      H5'  654   5.433   9.814   7.165
   21A     H5''  655   5.466   9.674   7.271
   21A      C4'  656   5.395   9.622   7.076
   21A      H4'  657   5.290   9.623   7.106
   21A      O4'  658   5.394   9.677   6.941
   21A      C1'  659   5.412   9.574   6.845
   21A      H1'  660   5.340   9.582   6.764
   21A       N9  661   5.542   9.589   6.778
   21A       C8  662   5.654   9.651   6.826
   21A       H8  663   5.654   9.690   6.927
   21A       N7  664   5.756   9.650   6.744
   21A       C5  665   5.709   9.583   6.632
   21A       C6  666   5.769   9.548   6.509
   21A       N6  667   5.896   9.578   6.476
   21A      H61  668   5.932   9.551   6.386
   21A      H62  669   5.954   9.628   6.541
   21A       N1  670   5.694   9.481   6.419
   21A       C2  671   5.566   9.450   6.451
   21A       H2  672   5.504   9.396   6.381
   21A       N3  673   5.499   9.477   6.563
   21A       C4  674   5.577   9.545   6.651
   21A      C3'  675   5.451   9.482   7.059
   21A      H3'  676   5.541   9.425   7.082
   21A      C2'  677   5.398   9.442   6.921
   21A      H2'  678   5.467   9.358   6.907
   21A      O2'  679   5.265   9.394   6.922
   21A     HO2'  680   5.249   9.351   6.838
   21A      O3'  681   5.405   9.394   7.163
   22C        P  682   5.510   9.322   7.261
   22C      OP1  683   5.434   9.228   7.346
   22C      OP2  684   5.592   9.429   7.321
   22C      O5'  685   5.606   9.236   7.165
   22C      C5'  686   5.556   9.130   7.085
   22C      H5'  687   5.448   9.139   7.076
   22C     H5''  688   5.580   9.034   7.132
   22C      C4'  689   5.619   9.135   6.946
   22C      H4'  690   5.543   9.103   6.874
   22C      O4'  691   5.652   9.271   6.908
   22C      C1'  692   5.765   9.271   6.824
   22C      H1'  693   5.741   9.328   6.734
   22C       N1  694   5.878   9.349   6.886
   22C       C6  695   5.870   9.390   7.017
   22C       H6  696   5.782   9.366   7.075
   22C       C5  697   5.969   9.459   7.075
   22C       H5  698   5.960   9.490   7.179
   22C       C4  699   6.084   9.488   6.995
   22C       N4  700   6.186   9.557   7.046
   22C      H41  701   6.265   9.576   6.986
   22C      H42  702   6.182   9.589   7.142
   22C       N3  703   6.093   9.450   6.867
   22C       C2  704   5.992   9.380   6.809
   22C       O2  705   5.999   9.343   6.691
   22C      C3'  706   5.751   9.062   6.931
   22C      H3'  707   5.836   9.025   6.990
   22C      C2'  708   5.801   9.124   6.802
   22C      H2'  709   5.903   9.084   6.806
   22C      O2'  710   5.736   9.076   6.686
   22C     HO2'  711   5.788   9.105   6.611
   22C      O3'  712   5.729   8.923   6.918
   23G        P  713   5.842   8.815   6.957
   23G      OP1  714   5.772   8.685   6.962
   23G      OP2  715   5.917   8.863   7.076
   23G      O5'  716   5.943   8.820   6.832
   23G      C5'  717   5.904   8.770   6.703
   23G      H5'  718   5.804   8.807   6.681
   23G     H5''  719   5.902   8.662   6.707
   23G      C4'  720   5.998   8.815   6.592
   23G      H4'  721   5.950   8.793   6.497
   23G      O4'  722   6.013   8.959   6.592
   23G      C1'  723   6.144   8.993   6.548
   23G      H1'  724   6.137   9.069   6.470
   23G       N9  725   6.215   9.062   6.656
   23G       C8  726   6.174   9.077   6.787
   23G       H8  727   6.079   9.034   6.819
   23G       N7  728   6.257   9.143   6.862
   23G       C5  729   6.361   9.176   6.775
   23G       C6  730   6.480   9.248   6.799
   23G       O6  731   6.517   9.298   6.906
   23G       N1  732   6.560   9.259   6.685
   23G       H1  733   6.646   9.309   6.692
   23G       C2  734   6.528   9.206   6.562
   23G       N2  735   6.616   9.226   6.462
   23G      H21  736   6.703   9.277   6.468
   23G      H22  737   6.592   9.188   6.372
   23G       N3  738   6.416   9.138   6.538
   23G       C4  739   6.337   9.127   6.648
   23G      C3'  740   6.142   8.766   6.600
   23G      H3'  741   6.214   8.732   6.674
   23G      C2'  742   6.210   8.863   6.504
   23G      H2'  743   6.314   8.836   6.526
   23G      O2'  744   6.182   8.838   6.368
   23G     HO2'  745   6.243   8.892   6.316
   23G      O3'  746   6.155   8.631   6.557
   24C        P  747   6.237   8.527   6.647
   24C      OP1  748   6.213   8.392   6.589
   24C      OP2  749   6.206   8.552   6.790
   24C      O5'  750   6.390   8.568   6.623
   24C      C5'  751   6.453   8.544   6.497
   24C      H5'  752   6.380   8.553   6.417
   24C     H5''  753   6.493   8.442   6.499
   24C      C4'  754   6.567   8.642   6.473
   24C      H4'  755   6.589   8.644   6.367
   24C      O4'  756   6.525   8.777   6.505
   24C      C1'  757   6.637   8.849   6.556
   24C      H1'  758   6.644   8.943   6.502
   24C       N1  759   6.611   8.892   6.699
   24C       C6  760   6.502   8.844   6.767
   24C       H6  761   6.434   8.776   6.718
   24C       C5  762   6.478   8.880   6.894
   24C       H5  763   6.390   8.841   6.945
   24C       C4  764   6.570   8.971   6.956
   24C       N4  765   6.552   9.011   7.082
   24C      H41  766   6.620   9.074   7.122
   24C      H42  767   6.472   8.978   7.135
   24C       N3  768   6.677   9.017   6.891
   24C       C2  769   6.701   8.980   6.762
   24C       O2  770   6.800   9.022   6.701
   24C      C3'  771   6.690   8.622   6.561
   24C      H3'  772   6.719   8.579   6.656
   24C      C2'  773   6.758   8.757   6.543
   24C      H2'  774   6.834   8.746   6.621
   24C      O2'  775   6.821   8.774   6.417
   24C     HO2'  776   6.876   8.852   6.423
   24C      O3'  777   6.770   8.515   6.515
   25C        P  778   6.808   8.397   6.616
   25C      OP1  779   6.777   8.269   6.548
   25C      OP2  780   6.746   8.424   6.748
   25C      O5'  781   6.967   8.409   6.633
   25C      C5'  782   7.048   8.490   6.547
   25C      H5'  783   6.983   8.551   6.483
   25C     H5''  784   7.108   8.424   6.485
   25C      C4'  785   7.139   8.581   6.627
   25C      H4'  786   7.215   8.622   6.560
   25C      O4'  787   7.066   8.697   6.674
   25C      C1'  788   7.129   8.746   6.792
   25C      H1'  789   7.163   8.848   6.773
   25C       N1  790   7.028   8.763   6.902
   25C       C6  791   6.904   8.705   6.891
   25C       H6  792   6.880   8.648   6.803
   25C       C5  793   6.811   8.717   6.988
   25C       H5  794   6.714   8.669   6.976
   25C       C4  795   6.847   8.793   7.104
   25C       N4  796   6.759   8.809   7.204
   25C      H41  797   6.788   8.864   7.283
   25C      H42  798   6.667   8.767   7.198
   25C       N3  799   6.967   8.851   7.116
   25C       C2  800   7.060   8.837   7.018
   25C       O2  801   7.171   8.890   7.028
   25C      C3'  802   7.197   8.523   6.755
   25C      H3'  803   7.178   8.444   6.828
   25C      C2'  804   7.242   8.649   6.827
   25C      H2'  805   7.254   8.604   6.926
   25C      O2'  806   7.368   8.698   6.783
   25C     HO2'  807   7.397   8.763   6.847
   25C      O3'  808   7.305   8.435   6.728
   26A        P  809   7.333   8.308   6.820
   26A      OP1  810   7.418   8.217   6.740
   26A      OP2  811   7.204   8.258   6.874
   26A      O5'  812   7.419   8.365   6.942
   26A      C5'  813   7.546   8.427   6.919
   26A      H5'  814   7.540   8.501   6.839
   26A     H5''  815   7.616   8.348   6.891
   26A      C4'  816   7.594   8.493   7.046
   26A      H4'  817   7.693   8.538   7.031
   26A      O4'  818   7.509   8.605   7.078
   26A      C1'  819   7.509   8.625   7.219
   26A      H1'  820   7.559   8.718   7.249
   26A       N9  821   7.372   8.645   7.264
   26A       C8  822   7.258   8.607   7.198
   26A       H8  823   7.265   8.552   7.105
   26A       N7  824   7.147   8.638   7.262
   26A       C5  825   7.191   8.700   7.378
   26A       C6  826   7.122   8.757   7.487
   26A       N6  827   6.988   8.758   7.497
   26A      H61  828   6.944   8.800   7.577
   26A      H62  829   6.932   8.718   7.423
   26A       N1  830   7.196   8.811   7.587
   26A       C2  831   7.330   8.809   7.577
   26A       H2  832   7.391   8.852   7.655
   26A       N3  833   7.406   8.759   7.479
   26A       C4  834   7.330   8.705   7.381
   26A      C3'  835   7.584   8.406   7.169
   26A      H3'  836   7.539   8.311   7.200
   26A      C2'  837   7.578   8.505   7.284
   26A      H2'  838   7.530   8.438   7.354
   26A      O2'  839   7.705   8.543   7.333
   26A     HO2'  840   7.690   8.586   7.418
   26A      O3'  841   7.699   8.325   7.175
   27G        P  842   7.686   8.167   7.201
   27G      OP1  843   7.805   8.105   7.138
   27G      OP2  844   7.550   8.123   7.164
   27G      O5'  845   7.696   8.155   7.360
   27G      C5'  846   7.822   8.135   7.424
   27G      H5'  847   7.908   8.169   7.365
   27G     H5''  848   7.830   8.028   7.441
   27G      C4'  849   7.823   8.207   7.557
   27G      H4'  850   7.923   8.239   7.587
   27G      O4'  851   7.749   8.330   7.541
   27G      C1'  852   7.674   8.358   7.660
   27G      H1'  853   7.699   8.460   7.691
   27G       N9  854   7.530   8.364   7.634
   27G       C8  855   7.455   8.298   7.538
   27G       H8  856   7.502   8.231   7.468
   27G       N7  857   7.328   8.327   7.544
   27G       C5  858   7.317   8.417   7.650
   27G       C6  859   7.205   8.484   7.705
   27G       O6  860   7.087   8.478   7.670
   27G       N1  861   7.240   8.567   7.813
   27G       H1  862   7.167   8.618   7.858
   27G       C2  863   7.367   8.582   7.861
   27G       N2  864   7.384   8.665   7.965
   27G      H21  865   7.312   8.719   8.012
   27G      H22  866   7.478   8.676   8.000
   27G       N3  867   7.473   8.521   7.811
   27G       C4  868   7.441   8.440   7.706
   27G      C3'  869   7.744   8.138   7.668
   27G      H3'  870   7.659   8.071   7.665
   27G      C2'  871   7.714   8.255   7.764
   27G      H2'  872   7.643   8.203   7.828
   27G      O2'  873   7.823   8.302   7.842
   27G     HO2'  874   7.787   8.361   7.908
   27G      O3'  875   7.803   8.021   7.732
   28A        P  876   7.957   7.991   7.763
   28A      OP1  877   8.031   8.118   7.781
   28A      OP2  878   8.000   7.889   7.666
   28A      O5'  879   7.954   7.916   7.903
   28A      C5'  880   7.886   7.969   8.014
   28A      H5'  881   7.803   8.029   7.976
   28A     H5''  882   7.951   8.032   8.075
   28A      C4'  883   7.831   7.857   8.100
   28A      H4'  884   7.801   7.901   8.195
   28A      O4'  885   7.709   7.806   8.042
   28A      C1'  886   7.717   7.666   8.021
   28A      H1'  887   7.664   7.606   8.095
   28A       N9  888   7.645   7.639   7.897
   28A       C8  889   7.670   7.695   7.774
   28A       H8  890   7.753   7.762   7.760
   28A       N7  891   7.588   7.652   7.681
   28A       C5  892   7.505   7.564   7.748
   28A       C6  893   7.396   7.486   7.706
   28A       N6  894   7.353   7.485   7.579
   28A      H61  895   7.275   7.428   7.553
   28A      H62  896   7.400   7.542   7.510
   28A       N1  897   7.334   7.408   7.797
   28A       C2  898   7.377   7.410   7.924
   28A       H2  899   7.330   7.349   8.000
   28A       N3  900   7.478   7.480   7.975
   28A       C4  901   7.538   7.555   7.881
   28A      C3'  902   7.921   7.735   8.118
   28A      H3'  903   8.025   7.710   8.143
   28A      C2'  904   7.866   7.633   8.018
   28A      H2'  905   7.933   7.662   7.936
   28A      O2'  906   7.890   7.498   8.052
   28A     HO2'  907   7.872   7.446   7.973
   28A      O3'  908   7.909   7.693   8.253
   29U        P  909   8.038   7.650   8.337
   29U      OP1  910   8.039   7.733   8.460
   29U      OP2  911   8.156   7.645   8.248
   29U      O5'  912   8.004   7.499   8.376
   29U      C5'  913   7.874   7.467   8.420
   29U      H5'  914   7.830   7.391   8.355
   29U     H5''  915   7.815   7.558   8.416
   29U      C4'  916   7.876   7.415   8.562
   29U      H4'  917   7.873   7.306   8.559
   29U      O4'  918   7.998   7.447   8.635
   29U      C1'  919   7.968   7.446   8.774
   29U      H1'  920   8.032   7.375   8.826
   29U       N1  921   8.001   7.578   8.841
   29U       C6  922   8.032   7.689   8.764
   29U       H6  923   8.027   7.678   8.656
   29U       C5  924   8.061   7.810   8.815
   29U       H5  925   8.086   7.895   8.751
   29U       C4  926   8.061   7.827   8.959
   29U       O4  927   8.086   7.932   9.017
   29U       N3  928   8.029   7.712   9.031
   29U       H3  929   8.029   7.723   9.139
   29U       C2  930   7.998   7.587   8.980
   29U       O2  931   7.971   7.493   9.054
   29U      C3'  932   7.772   7.477   8.652
   29U      H3'  933   7.720   7.571   8.673
   29U      C2'  934   7.818   7.414   8.784
   29U      H2'  935   7.749   7.466   8.851
   29U      O2'  936   7.796   7.274   8.791
   29U     HO2'  937   7.812   7.248   8.882
   29U      O3'  938   7.641   7.440   8.615
   30G        P  939   7.522   7.541   8.643
   30G      OP1  940   7.568   7.638   8.745
   30G      OP2  941   7.398   7.464   8.668
   30G      O5'  942   7.505   7.614   8.502
   30G      C5'  943   7.551   7.746   8.496
   30G      H5'  944   7.652   7.748   8.537
   30G     H5''  945   7.486   7.810   8.556
   30G      C4'  946   7.554   7.796   8.355
   30G      H4'  947   7.654   7.787   8.312
   30G      O4'  948   7.471   7.714   8.269
   30G      C1'  949   7.408   7.801   8.179
   30G      H1'  950   7.477   7.816   8.095
   30G       N9  951   7.294   7.735   8.119
   30G       C8  952   7.201   7.656   8.182
   30G       H8  953   7.206   7.635   8.287
   30G       N7  954   7.109   7.614   8.099
   30G       C5  955   7.144   7.667   7.976
   30G       C6  956   7.083   7.656   7.849
   30G       O6  957   6.981   7.593   7.821
   30G       N1  958   7.151   7.726   7.749
   30G       H1  959   7.115   7.725   7.655
   30G       C2  960   7.265   7.798   7.772
   30G       N2  961   7.320   7.860   7.668
   30G      H21  962   7.286   7.859   7.572
   30G      H22  963   7.404   7.912   7.685
   30G       N3  964   7.323   7.810   7.890
   30G       C4  965   7.258   7.742   7.987
   30G      C3'  966   7.501   7.938   8.344
   30G      H3'  967   7.498   8.032   8.399
   30G      C2'  968   7.370   7.921   8.267
   30G      H2'  969   7.304   7.910   8.353
   30G      O2'  970   7.334   8.036   8.193
   30G     HO2'  971   7.243   8.024   8.165
   30G      O3'  972   7.596   8.016   8.275
   31C        P  973   7.696   8.111   8.355
   31C      OP1  974   7.777   8.181   8.254
   31C      OP2  975   7.761   8.031   8.461
   31C      O5'  976   7.593   8.218   8.419
   31C      C5'  977   7.610   8.282   8.545
   31C      H5'  978   7.693   8.352   8.538
   31C     H5''  979   7.634   8.206   8.620
   31C      C4'  980   7.484   8.356   8.588
   31C      H4'  981   7.506   8.408   8.681
   31C      O4'  982   7.452   8.462   8.494
   31C      C1'  983   7.311   8.485   8.493
   31C      H1'  984   7.298   8.593   8.506
   31C       N1  985   7.253   8.459   8.356
   31C       C6  986   7.330   8.404   8.257
   31C       H6  987   7.434   8.382   8.277
   31C       C5  988   7.280   8.376   8.136
   31C       H5  989   7.345   8.334   8.059
   31C       C4  990   7.142   8.405   8.114
   31C       N4  991   7.086   8.381   7.996
   31C      H41  992   6.988   8.404   7.986
   31C      H42  993   7.141   8.342   7.921
   31C       N3  994   7.065   8.458   8.210
   31C       C2  995   7.116   8.486   8.332
   31C       O2  996   7.045   8.533   8.421
   31C      C3'  997   7.356   8.274   8.592
   31C      H3'  998   7.312   8.183   8.550
   31C      C2'  999   7.252   8.385   8.593
   31C      H2' 1000   7.168   8.320   8.570
   31C      O2' 1001   7.231   8.445   8.720
   31C     HO2' 1002   7.149   8.495   8.715
   31C      O3' 1003   7.349   8.189   8.706
   32C        P 1004   7.259   8.056   8.702
   32C      OP1 1005   7.301   7.966   8.812
   32C      OP2 1006   7.255   8.001   8.564
   32C      O5' 1007   7.115   8.115   8.738
   32C      C5' 1008   7.084   8.176   8.865
   32C      H5' 1009   7.142   8.267   8.883
   32C     H5'' 1010   7.107   8.103   8.942
   32C      C4' 1011   6.937   8.208   8.868
   32C      H4' 1012   6.906   8.258   8.960
   32C      O4' 1013   6.911   8.306   8.764
   32C      C1' 1014   6.787   8.281   8.699
   32C      H1' 1015   6.731   8.374   8.701
   32C       N1 1016   6.804   8.251   8.551
   32C       C6 1017   6.928   8.222   8.499
   32C       H6 1018   7.014   8.222   8.565
   32C       C5 1019   6.945   8.195   8.369
   32C       H5 1020   7.045   8.173   8.332
   32C       C4 1021   6.829   8.196   8.286
   32C       N4 1022   6.839   8.170   8.155
   32C      H41 1023   6.754   8.172   8.101
   32C      H42 1024   6.929   8.149   8.114
   32C       N3 1025   6.708   8.223   8.335
   32C       C2 1026   6.691   8.251   8.467
   32C       O2 1027   6.578   8.275   8.512
   32C      C3' 1028   6.847   8.092   8.828
   32C      H3' 1029   6.858   7.995   8.780
   32C      C2' 1030   6.724   8.162   8.772
   32C      H2' 1031   6.683   8.076   8.720
   32C      O2' 1032   6.634   8.203   8.873
   32C     HO2' 1033   6.551   8.226   8.830
   32C      O3' 1034   6.811   8.005   8.934
   33U        P 1035   6.791   7.849   8.897
   33U      OP1 1036   6.863   7.770   9.001
   33U      OP2 1037   6.830   7.833   8.756
   33U      O5' 1038   6.635   7.816   8.908
   33U      C5' 1039   6.536   7.911   8.943
   33U      H5' 1040   6.575   8.012   8.927
   33U     H5'' 1041   6.511   7.898   9.048
   33U      C4' 1042   6.410   7.893   8.859
   33U      H4' 1043   6.324   7.923   8.919
   33U      O4' 1044   6.411   7.984   8.747
   33U      C1' 1045   6.341   7.925   8.638
   33U      H1' 1046   6.258   7.988   8.605
   33U       N1 1047   6.429   7.917   8.515
   33U       C6 1048   6.568   7.922   8.528
   33U       H6 1049   6.610   7.925   8.627
   33U       C5 1050   6.651   7.917   8.422
   33U       H5 1051   6.760   7.919   8.436
   33U       C4 1052   6.597   7.907   8.289
   33U       O4 1053   6.661   7.901   8.184
   33U       N3 1054   6.459   7.902   8.283
   33U       H3 1055   6.415   7.894   8.183
   33U       C2 1056   6.371   7.907   8.389
   33U       O2 1057   6.251   7.902   8.369
   33U      C3' 1058   6.393   7.757   8.792
   33U      H3' 1059   6.455   7.676   8.754
   33U      C2' 1060   6.287   7.792   8.689
   33U      H2' 1061   6.287   7.698   8.634
   33U      O2' 1062   6.159   7.815   8.744
   33U     HO2' 1063   6.097   7.819   8.671
   33U      O3' 1064   6.352   7.657   8.885
   34U        P 1065   6.418   7.510   8.880
   34U      OP1 1066   6.387   7.438   9.006
   34U      OP2 1067   6.559   7.521   8.837
   34U      O5' 1068   6.334   7.443   8.763
   34U      C5' 1069   6.195   7.417   8.780
   34U      H5' 1070   6.141   7.496   8.832
   34U     H5'' 1071   6.187   7.324   8.836
   34U      C4' 1072   6.135   7.397   8.643
   34U      H4' 1073   6.026   7.399   8.644
   34U      O4' 1074   6.171   7.508   8.557
   34U      C1' 1075   6.165   7.465   8.423
   34U      H1' 1076   6.086   7.519   8.369
   34U       N1 1077   6.289   7.506   8.350
   34U       C6 1078   6.405   7.534   8.419
   34U       H6 1079   6.406   7.523   8.527
   34U       C5 1080   6.518   7.570   8.357
   34U       H5 1081   6.608   7.594   8.414
   34U       C4 1082   6.521   7.577   8.213
   34U       O4 1083   6.619   7.608   8.145
   34U       N3 1084   6.402   7.547   8.150
   34U       H3 1085   6.402   7.553   8.041
   34U       C2 1086   6.284   7.512   8.211
   34U       O2 1087   6.184   7.487   8.146
   34U      C3' 1088   6.194   7.281   8.568
   34U      H3' 1089   6.279   7.212   8.565
   34U      C2' 1090   6.149   7.312   8.426
   34U      H2' 1091   6.221   7.246   8.378
   34U      O2' 1092   6.017   7.266   8.398
   34U     HO2' 1093   6.007   7.268   8.303
   34U      O3' 1094   6.140   7.159   8.617
   35G        P 1095   6.236   7.033   8.634
   35G      OP1 1096   6.152   6.910   8.648
   35G      OP2 1097   6.336   7.065   8.737
   35G      O5' 1098   6.311   7.029   8.492
   35G      C5' 1099   6.254   6.969   8.375
   35G      H5' 1100   6.164   7.024   8.346
   35G     H5'' 1101   6.228   6.865   8.394
   35G      C4' 1102   6.355   6.975   8.262
   35G      H4' 1103   6.304   6.970   8.166
   35G      O4' 1104   6.422   7.105   8.260
   35G      C1' 1105   6.562   7.081   8.259
   35G      H1' 1106   6.588   7.076   8.153
   35G       N9 1107   6.644   7.193   8.309
   35G       C8 1108   6.657   7.235   8.439
   35G       H8 1109   6.602   7.188   8.519
   35G       N7 1110   6.740   7.335   8.452
   35G       C5 1111   6.785   7.359   8.323
   35G       C6 1112   6.876   7.456   8.275
   35G       O6 1113   6.936   7.540   8.341
   35G       N1 1114   6.895   7.449   8.137
   35G       H1 1115   6.959   7.513   8.094
   35G       C2 1116   6.832   7.359   8.054
   35G       N2 1117   6.862   7.365   7.924
   35G      H21 1118   6.924   7.430   7.878
   35G      H22 1119   6.814   7.299   7.864
   35G       N3 1120   6.747   7.268   8.099
   35G       C4 1121   6.727   7.273   8.233
   35G      C3' 1122   6.468   6.873   8.275
   35G      H3' 1123   6.482   6.767   8.297
   35G      C2' 1124   6.580   6.953   8.339
   35G      H2' 1125   6.553   6.943   8.444
   35G      O2' 1126   6.707   6.897   8.317
   35G     HO2' 1127   6.769   6.945   8.373
   35G      O3' 1128   6.505   6.830   8.146
   36U        P 1129   6.465   6.684   8.101
   36U      OP1 1130   6.318   6.673   8.100
   36U      OP2 1131   6.545   6.590   8.181
   36U      O5' 1132   6.513   6.678   7.948
   36U      C5' 1133   6.463   6.766   7.847
   36U      H5' 1134   6.440   6.862   7.893
   36U     H5'' 1135   6.374   6.725   7.802
   36U      C4' 1136   6.569   6.787   7.740
   36U      H4' 1137   6.520   6.828   7.652
   36U      O4' 1138   6.658   6.893   7.785
   36U      C1' 1139   6.792   6.855   7.764
   36U      H1' 1140   6.829   6.878   7.664
   36U       N1 1141   6.878   6.943   7.853
   36U       C6 1142   6.856   6.944   7.990
   36U       H6 1143   6.781   6.878   8.030
   36U       C5 1144   6.927   7.019   8.075
   36U       H5 1145   6.910   7.018   8.182
   36U       C4 1146   7.031   7.104   8.021
   36U       O4 1147   7.102   7.177   8.089
   36U       N3 1148   7.047   7.099   7.883
   36U       H3 1149   7.126   7.162   7.841
   36U       C2 1150   6.976   7.023   7.794
   36U       O2 1151   6.998   7.027   7.674
   36U      C3' 1152   6.663   6.670   7.706
   36U      H3' 1153   6.659   6.563   7.688
   36U      C2' 1154   6.788   6.705   7.788
   36U      H2' 1155   6.760   6.659   7.883
   36U      O2' 1156   6.905   6.642   7.738
   36U     HO2' 1157   6.974   6.655   7.804
   36U      O3' 1158   6.692   6.671   7.564
   37A        P 1159   6.588   6.624   7.452
   37A      OP1 1160   6.497   6.735   7.424
   37A      OP2 1161   6.532   6.496   7.495
   37A      O5' 1162   6.677   6.602   7.321
   37A      C5' 1163   6.640   6.664   7.198
   37A      H5' 1164   6.601   6.763   7.219
   37A     H5'' 1165   6.565   6.605   7.147
   37A      C4' 1166   6.763   6.676   7.109
   37A      H4' 1167   6.730   6.700   7.008
   37A      O4' 1168   6.844   6.790   7.149
   37A      C1' 1169   6.981   6.753   7.149
   37A      H1' 1170   7.044   6.829   7.103
   37A       N9 1171   7.034   6.743   7.286
   37A       C8 1172   6.962   6.749   7.402
   37A       H8 1173   6.854   6.757   7.398
   37A       N7 1174   7.034   6.738   7.510
   37A       C5 1175   7.164   6.725   7.463
   37A       C6 1176   7.289   6.710   7.527
   37A       N6 1177   7.305   6.707   7.660
   37A      H61 1178   7.397   6.696   7.700
   37A      H62 1179   7.224   6.715   7.720
   37A       N1 1180   7.399   6.698   7.450
   37A       C2 1181   7.386   6.703   7.318
   37A       H2 1182   7.472   6.694   7.252
   37A       N3 1183   7.274   6.718   7.247
   37A       C4 1184   7.165   6.728   7.325
   37A      C3' 1185   6.857   6.557   7.114
   37A      H3' 1186   6.877   6.471   7.178
   37A      C2' 1187   6.988   6.622   7.073
   37A      H2' 1188   7.056   6.539   7.095
   37A      O2' 1189   6.994   6.651   6.935
   37A     HO2' 1190   7.085   6.675   6.915
   37A      O3' 1191   6.814   6.457   7.023
   38A        P 1192   6.823   6.301   7.057
   38A      OP1 1193   6.768   6.228   6.940
   38A      OP2 1194   6.764   6.279   7.191
   38A      O5' 1195   6.978   6.267   7.068
   38A      C5' 1196   7.066   6.272   6.956
   38A      H5' 1197   7.049   6.360   6.894
   38A     H5'' 1198   7.050   6.182   6.896
   38A      C4' 1199   7.210   6.274   7.006
   38A      H4' 1200   7.280   6.288   6.923
   38A      O4' 1201   7.230   6.391   7.090
   38A      C1' 1202   7.313   6.359   7.201
   38A      H1' 1203   7.394   6.431   7.211
   38A       N9 1204   7.242   6.371   7.329
   38A       C8 1205   7.107   6.379   7.349
   38A       H8 1206   7.039   6.372   7.265
   38A       N7 1207   7.072   6.387   7.476
   38A       C5 1208   7.192   6.386   7.544
   38A       C6 1209   7.226   6.393   7.681
   38A       N6 1210   7.137   6.405   7.781
   38A      H61 1211   7.169   6.410   7.877
   38A      H62 1212   7.038   6.409   7.760
   38A       N1 1213   7.357   6.387   7.714
   38A       C2 1214   7.450   6.377   7.618
   38A       H2 1215   7.555   6.373   7.640
   38A       N3 1216   7.430   6.370   7.487
   38A       C4 1217   7.298   6.375   7.455
   38A      C3' 1218   7.246   6.159   7.098
   38A      H3' 1219   7.197   6.083   7.159
   38A      C2' 1220   7.364   6.217   7.174
   38A      H2' 1221   7.368   6.139   7.251
   38A      O2' 1222   7.486   6.219   7.102
   38A     HO2' 1223   7.556   6.237   7.165
   38A      O3' 1224   7.281   6.042   7.026
   39C        P 1225   7.234   5.897   7.074
   39C      OP1 1226   7.257   5.807   6.960
   39C      OP2 1227   7.099   5.906   7.132
   39C      O5' 1228   7.333   5.858   7.193
   39C      C5' 1229   7.471   5.838   7.175
   39C      H5' 1230   7.513   5.907   7.102
   39C     H5'' 1231   7.486   5.735   7.141
   39C      C4' 1232   7.541   5.857   7.308
   39C      H4' 1233   7.649   5.857   7.293
   39C      O4' 1234   7.513   5.990   7.361
   39C      C1' 1235   7.514   5.988   7.504
   39C      H1' 1236   7.575   6.072   7.535
   39C       N1 1237   7.378   6.021   7.559
   39C       C6 1238   7.268   6.021   7.477
   39C       H6 1239   7.279   6.000   7.371
   39C       C5 1240   7.146   6.048   7.525
   39C       H5 1241   7.060   6.049   7.457
   39C       C4 1242   7.136   6.074   7.665
   39C       N4 1243   7.017   6.101   7.719
   39C      H41 1244   7.014   6.119   7.818
   39C      H42 1245   6.934   6.104   7.661
   39C       N3 1246   7.242   6.073   7.746
   39C       C2 1247   7.366   6.046   7.696
   39C       O2 1248   7.467   6.043   7.769
   39C      C3' 1249   7.494   5.768   7.421
   39C      H3' 1250   7.409   5.708   7.454
   39C      C2' 1251   7.551   5.845   7.542
   39C      H2' 1252   7.499   5.786   7.617
   39C      O2' 1253   7.691   5.834   7.561
   39C     HO2' 1254   7.709   5.867   7.649
   39C      O3' 1255   7.547   5.636   7.407
   40C        P 1256   7.476   5.506   7.468
   40C      OP1 1257   7.547   5.389   7.415
   40C      OP2 1258   7.331   5.517   7.446
   40C      O5' 1259   7.506   5.516   7.626
   40C      C5' 1260   7.636   5.512   7.681
   40C      H5' 1261   7.701   5.592   7.643
   40C     H5'' 1262   7.678   5.415   7.654
   40C      C4' 1263   7.626   5.523   7.831
   40C      H4' 1264   7.724   5.515   7.878
   40C      O4' 1265   7.578   5.655   7.869
   40C      C1' 1266   7.503   5.645   7.989
   40C      H1' 1267   7.546   5.716   8.060
   40C       N1 1268   7.362   5.693   7.971
   40C       C6 1269   7.305   5.702   7.847
   40C       H6 1270   7.363   5.676   7.760
   40C       C5 1271   7.179   5.742   7.831
   40C       H5 1272   7.136   5.747   7.731
   40C       C4 1273   7.106   5.778   7.949
   40C       N4 1274   6.980   5.820   7.942
   40C      H41 1275   6.933   5.844   8.028
   40C      H42 1276   6.934   5.828   7.852
   40C       N3 1277   7.160   5.769   8.070
   40C       C2 1278   7.287   5.726   8.085
   40C       O2 1279   7.339   5.718   8.197
   40C      C3' 1280   7.520   5.434   7.894
   40C      H3' 1281   7.426   5.384   7.871
   40C      C2' 1282   7.511   5.498   8.031
   40C      H2' 1283   7.427   5.443   8.073
   40C      O2' 1284   7.627   5.471   8.106
   40C     HO2' 1285   7.610   5.499   8.196
   40C      O3' 1286   7.563   5.300   7.906
   41G        P 1287   7.459   5.179   7.899
   41G      OP1 1288   7.544   5.059   7.892
   41G      OP2 1289   7.359   5.204   7.794
   41G      O5' 1290   7.384   5.180   8.040
   41G      C5' 1291   7.453   5.143   8.156
   41G      H5' 1292   7.550   5.193   8.167
   41G     H5'' 1293   7.468   5.035   8.154
   41G      C4' 1294   7.366   5.178   8.275
   41G      H4' 1295   7.419   5.160   8.368
   41G      O4' 1296   7.340   5.321   8.274
   41G      C1' 1297   7.220   5.347   8.342
   41G      H1' 1298   7.243   5.426   8.413
   41G       N9 1299   7.124   5.408   8.251
   41G       C8 1300   7.129   5.410   8.114
   41G       H8 1301   7.213   5.366   8.061
   41G       N7 1302   7.026   5.467   8.059
   41G       C5 1303   6.948   5.506   8.167
   41G       C6 1304   6.823   5.572   8.172
   41G       O6 1305   6.755   5.613   8.078
   41G       N1 1306   6.777   5.591   8.302
   41G       H1 1307   6.690   5.639   8.315
   41G       C2 1308   6.843   5.550   8.415
   41G       N2 1309   6.783   5.576   8.532
   41G      H21 1310   6.695   5.623   8.546
   41G      H22 1311   6.832   5.546   8.615
   41G       N3 1312   6.960   5.489   8.412
   41G       C4 1313   7.007   5.470   8.286
   41G      C3' 1314   7.225   5.122   8.272
   41G      H3' 1315   7.146   5.081   8.209
   41G      C2' 1316   7.164   5.208   8.381
   41G      H2' 1317   7.061   5.180   8.362
   41G      O2' 1318   7.202   5.166   8.511
   41G     HO2' 1319   7.143   5.210   8.572
   41G      O3' 1320   7.226   4.987   8.308
   42A        P 1321   7.150   4.876   8.221
   42A      OP1 1322   7.201   4.746   8.269
   42A      OP2 1323   7.154   4.910   8.077
   42A      O5' 1324   7.000   4.891   8.269
   42A      C5' 1325   6.891   4.843   8.193
   42A      H5' 1326   6.906   4.745   8.149
   42A     H5'' 1327   6.870   4.916   8.115
   42A      C4' 1328   6.773   4.838   8.288
   42A      H4' 1329   6.687   4.786   8.245
   42A      O4' 1330   6.810   4.758   8.403
   42A      C1' 1331   6.753   4.813   8.522
   42A      H1' 1332   6.678   4.752   8.573
   42A       N9 1333   6.859   4.828   8.622
   42A       C8 1334   6.993   4.821   8.598
   42A       H8 1335   7.030   4.812   8.497
   42A       N7 1336   7.067   4.833   8.706
   42A       C5 1337   6.976   4.846   8.808
   42A       C6 1338   6.992   4.860   8.948
   42A       N6 1339   7.111   4.865   9.007
   42A      H61 1340   7.117   4.875   9.107
   42A      H62 1341   7.195   4.857   8.952
   42A       N1 1342   6.880   4.871   9.023
   42A       C2 1343   6.760   4.867   8.962
   42A       H2 1344   6.668   4.876   9.019
   42A       N3 1345   6.733   4.853   8.832
   42A       C4 1346   6.846   4.843   8.759
   42A      C3' 1347   6.739   4.971   8.351
   42A      H3' 1348   6.788   5.068   8.365
   42A      C2' 1349   6.669   4.932   8.480
   42A      H2' 1350   6.665   5.028   8.530
   42A      O2' 1351   6.538   4.885   8.458
   42A     HO2' 1352   6.496   4.877   8.543
   42A      O3' 1353   6.653   5.042   8.267
   43A        P 1354   6.668   5.201   8.256
   43A      OP1 1355   6.584   5.245   8.143
   43A      OP2 1356   6.814   5.225   8.260
   43A      O5' 1357   6.598   5.256   8.389
   43A      C5' 1358   6.457   5.250   8.403
   43A      H5' 1359   6.423   5.153   8.366
   43A     H5'' 1360   6.410   5.329   8.344
   43A      C4' 1361   6.417   5.265   8.548
   43A      H4' 1362   6.311   5.239   8.558
   43A      O4' 1363   6.486   5.169   8.634
   43A      C1' 1364   6.519   5.231   8.757
   43A      H1' 1365   6.481   5.178   8.844
   43A       N9 1366   6.664   5.227   8.776
   43A       C8 1367   6.763   5.231   8.681
   43A       H8 1368   6.738   5.245   8.577
   43A       N7 1369   6.885   5.223   8.731
   43A       C5 1370   6.864   5.213   8.868
   43A       C6 1371   6.952   5.200   8.978
   43A       N6 1372   7.084   5.195   8.963
   43A      H61 1373   7.144   5.186   9.044
   43A      H62 1374   7.125   5.201   8.871
   43A       N1 1375   6.899   5.191   9.104
   43A       C2 1376   6.765   5.195   9.118
   43A       H2 1377   6.719   5.189   9.216
   43A       N3 1378   6.672   5.206   9.022
   43A       C4 1379   6.728   5.215   8.898
   43A      C3' 1380   6.450   5.400   8.608
   43A      H3' 1381   6.512   5.487   8.588
   43A      C2' 1382   6.453   5.368   8.757
   43A      H2' 1383   6.500   5.460   8.791
   43A      O2' 1384   6.323   5.358   8.813
   43A     HO2' 1385   6.334   5.357   8.908
   43A      O3' 1386   6.348   5.490   8.576
   44A        P 1387   6.386   5.643   8.553
   44A      OP1 1388   6.271   5.709   8.489
   44A      OP2 1389   6.521   5.648   8.493
   44A      O5' 1390   6.392   5.703   8.700
   44A      C5' 1391   6.280   5.693   8.788
   44A      H5' 1392   6.233   5.595   8.786
   44A     H5'' 1393   6.207   5.770   8.760
   44A      C4' 1394   6.331   5.722   8.927
   44A      H4' 1395   6.252   5.718   9.002
   44A      O4' 1396   6.422   5.617   8.965
   44A      C1' 1397   6.523   5.669   9.047
   44A      H1' 1398   6.528   5.621   9.144
   44A       N9 1399   6.652   5.637   8.988
   44A       C8 1400   6.690   5.645   8.856
   44A       H8 1401   6.622   5.683   8.781
   44A       N7 1402   6.814   5.608   8.836
   44A       C5 1403   6.860   5.574   8.963
   44A       C6 1404   6.984   5.527   9.011
   44A       N6 1405   7.089   5.506   8.931
   44A      H61 1406   7.175   5.473   8.970
   44A      H62 1407   7.081   5.524   8.832
   44A       N1 1408   6.996   5.502   9.143
   44A       C2 1409   6.890   5.522   9.223
   44A       H2 1410   6.895   5.503   9.329
   44A       N3 1411   6.769   5.567   9.189
   44A       C4 1412   6.761   5.591   9.057
   44A      C3' 1413   6.415   5.847   8.936
   44A      H3' 1414   6.464   5.920   8.871
   44A      C2' 1415   6.503   5.820   9.057
   44A      H2' 1416   6.580   5.892   9.032
   44A      O2' 1417   6.442   5.856   9.179
   44A     HO2' 1418   6.511   5.857   9.246
   44A      O3' 1419   6.331   5.959   8.953
   45G        P 1420   6.369   6.099   8.886
   45G      OP1 1421   6.281   6.197   8.951
   45G      OP2 1422   6.371   6.084   8.739
   45G      O5' 1423   6.518   6.123   8.940
   45G      C5' 1424   6.617   6.194   8.871
   45G      H5' 1425   6.628   6.297   8.908
   45G     H5'' 1426   6.595   6.196   8.764
   45G      C4' 1427   6.747   6.119   8.894
   45G      H4' 1428   6.767   6.110   9.001
   45G      O4' 1429   6.735   5.982   8.848
   45G      C1' 1430   6.852   5.940   8.779
   45G      H1' 1431   6.871   5.837   8.807
   45G       N9 1432   6.824   5.932   8.635
   45G       C8 1433   6.706   5.967   8.571
   45G       H8 1434   6.621   6.003   8.626
   45G       N7 1435   6.713   5.951   8.442
   45G       C5 1436   6.842   5.904   8.419
   45G       C6 1437   6.908   5.870   8.299
   45G       O6 1438   6.864   5.874   8.186
   45G       N1 1439   7.039   5.825   8.317
   45G       H1 1440   7.091   5.798   8.236
   45G       C2 1441   7.101   5.816   8.438
   45G       N2 1442   7.228   5.772   8.436
   45G      H21 1443   7.282   5.744   8.355
   45G      H22 1444   7.274   5.764   8.526
   45G       N3 1445   7.040   5.848   8.553
   45G       C4 1446   6.912   5.892   8.537
   45G      C3' 1447   6.863   6.172   8.815
   45G      H3' 1448   6.884   6.239   8.732
   45G      C2' 1449   6.954   6.050   8.806
   45G      H2' 1450   7.020   6.093   8.731
   45G      O2' 1451   7.030   6.019   8.921
   45G     HO2' 1452   7.097   5.956   8.894
   45G      O3' 1453   6.915   6.287   8.881
   46G        P 1454   6.978   6.407   8.793
   46G      OP1 1455   7.012   6.516   8.886
   46G      OP2 1456   6.887   6.431   8.680
   46G      O5' 1457   7.113   6.344   8.735
   46G      C5' 1458   7.218   6.296   8.818
   46G      H5' 1459   7.185   6.225   8.893
   46G     H5'' 1460   7.262   6.383   8.866
   46G      C4' 1461   7.320   6.230   8.729
   46G      H4' 1462   7.400   6.182   8.785
   46G      O4' 1463   7.256   6.122   8.656
   46G      C1' 1464   7.316   6.109   8.527
   46G      H1' 1465   7.345   6.005   8.516
   46G       N9 1466   7.220   6.130   8.419
   46G       C8 1467   7.091   6.177   8.427
   46G       H8 1468   7.048   6.203   8.523
   46G       N7 1469   7.030   6.184   8.311
   46G       C5 1470   7.127   6.142   8.220
   46G       C6 1471   7.122   6.129   8.078
   46G       O6 1472   7.027   6.156   8.005
   46G       N1 1473   7.242   6.083   8.021
   46G       H1 1474   7.248   6.071   7.922
   46G       C2 1475   7.354   6.052   8.096
   46G       N2 1476   7.461   6.008   8.030
   46G      H21 1477   7.470   5.993   7.931
   46G      H22 1478   7.542   5.985   8.086
   46G       N3 1479   7.360   6.062   8.228
   46G       C4 1480   7.244   6.108   8.284
   46G      C3' 1481   7.370   6.319   8.616
   46G      H3' 1482   7.340   6.408   8.560
   46G      C2' 1483   7.426   6.215   8.521
   46G      H2' 1484   7.438   6.283   8.436
   46G      O2' 1485   7.552   6.164   8.559
   46G     HO2' 1486   7.588   6.117   8.483
   46G      O3' 1487   7.468   6.415   8.657
   47G        P 1488   7.464   6.566   8.601
   47G      OP1 1489   7.595   6.624   8.623
   47G      OP2 1490   7.345   6.634   8.655
   47G      O5' 1491   7.448   6.543   8.443
   47G      C5' 1492   7.561   6.529   8.359
   47G      H5' 1493   7.633   6.459   8.402
   47G     H5'' 1494   7.608   6.626   8.345
   47G      C4' 1495   7.515   6.476   8.225
   47G      H4' 1496   7.437   6.401   8.237
   47G      O4' 1497   7.452   6.584   8.153
   47G      C1' 1498   7.502   6.595   8.021
   47G      H1' 1499   7.418   6.629   7.960
   47G       N9 1500   7.601   6.702   8.006
   47G       C8 1501   7.666   6.771   8.107
   47G       H8 1502   7.644   6.751   8.210
   47G       N7 1503   7.753   6.858   8.062
   47G       C5 1504   7.747   6.846   7.923
   47G       C6 1505   7.816   6.913   7.821
   47G       O6 1506   7.902   7.001   7.833
   47G       N1 1507   7.780   6.873   7.693
   47G       H1 1508   7.824   6.917   7.614
   47G       C2 1509   7.686   6.777   7.666
   47G       N2 1510   7.662   6.748   7.538
   47G      H21 1511   7.705   6.790   7.457
   47G      H22 1512   7.591   6.678   7.520
   47G       N3 1513   7.619   6.715   7.761
   47G       C4 1514   7.653   6.752   7.887
   47G      C3' 1515   7.628   6.430   8.134
   47G      H3' 1516   7.736   6.433   8.127
   47G      C2' 1517   7.567   6.458   7.997
   47G      H2' 1518   7.656   6.442   7.936
   47G      O2' 1519   7.469   6.362   7.964
   47G     HO2' 1520   7.448   6.373   7.871
   47G      O3' 1521   7.657   6.294   8.159
   48G        P 1522   7.807   6.237   8.141
   48G      OP1 1523   7.803   6.097   8.181
   48G      OP2 1524   7.900   6.333   8.205
   48G      O5' 1525   7.835   6.245   7.983
   48G      C5' 1526   7.759   6.166   7.894
   48G      H5' 1527   7.652   6.173   7.915
   48G     H5'' 1528   7.791   6.063   7.905
   48G      C4' 1529   7.785   6.211   7.751
   48G      H4' 1530   7.715   6.164   7.682
   48G      O4' 1531   7.757   6.354   7.738
   48G      C1' 1532   7.846   6.407   7.642
   48G      H1' 1533   7.788   6.461   7.566
   48G       N9 1534   7.928   6.511   7.702
   48G       C8 1535   7.949   6.538   7.835
   48G       H8 1536   7.903   6.480   7.913
   48G       N7 1537   8.029   6.639   7.852
   48G       C5 1538   8.062   6.682   7.724
   48G       C6 1539   8.146   6.787   7.680
   48G       O6 1540   8.210   6.867   7.749
   48G       N1 1541   8.151   6.797   7.540
   48G       H1 1542   8.207   6.868   7.499
   48G       C2 1543   8.084   6.711   7.454
   48G       N2 1544   8.100   6.730   7.321
   48G      H21 1545   8.154   6.802   7.276
   48G      H22 1546   8.049   6.667   7.260
   48G       N3 1547   8.007   6.611   7.496
   48G       C4 1548   8.000   6.604   7.631
   48G      C3' 1549   7.930   6.201   7.709
   48G      H3' 1550   8.030   6.196   7.753
   48G      C2' 1551   7.932   6.294   7.588
   48G      H2' 1552   8.040   6.301   7.577
   48G      O2' 1553   7.875   6.237   7.472
   48G     HO2' 1554   7.898   6.295   7.399
   48G      O3' 1555   7.966   6.069   7.674
   49G        P 1556   8.118   6.018   7.680
   49G      OP1 1557   8.113   5.879   7.631
   49G      OP2 1558   8.177   6.050   7.811
   49G      O5' 1559   8.194   6.114   7.577
   49G      C5' 1560   8.249   6.071   7.455
   49G      H5' 1561   8.178   6.008   7.402
   49G     H5'' 1562   8.340   6.015   7.475
   49G      C4' 1563   8.282   6.193   7.369
   49G      H4' 1564   8.230   6.179   7.274
   49G      O4' 1565   8.226   6.315   7.424
   49G      C1' 1566   8.303   6.425   7.378
   49G      H1' 1567   8.237   6.496   7.328
   49G       N9 1568   8.354   6.501   7.493
   49G       C8 1569   8.338   6.471   7.626
   49G       H8 1570   8.283   6.384   7.658
   49G       N7 1571   8.395   6.559   7.704
   49G       C5 1572   8.453   6.652   7.619
   49G       C6 1573   8.529   6.769   7.644
   49G       O6 1574   8.562   6.818   7.754
   49G       N1 1575   8.570   6.832   7.527
   49G       H1 1576   8.627   6.914   7.536
   49G       C2 1577   8.538   6.792   7.400
   49G       N2 1578   8.584   6.866   7.298
   49G      H21 1579   8.639   6.950   7.303
   49G      H22 1580   8.559   6.835   7.205
   49G       N3 1581   8.466   6.683   7.377
   49G       C4 1582   8.428   6.617   7.488
   49G      C3' 1583   8.428   6.229   7.355
   49G      H3' 1584   8.525   6.221   7.404
   49G      C2' 1585   8.414   6.367   7.291
   49G      H2' 1586   8.519   6.397   7.298
   49G      O2' 1587   8.376   6.362   7.155
   49G     HO2' 1588   8.388   6.450   7.119
   49G      O3' 1589   8.491   6.143   7.265
   50A        P 1590   8.645   6.102   7.280
   50A      OP1 1591   8.658   5.983   7.194
   50A      OP2 1592   8.682   6.097   7.423
   50A      O5' 1593   8.728   6.222   7.214
   50A      C5' 1594   8.709   6.265   7.079
   50A      H5' 1595   8.605   6.274   7.050
   50A     H5'' 1596   8.759   6.194   7.014
   50A      C4' 1597   8.776   6.400   7.066
   50A      H4' 1598   8.760   6.441   6.966
   50A      O4' 1599   8.712   6.495   7.154
   50A      C1' 1600   8.808   6.591   7.198
   50A      H1' 1601   8.782   6.694   7.171
   50A       N9 1602   8.815   6.596   7.345
   50A       C8 1603   8.768   6.504   7.433
   50A       H8 1604   8.723   6.411   7.399
   50A       N7 1605   8.788   6.537   7.557
   50A       C5 1606   8.851   6.661   7.551
   50A       C6 1607   8.899   6.749   7.649
   50A       N6 1608   8.889   6.726   7.780
   50A      H61 1609   8.925   6.794   7.846
   50A      H62 1610   8.845   6.641   7.813
   50A       N1 1611   8.959   6.864   7.609
   50A       C2 1612   8.970   6.888   7.478
   50A       H2 1613   9.019   6.978   7.442
   50A       N3 1614   8.928   6.814   7.376
   50A       C4 1615   8.870   6.699   7.420
   50A      C3' 1616   8.921   6.408   7.113
   50A      H3' 1617   8.983   6.356   7.186
   50A      C2' 1618   8.939   6.558   7.129
   50A      H2' 1619   9.038   6.559   7.175
   50A      O2' 1620   8.942   6.629   7.007
   50A     HO2' 1621   8.969   6.719   7.028
   50A      O3' 1622   9.010   6.354   7.019
   51A        P 1623   9.143   6.276   7.065
   51A      OP1 1624   9.180   6.196   6.947
   51A      OP2 1625   9.121   6.215   7.197
   51A      O5' 1626   9.254   6.390   7.086
   51A      C5' 1627   9.281   6.487   6.986
   51A      H5' 1628   9.188   6.514   6.936
   51A     H5'' 1629   9.350   6.443   6.914
   51A      C4' 1630   9.344   6.611   7.046
   51A      H4' 1631   9.362   6.682   6.966
   51A      O4' 1632   9.250   6.677   7.133
   51A      C1' 1633   9.319   6.736   7.243
   51A      H1' 1634   9.297   6.842   7.256
   51A       N9 1635   9.276   6.677   7.371
   51A       C8 1636   9.218   6.555   7.393
   51A       H8 1637   9.205   6.486   7.310
   51A       N7 1638   9.187   6.531   7.518
   51A       C5 1639   9.228   6.647   7.584
   51A       C6 1640   9.225   6.686   7.719
   51A       N6 1641   9.175   6.608   7.814
   51A      H61 1642   9.174   6.640   7.910
   51A      H62 1643   9.137   6.518   7.791
   51A       N1 1644   9.275   6.808   7.752
   51A       C2 1645   9.325   6.887   7.656
   51A       H2 1646   9.365   6.985   7.677
   51A       N3 1647   9.333   6.859   7.525
   51A       C4 1648   9.283   6.738   7.495
   51A      C3' 1649   9.464   6.587   7.135
   51A      H3' 1650   9.507   6.509   7.197
   51A      C2' 1651   9.465   6.719   7.213
   51A      H2' 1652   9.544   6.696   7.285
   51A      O2' 1653   9.505   6.828   7.133
   51A     HO2' 1654   9.520   6.902   7.192
   51A      O3' 1655   9.583   6.571   7.059
   52U3       P 1656   9.708   6.491   7.118
   52U3     OP1 1657   9.814   6.492   7.017
   52U3     OP2 1658   9.660   6.360   7.167
   52U3     O5' 1659   9.758   6.580   7.242
   52U3     C5' 1660   9.834   6.699   7.224
   52U3     H5' 1661   9.782   6.770   7.160
   52U3    H5'' 1662   9.929   6.672   7.178
   52U3     C4' 1663   9.861   6.763   7.359
   52U3     H4' 1664   9.905   6.862   7.346
   52U3     O4' 1665   9.733   6.788   7.421
   52U3     C1' 1666   9.744   6.772   7.562
   52U3     H1' 1667   9.709   6.862   7.614
   52U3      N1 1668   9.651   6.665   7.613
   52U3      C6 1669   9.614   6.559   7.530
   52U3      H6 1670   9.658   6.554   7.432
   52U3      C5 1671   9.532   6.461   7.569
   52U3      H5 1672   9.503   6.379   7.503
   52U3      C4 1673   9.479   6.465   7.703
   52U3      O4 1674   9.405   6.382   7.750
   52U3      N3 1675   9.519   6.572   7.781
   52U3      H3 1676   9.480   6.576   7.882
   52U3      C2 1677   9.603   6.675   7.742
   52U3      O2 1678   9.633   6.765   7.818
   52U3     C3' 1679   9.934   6.677   7.462
   52U3     H3' 1680   9.957   6.572   7.480
   52U3     C2' 1681   9.890   6.743   7.592
   52U3     H2' 1682   9.924   6.665   7.660
   52U3     O2' 1683   9.962   6.863   7.617
   52U3    HO2' 1684   9.944   6.888   7.708
   52U3     O3' 1685  10.077   6.683   7.448
   52U3    HO3' 1686  10.125   6.630   7.512
    1WAT      O 1687   0.361   8.274  11.566
    1WAT     H1 1688   0.408   8.283  11.492
    1WAT     H2 1689   0.406   8.216  11.613
    1WAT    EPW 1690   0.374   8.267  11.562
    2WAT      O 1691   0.872   7.921  13.182
    2WAT     H1 1692   0.849   7.921  13.266
    2WAT     H2 1693   0.797   7.907  13.140
    2WAT    EPW 1694   0.858   7.919  13.188
    3WAT      O 1695   0.359   7.621  12.096
    3WAT     H1 1696   0.313   7.582  12.033
    3WAT     H2 1697   0.429   7.570  12.105
    3WAT    EPW 1698   0.363   7.608  12.088
    4WAT      O 1699   0.810   7.182  12.630
    4WAT     H1 1700   0.878   7.184  12.576
    4WAT     H2 1701   0.806   7.098  12.655
    4WAT    EPW 1702   0.820   7.170  12.626
    5WAT      O 1703   0.870   8.241  12.909
    5WAT     H1 1704   0.884   8.317  12.868
    5WAT     H2 1705   0.950   8.204  12.911
    5WAT    EPW 1706   0.884   8.247  12.903
    6WAT      O 1707   0.560   7.431  12.098
    6WAT     H1 1708   0.641   7.412  12.122
    6WAT     H2 1709   0.512   7.370  12.138
    6WAT    EPW 1710   0.565   7.419  12.108
    7WAT      O 1711   0.980   8.029  12.359
    7WAT     H1 1712   1.015   7.949  12.362
    7WAT     H2 1713   1.046   8.080  12.334
    7WAT    EPW 1714   0.995   8.025  12.356
    8WAT      O 1715   0.986   7.974  11.980
    8WAT     H1 1716   1.019   7.910  12.029
    8WAT     H2 1717   1.010   7.953  11.899
    8WAT    EPW 1718   0.994   7.961  11.975
    9WAT      O 1719   1.182   7.387  13.114
    9WAT     H1 1720   1.098   7.377  13.096
    9WAT     H2 1721   1.185   7.462  13.159
    9WAT    EPW 1722   1.170   7.397  13.118
   10WAT      O 1723   0.619   6.940  12.025
   10WAT     H1 1724   0.590   6.991  11.960
   10WAT     H2 1725   0.706   6.948  12.019
   10WAT    EPW 1726   0.628   6.949  12.014
   11WAT      O 1727   1.638   6.683  13.025
   11WAT     H1 1728   1.622   6.760  12.987
   11WAT     H2 1729   1.561   6.661  13.060
   11WAT    EPW 1730   1.624   6.691  13.025
   12WAT      O 1731   0.917   6.855  12.247
   12WAT     H1 1732   0.924   6.941  12.260
   12WAT     H2 1733   0.913   6.847  12.160
   12WAT    EPW 1734   0.918   6.866  12.236
   13WAT      O 1735   1.384   7.147  11.477
   13WAT     H1 1736   1.339   7.215  11.508
   13WAT     H2 1737   1.396   7.097  11.547
   13WAT    EPW 1738   1.380   7.150  11.492
   14WAT      O 1739   0.780   8.153  11.935
   14WAT     H1 1740   0.722   8.125  11.994
   14WAT     H2 1741   0.842   8.092  11.938
   14WAT    EPW 1742   0.781   8.140  11.944
   15WAT      O 1743   1.394   8.381  11.687
   15WAT     H1 1744   1.467   8.429  11.697
   15WAT     H2 1745   1.417   8.302  11.715
   15WAT    EPW 1746   1.409   8.377  11.693
   16WAT      O 1747   1.211   8.421  11.886
   16WAT     H1 1748   1.233   8.473  11.952
   16WAT     H2 1749   1.288   8.403  11.848
   16WAT    EPW 1750   1.226   8.426  11.890
   17WAT      O 1751   0.508   6.879  12.446
   17WAT     H1 1752   0.456   6.816  12.415
   17WAT     H2 1753   0.567   6.835  12.493
   17WAT    EPW 1754   0.509   6.863  12.449
   18WAT      O 1755   0.839   7.092  13.376
   18WAT     H1 1756   0.850   7.047  13.302
   18WAT     H2 1757   0.867   7.172  13.356
   18WAT    EPW 1758   0.845   7.097  13.362
   19WAT      O 1759   0.351   8.235  11.980
   19WAT     H1 1760   0.416   8.178  11.982
   19WAT     H2 1761   0.389   8.310  11.958
   19WAT    EPW 1762   0.366   8.238  11.977
   20WAT      O 1763   1.924   7.145  12.106
   20WAT     H1 1764   1.889   7.212  12.149
   20WAT     H2 1765   1.860   7.085  12.108
   20WAT    EPW 1766   1.909   7.146  12.113
   21WAT      O 1767   1.455   8.422  12.717
   21WAT     H1 1768   1.529   8.467  12.716
   21WAT     H2 1769   1.443   8.400  12.633
   21WAT    EPW 1770   1.464   8.425  12.704
   22WAT      O 1771   0.412   7.052  13.274
   22WAT     H1 1772   0.334   7.013  13.267
   22WAT     H2 1773   0.461   7.011  13.215
   22WAT    EPW 1774   0.408   7.040  13.265
   23WAT      O 1775   0.432   8.084  12.330
   23WAT     H1 1776   0.475   8.048  12.263
   23WAT     H2 1777   0.465   8.042  12.399
   23WAT    EPW 1778   0.443   8.072  12.330
   24WAT      O 1779   0.755   8.369  12.260
   24WAT     H1 1780   0.840   8.379  12.240
   24WAT     H2 1781   0.726   8.451  12.267
   24WAT    EPW 1782   0.764   8.383  12.258
   25WAT      O 1783   1.077   6.816  13.191
   25WAT     H1 1784   1.095   6.735  13.164
   25WAT     H2 1785   1.062   6.860  13.117
   25WAT    EPW 1786   1.077   6.811  13.176
   26WAT      O 1787   1.136   7.309  12.068
   26WAT     H1 1788   1.165   7.286  11.989
   26WAT     H2 1789   1.209   7.317  12.115
   26WAT    EPW 1790   1.151   7.306  12.064
   27WAT      O 1791   1.208   7.343  11.581
   27WAT     H1 1792   1.236   7.421  11.605
   27WAT     H2 1793   1.131   7.359  11.544
   27WAT    EPW 1794   1.201   7.357  11.579
   28WAT      O 1795   1.612   8.540  11.727
   28WAT     H1 1796   1.679   8.525  11.673
   28WAT     H2 1797   1.648   8.532  11.806
   28WAT    EPW 1798   1.628   8.537  11.731
   29WAT      O 1799   0.655   8.491  12.834
   29WAT     H1 1800   0.684   8.484  12.916
   29WAT     H2 1801   0.593   8.430  12.829
   29WAT    EPW 1802   0.650   8.481  12.845
   30WAT      O 1803   1.891   6.977  12.643
   30WAT     H1 1804   1.967   6.984  12.600
   30WAT     H2 1805   1.898   6.900  12.683
   30WAT    EPW 1806   1.903   6.967  12.643
   31WAT      O 1807   1.380   8.140  13.087
   31WAT     H1 1808   1.377   8.178  13.166
   31WAT     H2 1809   1.466   8.136  13.070
   31WAT    EPW 1810   1.393   8.145  13.096
   32WAT      O 1811   1.094   8.160  11.562
   32WAT     H1 1812   1.076   8.214  11.628
   32WAT     H2 1813   1.171   8.189  11.532
   32WAT    EPW 1814   1.103   8.172  11.567
   33WAT      O 1815   1.445   6.949  11.668
   33WAT     H1 1816   1.499   6.881  11.675
   33WAT     H2 1817   1.451   6.989  11.745
   33WAT    EPW 1818   1.454   6.945  11.680
   34WAT      O 1819   0.240   7.066  11.924
   34WAT     H1 1820   0.229   6.980  11.928
   34WAT     H2 1821   0.193   7.096  11.991
   34WAT    EPW 1822   0.232   7.058  11.935
   35WAT      O 1823   0.455   8.307  12.746
   35WAT     H1 1824   0.385   8.256  12.759
   35WAT     H2 1825   0.481   8.287  12.665
   35WAT    EPW 1826   0.448   8.297  12.736
   36WAT      O 1827   1.171   7.187  11.799
   36WAT     H1 1828   1.120   7.121  11.774
   36WAT     H2 1829   1.176   7.237  11.728
   36WAT    EPW 1830   1.164   7.185  11.785
   37WAT      O 1831   1.226   8.456  12.837
   37WAT     H1 1832   1.302   8.448  12.796
   37WAT     H2 1833   1.167   8.444  12.773
   37WAT    EPW 1834   1.228   8.453  12.822
   38WAT      O 1835   1.171   6.881  11.788
   38WAT     H1 1836   1.125   6.841  11.725
   38WAT     H2 1837   1.248   6.897  11.751
   38WAT    EPW 1838   1.175   6.877  11.773
   39WAT      O 1839   1.853   8.517  12.127
   39WAT     H1 1840   1.808   8.588  12.147
   39WAT     H2 1841   1.792   8.460  12.103
   39WAT    EPW 1842   1.838   8.519  12.126
   40WAT      O 1843   1.031   7.118  12.240
   40WAT     H1 1844   1.038   7.175  12.174
   40WAT     H2 1845   1.043   7.167  12.311
   40WAT    EPW 1846   1.033   7.133  12.241
   41WAT      O 1847   1.553   8.101  12.081
   41WAT     H1 1848   1.623   8.053  12.100
   41WAT     H2 1849   1.487   8.044  12.086
   41WAT    EPW 1850   1.554   8.086  12.085
   42WAT      O 1851   0.591   8.192  13.003
   42WAT     H1 1852   0.675   8.199  12.980
   42WAT     H2 1853   0.587   8.232  13.080
   42WAT    EPW 1854   0.603   8.199  13.011
   43WAT      O 1855   0.491   6.700  12.075
   43WAT     H1 1856   0.545   6.769  12.074
   43WAT     H2 1857   0.492   6.673  11.992
   43WAT    EPW 1858   0.499   6.706  12.063
   44WAT      O 1859   0.787   7.743  12.478
   44WAT     H1 1860   0.804   7.722  12.560
   44WAT     H2 1861   0.721   7.690  12.456
   44WAT    EPW 1862   0.780   7.732  12.487
   45WAT      O 1863   1.410   7.135  12.829
   45WAT     H1 1864   1.400   7.167  12.910
   45WAT     H2 1865   1.350   7.071  12.825
   45WAT    EPW 1866   1.400   7.130  12.840
   46WAT      O 1867   0.862   7.737  12.737
   46WAT     H1 1868   0.867   7.822  12.757
   46WAT     H2 1869   0.833   7.700  12.810
   46WAT    EPW 1870   0.859   7.744  12.750
   47WAT      O 1871   1.480   7.807  12.650
   47WAT     H1 1872   1.428   7.765  12.707
   47WAT     H2 1873   1.467   7.891  12.668
   47WAT    EPW 1874   1.470   7.813  12.661
   48WAT      O 1875   1.535   6.729  12.113
   48WAT     H1 1876   1.540   6.697  12.194
   48WAT     H2 1877   1.568   6.665  12.063
   48WAT    EPW 1878   1.541   6.715  12.117
   49WAT      O 1879   1.782   7.153  12.943
   49WAT     H1 1880   1.859   7.130  12.977
   49WAT     H2 1881   1.734   7.174  13.013
   49WAT    EPW 1882   1.786   7.153  12.959
   50WAT      O 1883   0.536   7.081  12.240
   50WAT     H1 1884   0.563   7.038  12.170
   50WAT     H2 1885   0.519   7.017  12.298
   50WAT    EPW 1886   0.538   7.065  12.238
   51WAT      O 1887   1.805   7.851  11.662
   51WAT     H1 1888   1.817   7.822  11.744
   51WAT     H2 1889   1.886   7.853  11.629
   51WAT    EPW 1890   1.819   7.847  11.669
   52WAT      O 1891   0.519   7.824  12.195
   52WAT     H1 1892   0.604   7.816  12.178
   52WAT     H2 1893   0.483   7.756  12.154
   52WAT    EPW 1894   0.526   7.812  12.187
  15.30692  15.31232  15.29290
