Generic title
 1062
    1C5    HO5'    1   3.417   5.424   3.655 -0.7040 -2.0412 -1.0659
    1C5     O5'    2   3.481   5.448   3.588  0.0313  0.2879  0.3761
    1C5     C5'    3   3.600   5.410   3.651  0.0830  0.6397 -0.5040
    1C5     H5'    4   3.692   5.434   3.597  0.1163 -0.1896 -0.8247
    1C5    H5''    5   3.599   5.303   3.667  1.6700  0.3189 -2.2195
    1C5     C4'    6   3.602   5.482   3.783  0.2733  0.0487  0.1264
    1C5     H4'    7   3.629   5.584   3.756 -1.3461  0.1613 -1.2130
    1C5     O4'    8   3.477   5.483   3.855 -0.3670 -0.4701 -0.4730
    1C5     C1'    9   3.491   5.466   3.994 -0.0986  0.2447  0.0330
    1C5     H1'   10   3.455   5.556   4.044 -0.8921 -0.0549  0.0031
    1C5      N1   11   3.432   5.339   4.037  0.3138 -0.5943  0.8498
    1C5      C6   12   3.397   5.244   3.941  0.0139  0.0304 -0.2605
    1C5      H6   13   3.418   5.250   3.835  0.4574 -1.1970 -0.2491
    1C5      C5   14   3.344   5.129   3.985 -0.8456 -0.1618 -0.0777
    1C5      H5   15   3.330   5.047   3.916  0.2504  2.0917 -3.1968
    1C5      C4   16   3.317   5.122   4.126 -0.2391  0.6901 -0.0311
    1C5      N4   17   3.246   5.015   4.159 -0.2493 -0.5454 -0.3666
    1C5     H41   18   3.231   4.956   4.078 -0.8096 -1.9870  0.7420
    1C5     H42   19   3.251   4.983   4.254 -2.2099 -0.1580 -0.0790
    1C5      N3   20   3.363   5.203   4.216  0.3613 -0.8197  0.9880
    1C5      C2   21   3.427   5.309   4.169 -0.4761 -0.3676  0.1496
    1C5      O2   22   3.456   5.390   4.259  1.0661 -0.2065  0.1412
    1C5     C3'   23   3.702   5.423   3.885  0.2555 -0.1025  0.2167
    1C5     H3'   24   3.700   5.315   3.872  1.5348  0.0871 -2.2006
    1C5     C2'   25   3.643   5.470   4.016 -0.2155  0.1115 -0.1017
    1C5     H2'   26   3.667   5.414   4.106 -1.2057 -0.2797 -0.0666
    1C5     O2'   27   3.675   5.603   4.043 -0.2065 -0.2005  0.1877
    1C5    HO2'   28   3.769   5.614   4.031  0.3237 -3.4660  0.4295
    1C5     O3'   29   3.830   5.480   3.866 -0.0831 -0.7259  0.1394
    2U        P   30   3.949   5.395   3.892 -0.1010 -0.1618  0.3447
    2U      OP1   31   4.076   5.463   3.860  0.1819 -0.9882 -0.3734
    2U      OP2   32   3.921   5.266   3.820 -0.3428 -0.8123 -0.1223
    2U      O5'   33   3.942   5.366   4.049  0.4198 -0.0449 -0.5588
    2U      C5'   34   3.979   5.464   4.143 -0.1440 -0.2735 -0.5880
    2U      H5'   35   3.925   5.559   4.131  0.9368  0.8475  2.4531
    2U     H5''   36   4.085   5.488   4.139 -0.0190 -0.6099  0.3590
    2U      C4'   37   3.963   5.419   4.288 -0.2722 -0.5141  0.2068
    2U      H4'   38   3.998   5.501   4.351  3.1837 -1.4167 -0.3684
    2U      O4'   39   3.828   5.392   4.307  0.5088 -0.1000 -0.8001
    2U      C1'   40   3.812   5.291   4.408  0.2589  0.9624  0.1181
    2U      H1'   41   3.764   5.344   4.490 -0.3530 -0.4670  0.7289
    2U       N1   42   3.736   5.178   4.347  0.0009 -0.4206  0.8221
    2U       C6   43   3.733   5.164   4.206 -0.1758  0.3850  0.2379
    2U       H6   44   3.781   5.235   4.140  1.9770  1.7738  3.0808
    2U       C5   45   3.673   5.056   4.152 -0.2861 -0.0900  0.0219
    2U       H5   46   3.653   5.059   4.046  1.2115  0.6917 -0.2689
    2U       C4   47   3.621   4.952   4.237  0.1216  0.5271 -0.2430
    2U       O4   48   3.555   4.857   4.193  0.4377 -0.6126  0.1874
    2U       N3   49   3.633   4.967   4.371 -0.4476 -0.1087 -0.4531
    2U       H3   50   3.592   4.895   4.429 -0.7565 -0.3923 -1.0189
    2U       C2   51   3.680   5.081   4.430  0.8788  0.0905  0.3472
    2U       O2   52   3.682   5.092   4.550  0.6712  0.9093  0.3459
    2U      C3'   53   4.030   5.288   4.311 -0.5330  0.3928  0.0237
    2U      H3'   54   3.999   5.219   4.232  0.5718 -2.3072  1.7925
    2U      C2'   55   3.955   5.255   4.438  0.2347  0.0942 -0.5690
    2U      H2'   56   3.955   5.149   4.464 -1.1322  0.3168  0.4614
    2U      O2'   57   3.992   5.339   4.547  0.3559 -0.7112 -0.0493
    2U     HO2'   58   3.975   5.293   4.629  2.8117 -1.3791  0.1576
    2U      O3'   59   4.172   5.295   4.336  1.2107 -0.6761  0.1596
    3G        P   60   4.253   5.164   4.324  0.1766 -0.3396 -0.0475
    3G      OP1   61   4.394   5.207   4.336 -0.1616  0.0453 -0.4561
    3G      OP2   62   4.213   5.086   4.206 -0.0382 -0.0651  0.4347
    3G      O5'   63   4.215   5.074   4.444  0.5684 -0.1958 -0.3296
    3G      C5'   64   4.260   5.112   4.580  0.0112 -0.6517  0.7545
    3G      H5'   65   4.222   5.210   4.607 -0.3914 -0.7275  0.4754
    3G     H5''   66   4.369   5.113   4.575  0.0338 -2.8279 -1.4402
    3G      C4'   67   4.212   5.010   4.680 -0.0554 -0.8763  0.0134
    3G      H4'   68   4.263   5.031   4.774  0.1055  0.2182 -0.3003
    3G      O4'   69   4.066   5.005   4.693 -0.1538  0.1996  0.4435
    3G      C1'   70   4.023   4.870   4.708 -0.4173  0.2380  0.0128
    3G      H1'   71   3.956   4.865   4.794 -1.9552  1.3936 -1.0479
    3G       N9   72   3.952   4.817   4.594  0.4739  0.6459 -0.0611
    3G       C8   73   3.951   4.863   4.468 -0.1932 -0.2397  0.4924
    3G       H8   74   3.992   4.956   4.434  0.3823 -0.4924  0.4848
    3G       N7   75   3.888   4.786   4.384  0.5732  0.0032 -0.0902
    3G       C5   76   3.842   4.682   4.466  0.5157 -0.6446  0.9288
    3G       C6   77   3.752   4.571   4.437  0.2237 -0.5589 -0.1987
    3G       O6   78   3.692   4.538   4.335 -0.5347  0.0643 -1.1915
    3G       N1   79   3.726   4.493   4.547  0.4093  0.2121  0.2289
    3G       H1   80   3.650   4.426   4.543 -0.0283  0.7905 -1.9121
    3G       C2   81   3.759   4.527   4.673 -0.2150  0.0285 -0.3296
    3G       N2   82   3.735   4.439   4.761  0.0517  0.8701 -0.0016
    3G      H21   83   3.688   4.353   4.736 -0.8697  1.3352  0.0867
    3G      H22   84   3.770   4.441   4.856 -1.2570 -0.6289  0.5676
    3G       N3   85   3.846   4.619   4.708  0.3418 -0.3654  0.1801
    3G       C4   86   3.882   4.699   4.596  0.2970 -0.0065  0.1355
    3G      C3'   87   4.245   4.862   4.637 -0.7794  0.4474  0.4296
    3G      H3'   88   4.221   4.849   4.532 -0.1393 -0.5168  0.3939
    3G      C2'   89   4.149   4.789   4.726  0.0306  0.3423 -0.5225
    3G      H2'   90   4.140   4.687   4.689  1.0103 -0.4011  1.1536
    3G      O2'   91   4.192   4.796   4.860 -0.4946 -0.4424 -0.3581
    3G     HO2'   92   4.151   4.723   4.907 -3.0962  0.6838 -0.6944
    3G      O3'   93   4.384   4.837   4.660  0.3832 -0.0612  0.5828
    4G        P   94   4.452   4.715   4.583  0.0473 -0.0274 -0.1997
    4G      OP1   95   4.586   4.707   4.626  0.0390  0.2722 -0.4150
    4G      OP2   96   4.426   4.742   4.443 -0.1170 -0.3997  0.3626
    4G      O5'   97   4.377   4.578   4.628 -0.1014  0.4399  0.3404
    4G      C5'   98   4.390   4.539   4.764  0.2263  0.1032  0.2544
    4G      H5'   99   4.378   4.627   4.827 -0.8455  0.8279 -0.9190
    4G     H5''  100   4.494   4.516   4.785  0.8367  0.6792 -1.8935
    4G      C4'  101   4.299   4.424   4.798  0.0870  0.0274 -0.1763
    4G      H4'  102   4.311   4.406   4.905 -1.7180 -0.0509  0.0463
    4G      O4'  103   4.158   4.466   4.777  0.3345  0.0315 -0.1191
    4G      C1'  104   4.087   4.361   4.718 -0.3545  0.0743  0.4988
    4G      H1'  105   3.995   4.341   4.773  0.6933 -1.7238  1.7042
    4G       N9  106   4.050   4.376   4.578 -0.6258 -0.0528  0.4669
    4G       C8  107   4.108   4.452   4.481 -0.0962  0.3903  0.5638
    4G       H8  108   4.189   4.521   4.498  2.1757 -1.7077 -1.1081
    4G       N7  109   4.059   4.422   4.360 -0.1035 -0.2314  0.0222
    4G       C5  110   3.959   4.331   4.384 -0.6435 -0.3486  0.4825
    4G       C6  111   3.869   4.273   4.292  0.1917  0.0511 -0.3488
    4G       O6  112   3.858   4.295   4.172  0.8353 -0.3525 -0.4345
    4G       N1  113   3.797   4.174   4.349  0.2578 -0.1031 -0.0358
    4G       H1  114   3.730   4.128   4.288 -0.7018  0.1475  0.8054
    4G       C2  115   3.807   4.138   4.481  0.3930  0.0665  0.4539
    4G       N2  116   3.745   4.028   4.508 -0.2509  0.4828  0.2940
    4G      H21  117   3.707   3.967   4.437  0.0151 -0.0324  0.5895
    4G      H22  118   3.745   3.996   4.603 -1.0147 -0.2794  0.0512
    4G       N3  119   3.879   4.203   4.571  0.0517  0.5978  0.4663
    4G       C4  120   3.958   4.301   4.516 -0.0741  0.2817  0.3737
    4G      C3'  121   4.313   4.296   4.721  0.0177  0.2661 -0.1372
    4G      H3'  122   4.322   4.321   4.616 -0.1014  0.7762 -0.0295
    4G      C2'  123   4.174   4.238   4.739 -0.4649  0.4614  0.5092
    4G      H2'  124   4.153   4.166   4.660 -2.1050  1.4933 -0.0497
    4G      O2'  125   4.160   4.185   4.874  0.7958 -0.0640  0.1709
    4G     HO2'  126   4.065   4.175   4.883  0.7943  0.4000  0.7322
    4G      O3'  127   4.429   4.221   4.756 -0.0166  0.5542  0.5803
    5G        P  128   4.495   4.108   4.668  0.4502 -0.2096  0.3437
    5G      OP1  129   4.610   4.051   4.741  0.0436 -0.2081 -0.1413
    5G      OP2  130   4.518   4.167   4.531  0.0878  0.7904 -0.3686
    5G      O5'  131   4.386   3.996   4.641 -0.5418 -0.1348  0.4886
    5G      C5'  132   4.342   3.921   4.746  0.1655 -0.2823  0.1263
    5G      H5'  133   4.297   3.983   4.824  1.3842  1.3101 -0.3719
    5G     H5''  134   4.413   3.854   4.793  0.5009  0.2647  0.4116
    5G      C4'  135   4.231   3.827   4.691  0.3408 -1.1763 -0.4712
    5G      H4'  136   4.203   3.769   4.780 -0.9549  2.2170  1.5479
    5G      O4'  137   4.112   3.900   4.657 -0.8415 -0.1924 -0.3125
    5G      C1'  138   4.064   3.823   4.548  0.2273 -0.8344 -0.1155
    5G      H1'  139   3.957   3.805   4.559  0.1342 -1.3959 -1.6909
    5G       N9  140   4.081   3.905   4.424 -0.0891  0.1710  0.1612
    5G       C8  141   4.167   4.005   4.395 -0.4641 -0.1763  0.4963
    5G       H8  142   4.253   4.038   4.451  1.9502  0.7108 -3.2982
    5G       N7  143   4.154   4.063   4.277 -0.4400 -0.7006 -0.1891
    5G       C5  144   4.044   3.996   4.222 -0.2337 -0.4058 -0.2672
    5G       C6  145   3.972   4.010   4.096 -0.5452 -0.3614  0.4519
    5G       O6  146   3.990   4.098   4.009 -0.2612 -0.5703 -0.3552
    5G       N1  147   3.874   3.918   4.078  0.3488 -0.1213 -0.2470
    5G       H1  148   3.824   3.920   3.990  0.7513 -1.5651 -0.5400
    5G       C2  149   3.842   3.819   4.164 -0.4014 -0.3633  0.3507
    5G       N2  150   3.743   3.739   4.138 -0.1872  1.1412 -0.2850
    5G      H21  151   3.694   3.743   4.050 -2.2765  2.4041  0.8552
    5G      H22  152   3.693   3.688   4.209 -0.3990  0.4872 -0.8916
    5G       N3  153   3.895   3.808   4.285  0.4354  0.9437  0.6041
    5G       C4  154   3.999   3.893   4.305 -0.2380 -0.6203 -0.2969
    5G      C3'  155   4.267   3.739   4.573 -1.3528 -0.1863 -0.8756
    5G      H3'  156   4.324   3.794   4.498  0.2899 -1.5051 -0.6572
    5G      C2'  157   4.135   3.690   4.537  0.6737 -0.0949  0.2752
    5G      H2'  158   4.130   3.652   4.435 -0.5116 -0.6300  0.5192
    5G      O2'  159   4.087   3.596   4.626 -0.1396  0.3627 -0.0066
    5G     HO2'  160   4.158   3.538   4.651  0.2089 -0.0090 -1.7187
    5G      O3'  161   4.351   3.638   4.616 -0.5465  0.8860 -0.3167
    6U        P  162   4.428   3.537   4.511  0.0969  0.3133 -0.2189
    6U      OP1  163   4.562   3.499   4.564  0.5177 -0.0287  0.3159
    6U      OP2  164   4.420   3.591   4.369  0.2080 -0.7816  0.3673
    6U      O5'  165   4.337   3.406   4.524  0.0309 -0.0408 -0.2520
    6U      C5'  166   4.335   3.330   4.650  0.4045 -0.1538 -0.4695
    6U      H5'  167   4.314   3.390   4.739  0.4944 -0.7372 -0.0479
    6U     H5''  168   4.434   3.287   4.665  1.4061  2.2395  0.4074
    6U      C4'  169   4.226   3.223   4.645  0.5881  1.0099  0.3815
    6U      H4'  170   4.222   3.175   4.743 -1.4858 -0.3636 -0.3030
    6U      O4'  171   4.097   3.288   4.624 -0.2484  0.7237  0.3089
    6U      C1'  172   4.026   3.203   4.537  0.1371  0.5727  0.1634
    6U      H1'  173   3.933   3.168   4.582  0.5791 -2.3543 -0.9967
    6U       N1  174   4.010   3.249   4.397  0.0611 -0.1655 -0.1612
    6U       C6  175   4.069   3.366   4.351 -0.7595 -1.0872  0.5008
    6U       H6  176   4.148   3.417   4.402 -2.0380  3.1575 -1.3532
    6U       C5  177   4.031   3.432   4.235 -0.1837  0.5082 -0.0122
    6U       H5  178   4.059   3.532   4.206 -1.4409  1.4091  1.6749
    6U       C4  179   3.918   3.379   4.155 -0.5008 -0.1698  0.4128
    6U       O4  180   3.877   3.425   4.047  0.3776  0.6298  0.2684
    6U       N3  181   3.862   3.260   4.211  0.0144 -0.2824 -0.0245
    6U       H3  182   3.782   3.224   4.162 -0.5323  0.5186  0.2679
    6U       C2  183   3.916   3.183   4.317 -0.2271  0.1284  0.2889
    6U       O2  184   3.863   3.079   4.350  0.5355 -0.2311  0.2591
    6U      C3'  185   4.247   3.117   4.543  0.7686 -0.4029 -0.2347
    6U      H3'  186   4.276   3.170   4.453 -1.5715  1.5298  0.0457
    6U      C2'  187   4.107   3.069   4.531 -0.5076 -0.0336  0.1379
    6U      H2'  188   4.103   3.023   4.433  2.0880 -3.7484  1.5643
    6U      O2'  189   4.076   2.973   4.633 -0.0012 -0.1027  0.3988
    6U     HO2'  190   3.993   2.931   4.610  0.8396 -2.3717  1.2341
    6U      O3'  191   4.338   3.014   4.591  0.2307 -0.5483  0.1201
    7C        P  192   4.440   2.956   4.484 -0.5271 -0.3557  0.4506
    7C      OP1  193   4.490   2.836   4.558  0.3043 -0.3939 -0.2483
    7C      OP2  194   4.536   3.062   4.452 -0.3060  0.4601 -0.1214
    7C      O5'  195   4.357   2.916   4.353  0.2098 -0.3694  0.0673
    7C      C5'  196   4.261   2.808   4.352 -0.1247 -0.9321  0.3775
    7C      H5'  197   4.208   2.801   4.446 -0.2998 -0.4048  0.3169
    7C     H5''  198   4.309   2.710   4.345 -0.1262 -0.9619  0.7804
    7C      C4'  199   4.176   2.822   4.227  0.6839  0.3426  0.3475
    7C      H4'  200   4.114   2.732   4.224  0.0148  0.7865  0.5440
    7C      O4'  201   4.095   2.934   4.217  0.2454 -0.2227 -0.0911
    7C      C1'  202   4.093   2.974   4.080 -0.2707  0.1667 -0.3709
    7C      H1'  203   3.992   2.971   4.041  0.7546  0.0553 -3.1883
    7C       N1  204   4.154   3.109   4.062  0.3265  0.6211  0.2889
    7C       C6  205   4.256   3.154   4.144  0.0264  0.2433 -0.9719
    7C       H6  206   4.279   3.100   4.234 -1.0325 -2.2984 -2.1314
    7C       C5  207   4.332   3.264   4.108  0.0625 -0.4640 -0.0754
    7C       H5  208   4.394   3.307   4.185  0.6010 -0.4291 -0.5159
    7C       C4  209   4.288   3.336   3.992  0.0618  0.2817  0.2737
    7C       N4  210   4.341   3.445   3.951  0.3812  0.0728 -0.5387
    7C      H41  211   4.430   3.470   3.993  0.5890 -3.1478  1.2429
    7C      H42  212   4.307   3.488   3.866  1.8488 -0.4446 -1.4253
    7C       N3  213   4.193   3.295   3.918 -0.0004 -0.2233 -0.2916
    7C       C2  214   4.124   3.187   3.947 -0.5451  0.7956  0.5080
    7C       O2  215   4.033   3.149   3.876  0.2318 -0.1285 -0.1906
    7C      C3'  216   4.259   2.823   4.100 -0.8469 -0.6284 -0.2527
    7C      H3'  217   4.347   2.887   4.108 -1.0599  0.1155 -2.8996
    7C      C2'  218   4.170   2.874   3.993 -1.2071  0.1524  0.4203
    7C      H2'  219   4.224   2.922   3.912 -2.1998 -0.9259 -0.9123
    7C      O2'  220   4.071   2.784   3.947 -0.3128 -0.5665 -0.1311
    7C     HO2'  221   4.034   2.809   3.861  1.8172 -0.7413 -1.1587
    7C      O3'  222   4.306   2.701   4.064 -0.6665  0.4296 -0.5104
    8G        P  223   4.462   2.673   4.020  0.0694 -0.0784 -0.0048
    8G      OP1  224   4.480   2.533   3.979  0.3602 -0.0639  0.0723
    8G      OP2  225   4.545   2.735   4.124  0.8056 -0.0300 -0.1381
    8G      O5'  226   4.474   2.763   3.892  0.8240 -0.4030  0.1972
    8G      C5'  227   4.409   2.710   3.773  0.8168 -0.1434 -0.7036
    8G      H5'  228   4.305   2.688   3.798  1.0250 -0.9399 -0.5023
    8G     H5''  229   4.452   2.612   3.751  3.5035  0.7059  0.3259
    8G      C4'  230   4.425   2.797   3.645  0.6041  0.0942 -0.0432
    8G      H4'  231   4.383   2.745   3.558  0.2082  1.8876 -0.9686
    8G      O4'  232   4.364   2.919   3.664 -0.4363  0.3014 -0.2751
    8G      C1'  233   4.446   3.015   3.607  0.0123 -0.1843 -0.2971
    8G      H1'  234   4.390   3.083   3.543  0.5947 -0.0185 -0.6422
    8G       N9  235   4.501   3.110   3.708  1.0419 -0.2145  0.2045
    8G       C8  236   4.540   3.082   3.840 -0.5426  0.1278  0.4993
    8G       H8  237   4.515   3.000   3.904 -0.0999  0.7298  1.4676
    8G       N7  238   4.620   3.179   3.888  0.2699  0.5928 -0.3947
    8G       C5  239   4.620   3.274   3.790  0.3530 -0.3829  0.8061
    8G       C6  240   4.678   3.404   3.790  0.0675  0.2606 -0.2252
    8G       O6  241   4.721   3.467   3.888 -0.7024  0.4180 -0.1035
    8G       N1  242   4.661   3.475   3.673  0.5675 -0.4107 -0.3169
    8G       H1  243   4.709   3.562   3.656 -0.5398  0.0757 -1.0886
    8G       C2  244   4.592   3.425   3.569 -0.6274 -0.0402  0.2844
    8G       N2  245   4.591   3.504   3.461  0.5720  0.2551  0.4377
    8G      H21  246   4.623   3.600   3.462 -0.6235  0.8196 -3.0104
    8G      H22  247   4.543   3.469   3.380  1.3254  0.8517 -0.2775
    8G       N3  248   4.541   3.302   3.558  0.0399  0.1750  0.1845
    8G       C4  249   4.555   3.232   3.675 -0.4301 -0.3857  0.9563
    8G      C3'  250   4.574   2.820   3.609  0.2678 -0.5635 -0.4230
    8G      H3'  251   4.632   2.842   3.699 -1.3435 -0.5861  0.6677
    8G      C2'  252   4.567   2.950   3.532  0.4499  0.0876  0.4334
    8G      H2'  253   4.657   3.009   3.550 -0.1393  1.7051 -1.5172
    8G      O2'  254   4.544   2.935   3.390  0.1280  0.0646 -0.7117
    8G     HO2'  255   4.580   3.007   3.339 -0.4384 -1.2176 -3.0559
    8G      O3'  256   4.629   2.713   3.541  0.0842  0.4129  0.7488
    9C        P  257   4.773   2.657   3.568  0.2521  0.1560  0.3890
    9C      OP1  258   4.798   2.543   3.481 -0.2774 -1.0266  0.2052
    9C      OP2  259   4.792   2.639   3.717  0.3248  0.2106  0.5054
    9C      O5'  260   4.877   2.773   3.536 -0.3795 -0.2729 -0.4933
    9C      C5'  261   5.013   2.759   3.570 -0.1421  0.8124  0.5073
    9C      H5'  262   5.031   2.652   3.553  0.2610  0.9306  0.1590
    9C     H5''  263   5.027   2.776   3.676  1.2498  3.2072  0.0117
    9C      C4'  264   5.109   2.842   3.481 -0.1171 -0.6423 -0.3169
    9C      H4'  265   5.211   2.838   3.519 -0.0478 -0.6241 -0.4986
    9C      O4'  266   5.101   2.795   3.348 -0.3739 -0.3966  0.2160
    9C      C1'  267   5.095   2.898   3.257  0.4089  0.1334  0.1973
    9C      H1'  268   5.179   2.888   3.188  0.4858 -2.6045  0.5717
    9C       N1  269   4.969   2.885   3.171  0.0124 -0.0231  0.3212
    9C       C6  270   4.860   2.804   3.211  0.5435 -0.4717 -0.3302
    9C       H6  271   4.857   2.754   3.306  0.0200  1.9477  1.0163
    9C       C5  272   4.751   2.792   3.129 -0.5581 -0.4340 -0.3846
    9C       H5  273   4.670   2.724   3.151  0.1398 -1.1163  0.1549
    9C       C4  274   4.751   2.869   3.003  0.5926  0.6288  0.1865
    9C       N4  275   4.651   2.864   2.924 -0.0598  0.0900 -0.9979
    9C      H41  276   4.574   2.800   2.942 -0.5010  1.2930  1.9111
    9C      H42  277   4.658   2.922   2.842  2.9203 -0.7857 -1.4659
    9C       N3  278   4.843   2.960   2.970  0.3909  0.0963  0.0373
    9C       C2  279   4.949   2.974   3.059 -0.4294 -0.5277 -0.3315
    9C       O2  280   5.035   3.060   3.027 -0.0743  1.2841  0.1270
    9C      C3'  281   5.060   2.991   3.482 -0.6376  0.1343  0.0129
    9C      H3'  282   4.951   2.988   3.471 -0.5783 -2.8477 -0.5951
    9C      C2'  283   5.119   3.032   3.345 -0.5752  0.1313  0.2500
    9C      H2'  284   5.067   3.117   3.300  1.5535  0.7594 -1.1908
    9C      O2'  285   5.261   3.047   3.344 -0.2543  0.4765  0.2689
    9C     HO2'  286   5.281   3.119   3.404 -0.5306  2.4749 -1.8882
    9C      O3'  287   5.102   3.069   3.588  0.3818 -0.0827 -0.0604
   10A        P  288   5.009   3.186   3.643 -0.0555  0.1902  0.1643
   10A      OP1  289   5.081   3.264   3.740  0.4342 -0.2470  0.1584
   10A      OP2  290   4.881   3.127   3.681 -0.1485 -0.0517 -0.0343
   10A      O5'  291   4.975   3.287   3.524  0.1463 -0.0276  0.2497
   10A      C5'  292   5.074   3.372   3.471  0.5248 -0.2076 -1.0387
   10A      H5'  293   5.163   3.309   3.460  0.1925 -1.0892  0.9772
   10A     H5''  294   5.096   3.453   3.540  1.2506 -2.4511  1.5040
   10A      C4'  295   5.038   3.431   3.337 -0.2761 -0.1665  0.0776
   10A      H4'  296   5.122   3.494   3.309 -0.2310  0.8445  2.2797
   10A      O4'  297   5.024   3.330   3.238 -0.1373  0.0691 -0.0787
   10A      C1'  298   4.920   3.362   3.150 -0.4413  0.2249 -0.6662
   10A      H1'  299   4.948   3.352   3.045 -0.4632 -0.8221 -0.5846
   10A       N9  300   4.799   3.278   3.169  0.2360  0.5886  0.0306
   10A       C8  301   4.751   3.205   3.280 -0.2955 -0.4801  0.4813
   10A       H8  302   4.810   3.200   3.370  0.5168 -1.2389 -0.0662
   10A       N7  303   4.647   3.134   3.246 -0.2007  0.4135  0.2894
   10A       C5  304   4.612   3.174   3.115 -0.0454  0.4036 -0.4908
   10A       C6  305   4.499   3.144   3.027 -0.3700 -0.0586  0.2909
   10A       N6  306   4.417   3.051   3.049 -0.0819  0.5604  0.2070
   10A      H61  307   4.346   3.028   2.981 -0.2363 -2.9454  1.3733
   10A      H62  308   4.431   2.987   3.126 -0.1028 -0.8865 -0.9617
   10A       N1  309   4.498   3.209   2.913  0.3339 -0.9800 -0.0337
   10A       C2  310   4.593   3.298   2.885 -0.3034  0.4233  0.6374
   10A       H2  311   4.595   3.340   2.786  1.0858  0.8524  0.8152
   10A       N3  312   4.706   3.332   2.953  0.5097 -0.4367 -0.3435
   10A       C4  313   4.706   3.265   3.071  1.4095  0.0223 -0.4450
   10A      C3'  314   4.913   3.517   3.321 -0.4478 -0.2632 -0.5801
   10A      H3'  315   4.835   3.471   3.381  0.3364 -0.2211  0.5100
   10A      C2'  316   4.882   3.507   3.176 -0.3289  0.3581  0.7842
   10A      H2'  317   4.783   3.532   3.138  0.4795  1.2859 -0.8049
   10A      O2'  318   4.964   3.589   3.097  0.0722  0.3006  0.4723
   10A     HO2'  319   4.948   3.681   3.120 -2.4988 -0.3257  1.5749
   10A      O3'  320   4.941   3.655   3.355  0.1785 -0.4327  0.3430
   11G        P  321   4.878   3.741   3.469  0.3936  0.0471 -0.3032
   11G      OP1  322   4.942   3.879   3.468  0.3875 -0.0690 -0.0554
   11G      OP2  323   4.878   3.665   3.592  0.5035  0.4771 -0.3834
   11G      O5'  324   4.732   3.766   3.418 -0.1584 -0.0397 -0.7073
   11G      C5'  325   4.710   3.834   3.297 -0.3113  0.0107 -0.2869
   11G      H5'  326   4.698   3.758   3.220  3.1550 -0.7388 -0.2427
   11G     H5''  327   4.792   3.895   3.261 -1.2977  0.5223 -1.7434
   11G      C4'  328   4.590   3.926   3.309 -0.0214  0.3185 -0.8300
   11G      H4'  329   4.574   3.978   3.214 -2.2111 -0.6609 -1.0546
   11G      O4'  330   4.474   3.850   3.341 -0.6024  0.1479 -0.2325
   11G      C1'  331   4.424   3.882   3.465 -0.9785 -0.2933 -0.4456
   11G      H1'  332   4.340   3.949   3.447 -1.3325  0.4000  3.1742
   11G       N9  333   4.372   3.773   3.545  0.3368 -0.5139  0.2610
   11G       C8  334   4.418   3.723   3.668  0.1653  0.3830 -0.0198
   11G       H8  335   4.496   3.764   3.731 -1.6364  0.5609  2.2155
   11G       N7  336   4.347   3.620   3.707  0.2335 -0.2962  0.2082
   11G       C5  337   4.258   3.591   3.605  0.1045  0.1395 -0.3714
   11G       C6  338   4.156   3.488   3.584  0.0831 -0.7061 -0.5518
   11G       O6  339   4.121   3.392   3.654  0.2413 -0.1633 -0.2681
   11G       N1  340   4.089   3.504   3.465 -0.1658  0.3553  0.0646
   11G       H1  341   4.023   3.435   3.431 -0.3118  0.0256  0.9939
   11G       C2  342   4.115   3.605   3.377 -0.9820  0.6203  0.4776
   11G       N2  343   4.052   3.591   3.262  0.4080  0.2329  0.2323
   11G      H21  344   3.985   3.516   3.253 -0.7578  1.4788 -2.3586
   11G      H22  345   4.049   3.667   3.196  0.1346 -0.6691 -0.8291
   11G       N3  346   4.201   3.701   3.385  0.1211  0.3535 -1.0016
   11G       C4  347   4.271   3.688   3.508 -0.0578  0.6918  0.1545
   11G      C3'  348   4.608   4.024   3.426 -0.0546  0.0608  0.5031
   11G      H3'  349   4.716   4.034   3.438  0.6163 -1.1582 -3.1826
   11G      C2'  350   4.528   3.957   3.541 -0.1596  0.0173 -0.6743
   11G      H2'  351   4.596   3.885   3.586 -1.3046 -1.5965 -1.4661
   11G      O2'  352   4.480   4.037   3.648  0.0197 -0.1300  0.4104
   11G     HO2'  353   4.473   3.993   3.733  3.3265 -1.2114  0.2699
   11G      O3'  354   4.554   4.141   3.379  0.2510 -0.1466  0.1437
   12U        P  355   4.633   4.241   3.291 -0.1134 -0.0431 -0.2415
   12U      OP1  356   4.586   4.227   3.157  0.2982  0.3569 -0.0725
   12U      OP2  357   4.776   4.225   3.317 -0.0864 -0.1876  0.1169
   12U      O5'  358   4.583   4.391   3.335 -0.4130  0.3640 -0.0814
   12U      C5'  359   4.623   4.458   3.453  0.3652 -0.0232  0.4450
   12U      H5'  360   4.690   4.392   3.508  1.3764  1.2314  0.7532
   12U     H5''  361   4.536   4.479   3.516  0.0937 -0.6304  0.2837
   12U      C4'  362   4.705   4.585   3.436  0.1736 -0.0814  0.2433
   12U      H4'  363   4.722   4.627   3.535 -1.0116 -0.1902  0.5105
   12U      O4'  364   4.821   4.555   3.365 -0.3459  0.8750  0.0189
   12U      C1'  365   4.828   4.649   3.265  0.6051 -0.0809  0.2844
   12U      H1'  366   4.862   4.740   3.315 -3.0540  0.6586  1.7347
   12U       N1  367   4.911   4.619   3.151 -0.1705 -0.3001  0.9786
   12U       C6  368   4.920   4.493   3.101 -0.1831  0.9350 -0.3597
   12U       H6  369   4.870   4.414   3.155 -3.3058  2.8022 -0.2889
   12U       C5  370   4.997   4.462   2.995 -0.1864  0.2737  0.7617
   12U       H5  371   5.002   4.359   2.963  0.7368  0.1875  1.1405
   12U       C4  372   5.067   4.564   2.927 -0.1850 -0.6680  0.3064
   12U       O4  373   5.138   4.548   2.830  0.8233 -0.0524  0.8459
   12U       N3  374   5.040   4.690   2.969  0.0979  0.3719 -0.3818
   12U       H3  375   5.082   4.763   2.914  0.5642 -1.0071 -1.9457
   12U       C2  376   4.979   4.723   3.086  0.8494  0.0598  0.2868
   12U       O2  377   4.989   4.837   3.127  0.0651 -0.0022 -0.2869
   12U      C3'  378   4.625   4.685   3.351 -0.2498  0.7647 -0.3591
   12U      H3'  379   4.518   4.667   3.347 -0.2131  0.5963 -0.6577
   12U      C2'  380   4.685   4.671   3.214  0.2007 -0.3944  0.9581
   12U      H2'  381   4.653   4.585   3.157 -1.1074  1.4112 -1.1996
   12U      O2'  382   4.672   4.782   3.131  0.2770 -0.0381 -0.3551
   12U     HO2'  383   4.702   4.855   3.186 -0.3578  0.1298 -0.2223
   12U      O3'  384   4.645   4.818   3.392  0.1438 -0.3234 -0.0383
   13A        P  385   4.570   4.884   3.520 -0.7570  0.4144 -0.1587
   13A      OP1  386   4.573   5.028   3.506  0.3023  0.7268 -0.4575
   13A      OP2  387   4.631   4.832   3.640  0.3445 -0.2269 -1.2311
   13A      O5'  388   4.419   4.843   3.507  0.2449 -0.3835  0.0732
   13A      C5'  389   4.332   4.887   3.611 -0.2711  0.6617  0.3219
   13A      H5'  390   4.332   4.995   3.625 -1.8972  1.0571 -2.0332
   13A     H5''  391   4.370   4.842   3.703 -1.7368 -0.6570  0.3187
   13A      C4'  392   4.193   4.835   3.579  0.2378 -0.2078 -0.0793
   13A      H4'  393   4.127   4.879   3.654 -0.2904 -0.2234 -0.5263
   13A      O4'  394   4.155   4.889   3.451  0.8453 -0.0059 -0.3092
   13A      C1'  395   4.052   4.803   3.396 -0.1767 -0.6837  0.9818
   13A      H1'  396   3.962   4.864   3.397 -1.3477 -2.3719  1.1483
   13A       N9  397   4.075   4.779   3.254  0.4697  0.1899  0.2153
   13A       C8  398   4.012   4.845   3.151  0.6589  0.2286 -0.7169
   13A       H8  399   3.932   4.913   3.176 -1.2791 -2.9525  2.8372
   13A       N7  400   4.049   4.814   3.031  0.4924  0.3140 -0.1816
   13A       C5  401   4.150   4.718   3.058 -0.0283  0.5829 -0.4017
   13A       C6  402   4.249   4.649   2.974  0.6067 -0.3148  0.4221
   13A       N6  403   4.249   4.666   2.838 -0.2837 -0.0152 -0.5439
   13A      H61  404   4.307   4.602   2.785 -0.8270 -1.4035  0.4815
   13A      H62  405   4.171   4.715   2.796 -1.2783  0.8581  2.1197
   13A       N1  406   4.345   4.574   3.028 -0.0279 -0.5444  0.4426
   13A       C2  407   4.357   4.570   3.160  0.1901  0.1603  0.3352
   13A       H2  408   4.430   4.501   3.199  1.0568  1.1013  0.3810
   13A       N3  409   4.277   4.631   3.242  0.5097 -0.3165 -0.1282
   13A       C4  410   4.173   4.705   3.192 -0.7488 -0.1770 -0.2662
   13A      C3'  411   4.171   4.689   3.565 -0.5866  0.2459 -0.6413
   13A      H3'  412   4.263   4.657   3.516  0.5531  1.4164  0.6365
   13A      C2'  413   4.044   4.679   3.483  1.2242 -0.6286  0.0686
   13A      H2'  414   4.041   4.594   3.415  0.5564  0.5905 -1.4930
   13A      O2'  415   3.929   4.679   3.561 -0.4340 -0.0038  0.7160
   13A     HO2'  416   3.862   4.629   3.514 -0.0040 -0.4619  0.5737
   13A      O3'  417   4.175   4.629   3.695 -1.0888  0.0550 -0.2153
   14A        P  418   4.254   4.494   3.725  0.0980  0.4052 -0.0167
   14A      OP1  419   4.224   4.462   3.864 -0.0421 -0.5697  0.2285
   14A      OP2  420   4.395   4.521   3.695  0.1988  0.2290 -0.3648
   14A      O5'  421   4.202   4.363   3.638 -0.0843 -0.4756 -0.6648
   14A      C5'  422   4.228   4.355   3.497  0.2534  0.4079 -0.1773
   14A      H5'  423   4.332   4.323   3.491  0.1571 -0.5086  2.0644
   14A     H5''  424   4.213   4.450   3.446 -0.3596 -1.5256 -3.9561
   14A      C4'  425   4.140   4.252   3.425  0.1599  0.5770 -0.3164
   14A      H4'  426   4.141   4.258   3.316  1.7263 -1.6967 -0.5200
   14A      O4'  427   4.178   4.118   3.450 -0.5803  0.5702 -0.5488
   14A      C1'  428   4.071   4.024   3.466  0.8811 -0.0396 -0.3141
   14A      H1'  429   4.070   3.950   3.386  0.0581 -0.1710 -0.1990
   14A       N9  430   4.065   3.963   3.599  0.0262  0.4072  0.4761
   14A       C8  431   4.155   3.979   3.701  0.0000 -0.3750  0.3266
   14A       H8  432   4.224   4.063   3.697 -1.4686  0.9256  1.3391
   14A       N7  433   4.137   3.900   3.801 -0.5621 -0.1819 -0.6119
   14A       C5  434   4.033   3.818   3.762 -0.3405  0.1515  0.9840
   14A       C6  435   3.960   3.710   3.814  0.1585  0.1849  0.1280
   14A       N6  436   3.987   3.650   3.925  0.2154 -0.0323 -0.7301
   14A      H61  437   3.934   3.564   3.930  1.1953 -0.7735 -2.3786
   14A      H62  438   4.069   3.672   3.979 -0.5119 -0.1113  0.4180
   14A       N1  439   3.879   3.637   3.733 -0.6151 -0.2287 -0.4513
   14A       C2  440   3.845   3.684   3.614 -0.3389 -0.7663  0.5038
   14A       H2  441   3.780   3.628   3.549  1.9498  0.5992 -3.3105
   14A       N3  442   3.901   3.788   3.549 -0.0538  0.1015 -0.1847
   14A       C4  443   3.994   3.850   3.634 -0.3454  0.8419 -0.1354
   14A      C3'  444   3.991   4.259   3.465 -0.2653 -0.2206 -0.5414
   14A      H3'  445   3.995   4.272   3.574  0.0750 -0.0367 -0.5757
   14A      C2'  446   3.945   4.114   3.437  0.1696  0.3638  0.3050
   14A      H2'  447   3.870   4.078   3.508  1.6147 -0.5418  1.4480
   14A      O2'  448   3.913   4.100   3.297  0.3545  0.3393 -0.1408
   14A     HO2'  449   3.839   4.159   3.279 -0.9449 -2.0719 -3.8930
   14A      O3'  450   3.915   4.354   3.400  0.0293 -0.2984  0.2567
   15C        P  451   3.775   4.395   3.453 -0.3421 -0.1192 -0.0435
   15C      OP1  452   3.758   4.542   3.434  0.5482  0.3606 -0.8774
   15C      OP2  453   3.751   4.349   3.589  0.0190  0.3504  0.1711
   15C      O5'  454   3.665   4.312   3.365 -0.3461 -0.4156  0.4673
   15C      C5'  455   3.546   4.377   3.329  0.0239  0.4131 -0.6186
   15C      H5'  456   3.560   4.472   3.279 -0.1715  0.7208 -0.0971
   15C     H5''  457   3.490   4.385   3.422 -0.1204  0.7983 -0.7389
   15C      C4'  458   3.469   4.289   3.223 -0.6398 -0.0880 -0.1840
   15C      H4'  459   3.370   4.334   3.210 -0.2778  1.2223  1.2822
   15C      O4'  460   3.540   4.291   3.096  0.4449  0.0771 -0.2491
   15C      C1'  461   3.553   4.161   3.053  0.4839  0.2602 -0.4219
   15C      H1'  462   3.458   4.123   3.015  0.8483 -0.9843 -0.1325
   15C       N1  463   3.660   4.153   2.943  0.7955  0.1977  0.2959
   15C       C6  464   3.777   4.085   2.960  0.4614 -0.1445 -0.4147
   15C       H6  465   3.789   4.035   3.055 -1.9749  2.4263  1.4127
   15C       C5  466   3.864   4.072   2.862  0.2741 -0.4952  1.0077
   15C       H5  467   3.950   4.008   2.868  1.4653  0.8365 -0.7479
   15C       C4  468   3.836   4.148   2.738 -0.6780  0.7088 -0.1762
   15C       N4  469   3.919   4.136   2.642 -0.7889  0.2339 -0.1130
   15C      H41  470   4.003   4.079   2.648 -0.6913 -0.1576 -3.4939
   15C      H42  471   3.905   4.188   2.558  0.0366  1.1723  0.3097
   15C       N3  472   3.717   4.201   2.713 -0.2631  0.3283  0.0375
   15C       C2  473   3.634   4.212   2.820  0.7311  0.4171  0.5158
   15C       O2  474   3.530   4.269   2.792 -0.4495 -0.4262 -0.4741
   15C      C3'  475   3.452   4.139   3.262  0.5594 -0.1338 -0.0510
   15C      H3'  476   3.478   4.124   3.367  0.4052  0.9252  0.1462
   15C      C2'  477   3.562   4.071   3.178  0.2732 -0.5460  0.0836
   15C      H2'  478   3.661   4.092   3.220  1.2351 -0.6242 -2.0002
   15C      O2'  479   3.542   3.933   3.161 -0.2687 -0.0246  0.0754
   15C     HO2'  480   3.605   3.892   3.221  0.9378 -0.5810 -1.5042
   15C      O3'  481   3.326   4.082   3.231  0.0905 -0.6266 -0.9410
   16C        P  482   3.209   4.097   3.338  0.4151  0.2042  0.1645
   16C      OP1  483   3.082   4.069   3.263  0.6397 -0.1290  0.1523
   16C      OP2  484   3.219   4.223   3.414  0.3093 -0.6585 -0.0129
   16C      O5'  485   3.247   3.981   3.440 -0.1138 -0.4339  0.5337
   16C      C5'  486   3.215   3.848   3.417 -0.0289  0.3544 -0.9698
   16C      H5'  487   3.250   3.809   3.321 -2.6830  0.6860 -2.1977
   16C     H5''  488   3.106   3.854   3.414 -0.0257  0.4530 -0.8883
   16C      C4'  489   3.265   3.753   3.527 -0.5378  0.3841 -0.4390
   16C      H4'  490   3.218   3.654   3.520  0.7745 -0.1968 -1.6037
   16C      O4'  491   3.404   3.729   3.520 -0.6331  0.4135  0.0270
   16C      C1'  492   3.451   3.705   3.654 -0.3899 -0.6467 -0.4953
   16C      H1'  493   3.489   3.604   3.668  2.0014  0.0752 -1.2925
   16C       N1  494   3.546   3.813   3.682 -0.5007  0.1399  0.9756
   16C       C6  495   3.558   3.925   3.597  0.2110 -0.3754 -0.1176
   16C       H6  496   3.498   3.942   3.509 -0.1036  1.7285  0.4635
   16C       C5  497   3.639   4.031   3.630 -1.1768 -0.6394  0.0313
   16C       H5  498   3.653   4.115   3.564  1.4221 -0.7053  0.4021
   16C       C4  499   3.714   4.019   3.757  0.1049 -0.3072 -0.0899
   16C       N4  500   3.795   4.110   3.789 -0.4350 -0.5023 -0.0847
   16C      H41  501   3.812   4.182   3.721 -2.0154 -1.4603 -1.5449
   16C      H42  502   3.865   4.086   3.859 -2.1885 -1.7358  1.3402
   16C       N3  503   3.710   3.912   3.827 -0.4293 -0.8637  0.6881
   16C       C2  504   3.622   3.810   3.798  0.3001  0.6655 -1.1889
   16C       O2  505   3.621   3.709   3.872 -0.0128  0.2074  0.6730
   16C      C3'  506   3.229   3.802   3.668  0.8078 -0.0249  0.5401
   16C      H3'  507   3.262   3.906   3.677 -0.1004  0.1550  2.3017
   16C      C2'  508   3.328   3.710   3.747 -0.3389 -0.5965  0.2176
   16C      H2'  509   3.345   3.755   3.845 -0.6494 -1.8166  0.8494
   16C      O2'  510   3.275   3.575   3.762  0.4204 -0.5398  0.7965
   16C     HO2'  511   3.331   3.508   3.801 -0.7185 -1.6906  0.5259
   16C      O3'  512   3.093   3.790   3.710 -0.0419  0.0596 -0.1497
   17C        P  513   3.021   3.895   3.819  0.1566  0.0738 -0.1651
   17C      OP1  514   2.877   3.871   3.809  0.0300 -0.2562 -0.3605
   17C      OP2  515   3.072   4.037   3.809  0.1649  0.0596 -0.3241
   17C      O5'  516   3.075   3.846   3.960 -0.0771 -0.1504  0.2418
   17C      C5'  517   3.050   3.720   4.012  0.2489  1.3810  0.0034
   17C      H5'  518   3.071   3.635   3.947  0.5988  1.3441  0.1624
   17C     H5''  519   2.948   3.709   4.049  1.0758 -0.7728  1.9127
   17C      C4'  520   3.146   3.696   4.130  0.3990 -0.6667  0.3153
   17C      H4'  521   3.123   3.602   4.180 -0.3797 -0.3242  0.6229
   17C      O4'  522   3.274   3.700   4.087  0.1624  0.5341  0.6894
   17C      C1'  523   3.351   3.753   4.193 -0.3816  0.0635  0.6332
   17C      H1'  524   3.427   3.678   4.214 -0.8064  0.0887  2.4131
   17C       N1  525   3.419   3.882   4.148 -0.1662  0.0338  0.0517
   17C       C6  526   3.390   3.941   4.026 -0.1740  0.2545 -0.2410
   17C       H6  527   3.302   3.910   3.972 -0.4666 -1.7471  1.2818
   17C       C5  528   3.461   4.043   3.976 -0.8372 -0.5526  0.1121
   17C       H5  529   3.418   4.086   3.887  0.6306 -2.8715 -1.8690
   17C       C4  530   3.560   4.101   4.064 -0.0804  0.4343  0.0015
   17C       N4  531   3.613   4.210   4.032 -0.5180  0.1635  0.1328
   17C      H41  532   3.601   4.248   3.939 -1.5364  0.7049  0.4599
   17C      H42  533   3.692   4.241   4.087 -0.0577 -0.1603 -0.3413
   17C       N3  534   3.588   4.045   4.185  0.0217 -0.1006 -0.0810
   17C       C2  535   3.525   3.935   4.226 -0.3092 -0.1059 -0.0248
   17C       O2  536   3.568   3.884   4.332 -0.1199  0.3157  0.2471
   17C      C3'  537   3.132   3.806   4.234 -0.2694 -0.0833  0.7927
   17C      H3'  538   3.143   3.899   4.178  1.2070 -0.9325 -0.4231
   17C      C2'  539   3.262   3.776   4.312  0.2123 -0.1077 -0.6448
   17C      H2'  540   3.312   3.854   4.369  0.4765 -0.3747 -0.5077
   17C      O2'  541   3.245   3.658   4.396 -0.0265 -0.7648  0.1958
   17C     HO2'  542   3.307   3.657   4.470 -1.8048  0.1804  1.7658
   17C      O3'  543   3.008   3.776   4.289 -0.3650  0.5411  0.2900
   18C        P  544   2.932   3.893   4.366  0.2028 -0.0087 -0.0937
   18C      OP1  545   2.811   3.837   4.427  0.0849 -0.5593  0.4183
   18C      OP2  546   2.917   4.008   4.273  0.4172 -0.3708  0.2019
   18C      O5'  547   3.027   3.937   4.488 -0.0955 -0.5696  0.3768
   18C      C5'  548   3.045   3.855   4.604 -0.4685 -0.1312  0.2933
   18C      H5'  549   3.070   3.756   4.567  1.3587 -0.4564  2.2576
   18C     H5''  550   2.952   3.847   4.660 -0.2765 -1.5283  0.4315
   18C      C4'  551   3.151   3.908   4.696 -0.2844 -0.4211 -0.1944
   18C      H4'  552   3.140   3.850   4.788  2.5564  0.4427  0.7924
   18C      O4'  553   3.283   3.888   4.639 -0.1952 -0.4809  0.2136
   18C      C1'  554   3.360   4.010   4.678 -0.4728  0.3663 -0.2363
   18C      H1'  555   3.449   3.975   4.729  0.0605  2.4927  0.4122
   18C       N1  556   3.392   4.101   4.570  0.4512  0.7909  0.8585
   18C       C6  557   3.324   4.095   4.454  0.3950  0.2574 -0.0848
   18C       H6  558   3.253   4.016   4.435  0.5392  0.1892 -0.3392
   18C       C5  559   3.346   4.183   4.354 -0.2917  0.6995  0.0324
   18C       H5  560   3.278   4.179   4.270 -0.5383  0.0749  0.2565
   18C       C4  561   3.439   4.291   4.383 -0.1869 -0.7255  0.5293
   18C       N4  562   3.460   4.385   4.294 -0.1670  0.2399  0.3848
   18C      H41  563   3.417   4.368   4.205  0.6948 -1.7370  0.2966
   18C      H42  564   3.526   4.462   4.296 -1.1264  1.3417 -3.5261
   18C       N3  565   3.512   4.300   4.495  0.5188 -0.1412  0.5902
   18C       C2  566   3.490   4.201   4.586  0.0214  0.0381 -0.2333
   18C       O2  567   3.550   4.211   4.691 -0.3942 -0.0261  0.2367
   18C      C3'  568   3.138   4.054   4.741 -0.2031 -0.4148  0.6702
   18C      H3'  569   3.107   4.108   4.652 -0.3572 -1.1828  0.2456
   18C      C2'  570   3.279   4.082   4.786 -0.0050  0.5184 -0.0405
   18C      H2'  571   3.304   4.187   4.803 -2.1655  0.9982  0.4966
   18C      O2'  572   3.300   4.015   4.913  0.3338  0.0507  0.0246
   18C     HO2'  573   3.317   4.068   4.991  0.2513 -0.7504  0.6019
   18C      O3'  574   3.037   4.081   4.833 -0.3171 -0.2375 -0.5243
   19A        P  575   2.960   4.215   4.851  0.1714  0.2225 -0.1225
   19A      OP1  576   2.849   4.186   4.947 -0.5487 -0.5096  0.1506
   19A      OP2  577   2.926   4.264   4.716 -0.1169  0.3242 -0.4739
   19A      O5'  578   3.069   4.314   4.908 -0.1696 -0.0113  0.0375
   19A      C5'  579   3.110   4.308   5.047  0.2339 -0.4041  0.4156
   19A      H5'  580   3.100   4.207   5.088 -0.1979  1.1805  4.7124
   19A     H5''  581   3.035   4.358   5.108  0.6626 -1.0880  1.5499
   19A      C4'  582   3.242   4.383   5.065 -0.3729  0.4196 -0.3199
   19A      H4'  583   3.298   4.361   5.156 -2.2528 -0.4158  0.6940
   19A      O4'  584   3.328   4.364   4.956 -0.8012  0.0461  0.1950
   19A      C1'  585   3.396   4.487   4.933  0.0124 -0.0668  0.0013
   19A      H1'  586   3.503   4.474   4.946  0.2463 -0.0510 -1.6540
   19A       N9  587   3.365   4.520   4.797 -0.4749 -0.4502  0.4152
   19A       C8  588   3.282   4.452   4.712 -0.8389  0.5868  0.0747
   19A       H8  589   3.234   4.359   4.740  0.7074 -0.9439 -1.9243
   19A       N7  590   3.267   4.500   4.596 -0.0569 -0.4736  0.8636
   19A       C5  591   3.357   4.613   4.598 -0.8157 -0.1257 -0.5550
   19A       C6  592   3.414   4.700   4.496  1.1854 -0.0555  0.0419
   19A       N6  593   3.380   4.697   4.368 -0.1597 -0.0414  0.3739
   19A      H61  594   3.420   4.766   4.306  0.5341 -0.5254  0.2649
   19A      H62  595   3.312   4.631   4.332  0.2158  0.6357 -1.7541
   19A       N1  596   3.496   4.800   4.535  0.1717  0.0818  0.5310
   19A       C2  597   3.539   4.801   4.657 -0.0159 -0.4888 -0.8190
   19A       H2  598   3.621   4.869   4.678 -0.9685  0.3201  0.3896
   19A       N3  599   3.508   4.716   4.756 -0.1548  0.2808  0.3082
   19A       C4  600   3.415   4.625   4.721  0.5474  0.6089  0.2458
   19A      C3'  601   3.210   4.534   5.067 -0.4202 -0.7004 -0.3914
   19A      H3'  602   3.138   4.556   4.989  0.2360 -2.4676 -1.5566
   19A      C2'  603   3.349   4.589   5.042 -0.5833 -0.0618  0.5880
   19A      H2'  604   3.350   4.692   5.005 -0.3749 -0.4114 -0.4297
   19A      O2'  605   3.447   4.565   5.151  0.4903 -0.3559 -0.1926
   19A     HO2'  606   3.532   4.588   5.111  0.2191  0.8693 -0.1197
   19A      O3'  607   3.162   4.584   5.194  0.0576  0.3365  0.0756
   20G        P  608   3.097   4.726   5.204  0.4043  0.5208  0.0705
   20G      OP1  609   3.062   4.751   5.346 -0.4331 -0.0422 -0.5666
   20G      OP2  610   2.992   4.738   5.099  0.3138 -0.2405 -0.8484
   20G      O5'  611   3.210   4.830   5.170 -0.1112  0.1392  0.2978
   20G      C5'  612   3.314   4.859   5.255 -0.3130  0.5421 -0.9770
   20G      H5'  613   3.372   4.768   5.269 -0.8260  0.3950  0.4086
   20G     H5''  614   3.268   4.888   5.350 -2.3876  0.2317 -1.8368
   20G      C4'  615   3.395   4.978   5.203  0.1004 -0.6040 -0.3703
   20G      H4'  616   3.483   4.976   5.268  0.7927  1.0802 -1.1850
   20G      O4'  617   3.433   4.960   5.070  0.3951 -0.6248  0.7063
   20G      C1'  618   3.367   5.061   4.992 -0.1734  0.1711  0.3033
   20G      H1'  619   3.444   5.137   4.979  0.4756 -0.3695  0.8984
   20G       N9  620   3.309   5.011   4.869 -0.3791 -0.2633  0.4395
   20G       C8  621   3.226   4.908   4.843 -0.4006  0.1988 -0.1878
   20G       H8  622   3.194   4.837   4.918  0.9684 -0.0131  0.2170
   20G       N7  623   3.203   4.883   4.718  0.1323 -0.1421  0.0418
   20G       C5  624   3.261   4.991   4.657  0.3981  0.1353  0.4484
   20G       C6  625   3.257   5.031   4.518  0.5593  0.1256  0.3002
   20G       O6  626   3.185   4.983   4.437 -0.0330 -0.4272  0.3604
   20G       N1  627   3.331   5.140   4.485  0.1942 -0.3497  0.3340
   20G       H1  628   3.323   5.175   4.390 -0.1594 -1.3619 -0.0290
   20G       C2  629   3.401   5.208   4.579  0.3824  0.0440 -0.4588
   20G       N2  630   3.455   5.321   4.534  0.5699  0.5209  0.0139
   20G      H21  631   3.446   5.346   4.437 -1.2191  0.5858  0.1649
   20G      H22  632   3.496   5.383   4.603  0.7917  1.4785 -0.9579
   20G       N3  633   3.399   5.187   4.710  0.4705  0.3407  0.5061
   20G       C4  634   3.325   5.071   4.745 -0.0225 -0.1395 -0.3423
   20G      C3'  635   3.329   5.113   5.219  0.1743 -0.3690  0.5422
   20G      H3'  636   3.256   5.123   5.300 -1.1072  3.1927 -0.8354
   20G      C2'  637   3.255   5.114   5.084  0.0724  0.0627  0.4028
   20G      H2'  638   3.170   5.046   5.077 -1.8511  2.4981 -1.3315
   20G      O2'  639   3.217   5.237   5.037 -0.9573 -0.1091 -0.0313
   20G     HO2'  640   3.254   5.305   5.094  1.7160  1.2373 -3.0489
   20G      O3'  641   3.425   5.212   5.228 -0.2433  0.7219 -0.2069
   21U        P  642   3.465   5.284   5.367 -0.2137  0.4515  0.2544
   21U      OP1  643   3.462   5.191   5.486 -0.0851 -0.8277 -0.5908
   21U      OP2  644   3.388   5.414   5.366  0.2156 -0.4722  0.3064
   21U      O5'  645   3.618   5.322   5.335 -0.4088  0.2909 -0.3817
   21U      C5'  646   3.712   5.222   5.350 -0.6014  0.0806  0.0949
   21U      H5'  647   3.684   5.139   5.286 -1.0750  0.2337  0.1006
   21U     H5''  648   3.709   5.189   5.454 -0.7458  0.5454  0.2390
   21U      C4'  649   3.854   5.269   5.315 -0.0681 -0.0172 -0.1601
   21U      H4'  650   3.929   5.194   5.339 -0.5277 -0.7687 -0.9803
   21U      O4'  651   3.856   5.284   5.178 -0.5688  0.6372  0.0927
   21U      C1'  652   3.877   5.423   5.138  0.5683 -0.2394 -0.1034
   21U      H1'  653   3.981   5.442   5.111  0.4963  1.1852  0.5337
   21U       N1  654   3.792   5.457   5.024 -0.1829  0.4664 -0.2825
   21U       C6  655   3.655   5.416   5.015  0.0781 -0.2387  0.0446
   21U       H6  656   3.609   5.370   5.101 -0.5723 -2.2290 -1.2791
   21U       C5  657   3.584   5.444   4.898  0.4032  0.0444 -0.0475
   21U       H5  658   3.478   5.424   4.890 -0.1392  1.2621  2.9053
   21U       C4  659   3.648   5.501   4.787 -0.1509 -0.6979 -0.4736
   21U       O4  660   3.599   5.519   4.678 -0.1692  0.2318 -0.4916
   21U       N3  661   3.780   5.544   4.803  0.5659  0.6978  0.2618
   21U       H3  662   3.833   5.569   4.721  2.7081 -1.5360  0.8569
   21U       C2  663   3.855   5.517   4.913 -0.2946  1.0678 -0.5947
   21U       O2  664   3.978   5.543   4.905  0.4549  0.4533  0.4777
   21U      C3'  665   3.881   5.408   5.377  0.0448 -0.0370 -0.0360
   21U      H3'  666   3.829   5.435   5.469 -0.2921 -0.1083 -0.2030
   21U      C2'  667   3.843   5.504   5.262  0.6911 -0.4007 -0.6409
   21U      H2'  668   3.739   5.536   5.267  1.5515  3.3035 -2.3957
   21U      O2'  669   3.914   5.626   5.253 -0.0454 -0.1582 -0.2105
   21U     HO2'  670   3.914   5.667   5.340 -1.3030  0.2552 -0.3738
   21U      O3'  671   4.020   5.429   5.405 -0.3492  0.2194  0.7424
   22U        P  672   4.062   5.464   5.549  0.3333 -0.2080 -0.4871
   22U      OP1  673   3.963   5.548   5.632 -0.3992 -0.2398  0.0775
   22U      OP2  674   4.205   5.504   5.534  0.1283  1.3139  0.3265
   22U      O5'  675   4.055   5.323   5.622  0.7270 -0.1147 -0.0344
   22U      C5'  676   4.145   5.220   5.587  0.1105  0.6952 -0.0676
   22U      H5'  677   4.247   5.243   5.618 -0.0856 -0.9703  2.0449
   22U     H5''  678   4.149   5.200   5.480  0.2542  2.5990 -0.4365
   22U      C4'  679   4.109   5.091   5.660  0.1453 -0.1908 -0.3128
   22U      H4'  680   4.189   5.019   5.638  0.0948 -0.2824 -0.2028
   22U      O4'  681   4.103   5.122   5.801  0.1027  0.8817  0.1452
   22U      C1'  682   3.965   5.089   5.840 -0.1146 -0.1588  0.0790
   22U      H1'  683   3.972   4.990   5.886 -0.2646  0.4107  1.3556
   22U       N1  684   3.913   5.186   5.935 -0.2521 -0.4132 -0.6262
   22U       C6  685   3.898   5.320   5.906 -0.4249  0.1290 -0.3349
   22U       H6  686   3.911   5.353   5.804 -0.4771  1.5078  0.0869
   22U       C5  687   3.866   5.413   6.000 -0.1582  0.7858 -0.9565
   22U       H5  688   3.860   5.518   5.973  1.6885  1.1162 -0.2766
   22U       C4  689   3.841   5.375   6.141 -1.1325 -0.1051  0.4779
   22U       O4  690   3.829   5.446   6.239  0.1204  0.6186 -0.4078
   22U       N3  691   3.841   5.239   6.160 -0.1807 -0.2501 -0.7453
   22U       H3  692   3.823   5.211   6.255  1.6135  0.9832  0.0224
   22U       C2  693   3.883   5.143   6.065  0.1356  0.0039 -0.3360
   22U       O2  694   3.883   5.024   6.108  0.4620  0.0326  0.2313
   22U      C3'  695   3.972   5.028   5.615 -0.3344 -0.0069 -0.2650
   22U      H3'  696   3.959   5.058   5.511  1.6117  0.5678 -0.3873
   22U      C2'  697   3.875   5.090   5.714  0.2521  0.7911 -0.3962
   22U      H2'  698   3.839   5.188   5.684 -1.3114  0.6303  0.8001
   22U      O2'  699   3.759   5.006   5.733  0.8241 -0.1850 -0.5255
   22U     HO2'  700   3.709   5.009   5.650  0.3036 -0.3417 -0.2208
   22U      O3'  701   3.970   4.888   5.636  0.1221 -0.5724  0.1336
   23A        P  702   4.029   4.791   5.522 -0.2020  0.2409 -0.1028
   23A      OP1  703   4.017   4.658   5.587 -0.6255  0.8821  0.4853
   23A      OP2  704   4.156   4.839   5.463  0.0304  0.2642 -0.0195
   23A      O5'  705   3.926   4.792   5.404  0.2378 -0.0936  0.6985
   23A      C5'  706   3.794   4.750   5.418  0.2247  0.3450 -0.0745
   23A      H5'  707   3.739   4.813   5.488 -1.8031 -1.5419  0.1390
   23A     H5''  708   3.788   4.648   5.457  1.5748  0.1988 -0.1824
   23A      C4'  709   3.727   4.753   5.281  0.0799 -0.2778 -0.7437
   23A      H4'  710   3.626   4.716   5.296  0.0854 -0.5420 -1.3300
   23A      O4'  711   3.737   4.887   5.229 -0.3025 -0.1522 -0.4552
   23A      C1'  712   3.760   4.879   5.090  0.8268 -0.0253 -0.1443
   23A      H1'  713   3.672   4.921   5.041  1.9766  2.0097 -0.6140
   23A       N9  714   3.882   4.954   5.056  0.2890 -0.4373 -0.7843
   23A       C8  715   4.009   4.947   5.115  0.9724  0.6980  0.0418
   23A       H8  716   4.031   4.880   5.198  1.2170  0.3924 -0.2657
   23A       N7  717   4.089   5.038   5.067 -0.0010  0.5344 -0.2224
   23A       C5  718   4.013   5.106   4.967  0.1552  0.7945  0.4813
   23A       C6  719   4.029   5.215   4.880  0.1363 -0.3568  0.1831
   23A       N6  720   4.137   5.293   4.871  0.4906 -0.0307 -0.4249
   23A      H61  721   4.132   5.366   4.802 -1.7428  1.1962  0.9298
   23A      H62  722   4.220   5.271   4.925  1.2387 -2.3395 -2.3488
   23A       N1  723   3.929   5.259   4.799  0.5187 -0.2133 -0.3522
   23A       C2  724   3.814   5.198   4.810  0.3267 -0.8086 -0.1251
   23A       H2  725   3.737   5.240   4.747  0.3483 -0.2599  0.2061
   23A       N3  726   3.781   5.096   4.893  0.0111 -0.6252 -0.0192
   23A       C4  727   3.886   5.057   4.973 -0.5227 -1.0173 -0.2763
   23A      C3'  728   3.800   4.656   5.181  0.0054  0.0603 -0.4346
   23A      H3'  729   3.907   4.653   5.197 -0.2418 -1.6264  1.2579
   23A      C2'  730   3.762   4.728   5.044  0.9711  0.7703 -0.0732
   23A      H2'  731   3.836   4.708   4.966  0.3645  1.7096 -0.8974
   23A      O2'  732   3.624   4.695   5.008  0.1427  0.6494  0.1260
   23A     HO2'  733   3.598   4.746   4.931 -2.9890  1.3918  1.5551
   23A      O3'  734   3.740   4.530   5.182  0.2024  0.0316  0.3067
   24A        P  735   3.816   4.391   5.144 -0.8130 -0.7088  0.4201
   24A      OP1  736   3.964   4.408   5.164  0.5339 -0.2346  0.1785
   24A      OP2  737   3.769   4.348   5.008 -0.2761  0.0216  0.5091
   24A      O5'  738   3.769   4.295   5.258  0.4156  0.0360  0.0626
   24A      C5'  739   3.806   4.311   5.400  0.2450 -0.2338  0.1588
   24A      H5'  740   3.797   4.415   5.433 -1.9549 -1.6493  4.8950
   24A     H5''  741   3.911   4.286   5.415  0.5632  1.1849  0.5136
   24A      C4'  742   3.721   4.223   5.488 -0.5797  0.3197 -0.4633
   24A      H4'  743   3.767   4.227   5.587 -1.8624 -2.4138  0.3668
   24A      O4'  744   3.579   4.251   5.483  0.1506  0.1896  0.0035
   24A      C1'  745   3.513   4.123   5.510 -0.7571 -0.7063  0.3001
   24A      H1'  746   3.443   4.127   5.593  2.1224 -1.1193  2.9230
   24A       N9  747   3.438   4.077   5.392 -0.1399 -0.2896  0.3300
   24A       C8  748   3.448   4.125   5.263 -0.3875 -0.4364  0.3762
   24A       H8  749   3.520   4.202   5.238 -0.0009 -0.8983  0.0463
   24A       N7  750   3.351   4.091   5.188  0.9997 -0.6673 -0.3102
   24A       C5  751   3.280   4.004   5.271 -0.0057  0.2953  0.3251
   24A       C6  752   3.160   3.932   5.257 -0.0740 -0.3863 -0.1828
   24A       N6  753   3.088   3.945   5.143  0.3670 -0.5329 -0.4558
   24A      H61  754   3.018   3.872   5.147 -0.6592  0.4599  0.4051
   24A      H62  755   3.107   4.003   5.062 -1.8924  1.7988  0.5480
   24A       N1  756   3.112   3.844   5.351 -0.0449 -0.3570  0.1190
   24A       C2  757   3.185   3.838   5.462  0.1236  0.0384 -0.1959
   24A       H2  758   3.138   3.786   5.544  0.0769  0.2593 -0.0818
   24A       N3  759   3.298   3.899   5.491  0.0244 -0.5768  0.7950
   24A       C4  760   3.341   3.982   5.390 -0.7818  0.5799 -0.3055
   24A      C3'  761   3.741   4.076   5.452  0.2050 -0.0188 -0.0225
   24A      H3'  762   3.720   4.060   5.346  1.3021  2.3038 -0.6601
   24A      C2'  763   3.631   4.017   5.534 -0.3117  0.3770 -0.4563
   24A      H2'  764   3.611   3.921   5.485  2.7457  0.7257 -2.6279
   24A      O2'  765   3.664   4.003   5.673  0.0483 -0.5445 -0.4591
   24A     HO2'  766   3.597   3.948   5.715 -2.8141  2.3619 -0.7744
   24A      O3'  767   3.875   4.039   5.487  0.0544 -0.3165  0.1232
   25C        P  768   3.950   3.921   5.406 -0.1443 -0.6301 -0.0091
   25C      OP1  769   4.081   3.882   5.466 -0.6336  0.6775 -0.2026
   25C      OP2  770   3.945   3.954   5.262 -0.2131 -0.5347  0.6115
   25C      O5'  771   3.854   3.800   5.436  0.3623  0.2776 -0.7813
   25C      C5'  772   3.851   3.743   5.563 -0.3266 -0.0020 -0.7254
   25C      H5'  773   3.840   3.822   5.638  0.1023  1.6825 -2.3681
   25C     H5''  774   3.951   3.704   5.582 -0.3850  0.1072 -0.1670
   25C      C4'  775   3.754   3.629   5.584 -0.1487 -0.0792 -0.1000
   25C      H4'  776   3.771   3.591   5.684  0.0805 -2.3463 -0.9355
   25C      O4'  777   3.618   3.667   5.561 -0.0122 -0.0354 -0.1001
   25C      C1'  778   3.540   3.561   5.510  0.1575 -0.4947  0.3824
   25C      H1'  779   3.449   3.544   5.568 -0.5364 -1.4901 -0.9530
   25C       N1  780   3.492   3.594   5.371 -0.8821 -0.1886 -0.6816
   25C       C6  781   3.546   3.706   5.299 -0.3139  0.3256 -0.0040
   25C       H6  782   3.627   3.763   5.342  0.6344  0.1887 -1.5279
   25C       C5  783   3.486   3.737   5.183 -0.0835  0.0633 -0.1008
   25C       H5  784   3.531   3.810   5.118 -0.7616  1.7505  1.2148
   25C       C4  785   3.367   3.680   5.145  0.8802  0.1039 -0.6964
   25C       N4  786   3.310   3.716   5.033 -0.2256  0.0264 -0.2293
   25C      H41  787   3.345   3.790   4.974  1.6160 -0.5368  0.1082
   25C      H42  788   3.239   3.654   4.996  1.3577 -2.1428  0.1819
   25C       N3  789   3.307   3.580   5.215  0.3932  0.3557 -0.1983
   25C       C2  790   3.367   3.538   5.330 -0.3429  0.3034  0.2495
   25C       O2  791   3.310   3.458   5.403  0.2354  0.0365 -0.0597
   25C      C3'  792   3.767   3.509   5.485  0.0192  0.4580 -0.5860
   25C      H3'  793   3.780   3.545   5.383  1.6911 -1.3509 -1.0954
   25C      C2'  794   3.629   3.443   5.507 -0.9742 -0.1880 -0.4566
   25C      H2'  795   3.603   3.380   5.422 -3.2429 -0.7477  0.6058
   25C      O2'  796   3.616   3.364   5.629 -0.3269 -0.0519 -0.6112
   25C     HO2'  797   3.668   3.288   5.604 -0.9445 -0.2331 -1.3657
   25C      O3'  798   3.877   3.425   5.522  0.4569 -0.2387  0.3816
   26A        P  799   3.950   3.329   5.409  0.5090  0.0712  0.2514
   26A      OP1  800   4.032   3.231   5.485 -0.2950 -0.2478 -0.0521
   26A      OP2  801   4.009   3.423   5.321  0.2685  0.3258 -0.3975
   26A      O5'  802   3.819   3.259   5.344  0.2388  0.1315 -0.0635
   26A      C5'  803   3.801   3.247   5.204  0.2057 -0.2980  0.1185
   26A      H5'  804   3.862   3.161   5.174  1.6234  1.0544 -1.0626
   26A     H5''  805   3.845   3.331   5.151  0.1066  0.0980  0.6483
   26A      C4'  806   3.651   3.228   5.178 -0.8158  0.0161  0.1665
   26A      H4'  807   3.613   3.179   5.268  2.9897  0.2885  2.1207
   26A      O4'  808   3.592   3.356   5.183 -0.0308 -0.5496 -0.2804
   26A      C1'  809   3.504   3.361   5.069 -0.0572  0.0944 -0.3497
   26A      H1'  810   3.404   3.399   5.092 -1.0547 -1.9871 -0.9981
   26A       N9  811   3.559   3.454   4.964  0.5350 -0.2411 -0.2170
   26A       C8  812   3.658   3.543   4.979 -0.2321  0.2724  0.5550
   26A       H8  813   3.723   3.543   5.066  1.9524  2.7697 -0.9130
   26A       N7  814   3.668   3.636   4.891 -0.5748  0.1679  0.1938
   26A       C5  815   3.565   3.602   4.799  0.5642  0.0430  0.5048
   26A       C6  816   3.519   3.659   4.677  0.3890 -0.1076  0.0354
   26A       N6  817   3.577   3.766   4.624 -0.8353  0.4741 -0.4705
   26A      H61  818   3.529   3.800   4.542 -2.1023  0.5572  0.2817
   26A      H62  819   3.652   3.811   4.673 -2.0135 -0.2439  2.1813
   26A       N1  820   3.415   3.609   4.615 -0.7825  0.3771 -0.0699
   26A       C2  821   3.356   3.502   4.667  0.3051 -0.4448 -0.3356
   26A       H2  822   3.272   3.467   4.610  0.3305  0.2347 -0.8039
   26A       N3  823   3.387   3.444   4.786 -0.1785  0.0148  0.4113
   26A       C4  824   3.490   3.502   4.850 -0.1855  0.0616 -0.4287
   26A      C3'  825   3.629   3.155   5.048  0.1908 -0.3453  0.2881
   26A      H3'  826   3.703   3.178   4.971  1.5090  0.1063  1.6443
   26A      C2'  827   3.483   3.216   5.022 -0.0276 -0.0119  0.4263
   26A      H2'  828   3.464   3.224   4.915  2.6164 -0.8926 -0.1856
   26A      O2'  829   3.386   3.156   5.096  0.1615  0.0539  0.2696
   26A     HO2'  830   3.419   3.081   5.147  1.2404  0.6040  0.4219
   26A      O3'  831   3.635   3.015   5.074 -0.7640  0.7414  0.2172
   27A        P  832   3.681   2.911   4.966  0.2709 -0.4155 -0.0877
   27A      OP1  833   3.658   2.781   5.027  0.5455 -0.5718 -0.1254
   27A      OP2  834   3.818   2.942   4.930  0.4970 -0.2396  0.7084
   27A      O5'  835   3.591   2.921   4.835 -0.3149  0.2634 -0.1142
   27A      C5'  836   3.448   2.881   4.828 -1.3132 -0.3274  0.5081
   27A      H5'  837   3.390   2.933   4.905 -1.3789 -1.0534  0.9579
   27A     H5''  838   3.436   2.774   4.840 -0.9472 -0.4117  0.1626
   27A      C4'  839   3.394   2.933   4.692 -0.0850  0.5639 -0.4513
   27A      H4'  840   3.294   2.891   4.688 -0.5856  0.5288  4.7450
   27A      O4'  841   3.386   3.079   4.692  0.2634 -0.2741 -0.0763
   27A      C1'  842   3.405   3.126   4.557 -0.6999  0.8817  0.3065
   27A      H1'  843   3.318   3.183   4.524  0.3015  2.7680  0.7970
   27A       N9  844   3.524   3.209   4.550 -0.4909  0.4579  0.3124
   27A       C8  845   3.626   3.227   4.647  0.2150 -0.6449  0.1985
   27A       H8  846   3.626   3.172   4.740 -1.5667  1.4145  1.5023
   27A       N7  847   3.714   3.315   4.622  0.0815 -0.1584 -0.0423
   27A       C5  848   3.665   3.374   4.509 -0.4684 -0.2776 -0.8002
   27A       C6  849   3.703   3.485   4.430  0.3908  0.3871 -0.5373
   27A       N6  850   3.815   3.555   4.441 -0.1332 -0.2899 -0.3477
   27A      H61  851   3.830   3.624   4.368  0.2414  0.6650  0.5977
   27A      H62  852   3.879   3.552   4.520  0.8149  2.5356 -0.8850
   27A       N1  853   3.631   3.526   4.327 -0.9322  0.4215  0.3893
   27A       C2  854   3.524   3.454   4.298 -0.4121  0.0829 -1.1064
   27A       H2  855   3.469   3.485   4.210 -0.8754  2.9507  0.0716
   27A       N3  856   3.477   3.346   4.358  0.2260 -0.4468 -0.0037
   27A       C4  857   3.555   3.307   4.461  0.6603  0.1376 -0.2540
   27A      C3'  858   3.467   2.884   4.572  0.0147  0.5621  0.1082
   27A      H3'  859   3.572   2.892   4.603 -0.2277 -1.1279  1.5107
   27A      C2'  860   3.428   3.001   4.479 -0.2632 -0.0422  0.3545
   27A      H2'  861   3.508   3.024   4.409  0.3496  0.1524  1.1153
   27A      O2'  862   3.310   2.969   4.412  0.4482 -0.2169 -0.1378
   27A     HO2'  863   3.238   2.955   4.474  0.1106 -1.2713 -0.7449
   27A      O3'  864   3.412   2.759   4.539 -0.7423  0.1728  0.3975
   28A        P  865   3.509   2.658   4.447 -0.2652  0.1485  0.1724
   28A      OP1  866   3.462   2.524   4.489  0.3606  0.1612  0.2606
   28A      OP2  867   3.653   2.689   4.468  0.3616 -0.7611 -0.2494
   28A      O5'  868   3.472   2.694   4.297  0.2460  0.2700  0.0853
   28A      C5'  869   3.328   2.680   4.254  0.0601 -0.0044  0.4834
   28A      H5'  870   3.270   2.746   4.317 -0.4000 -0.4080  0.4863
   28A     H5''  871   3.298   2.575   4.258 -1.2579  0.3616  0.5666
   28A      C4'  872   3.305   2.727   4.106 -0.4509  0.9102 -0.2937
   28A      H4'  873   3.205   2.696   4.075 -0.5647  0.9682  0.0041
   28A      O4'  874   3.324   2.859   4.091 -0.1811 -0.2539  0.3559
   28A      C1'  875   3.420   2.875   3.987 -0.4224 -0.2097  0.5264
   28A      H1'  876   3.373   2.863   3.889  0.6548  0.5001 -0.0918
   28A       N9  877   3.484   3.014   3.993  0.3070 -0.5998 -0.3762
   28A       C8  878   3.590   3.042   4.078 -0.3687 -0.0971  0.8807
   28A       H8  879   3.625   2.963   4.144 -1.1737 -1.0436  0.2137
   28A       N7  880   3.633   3.164   4.070 -0.1851 -0.0684 -0.3543
   28A       C5  881   3.542   3.224   3.986 -0.5527  0.4480 -0.5020
   28A       C6  882   3.522   3.355   3.944 -0.2121 -0.2344  0.1730
   28A       N6  883   3.602   3.455   3.976  0.0337 -0.5044  0.0166
   28A      H61  884   3.600   3.541   3.923 -0.7456 -1.8264 -2.2324
   28A      H62  885   3.698   3.432   3.997  0.1266 -0.5484 -0.4465
   28A       N1  886   3.428   3.383   3.853 -0.0920 -0.5671 -0.0732
   28A       C2  887   3.346   3.288   3.814  0.2749  0.5944  0.4415
   28A       H2  888   3.275   3.315   3.738 -0.1077 -0.4210  0.4289
   28A       N3  889   3.346   3.164   3.852 -0.3658 -0.1024 -0.1848
   28A       C4  890   3.455   3.132   3.935  0.3972 -0.8208 -0.9117
   28A      C3'  891   3.407   2.645   4.024  0.1775  0.2595  0.0458
   28A      H3'  892   3.447   2.562   4.081 -1.6476 -0.6184  0.1256
   28A      C2'  893   3.515   2.752   3.999  0.5181 -0.1575  0.7351
   28A      H2'  894   3.566   2.756   4.095  0.1769 -2.2040  1.0469
   28A      O2'  895   3.601   2.732   3.890 -0.4171  0.4633 -0.1642
   28A     HO2'  896   3.688   2.702   3.918 -1.1642  0.8570  3.0041
   28A      O3'  897   3.343   2.603   3.904  0.6189 -0.2090  0.2673
   29A        P  898   3.376   2.475   3.817 -0.1416 -0.1223 -0.0981
   29A      OP1  899   3.264   2.377   3.834  0.3376  0.9186  0.2046
   29A      OP2  900   3.509   2.426   3.849  0.4261 -0.2507  0.3097
   29A      O5'  901   3.378   2.526   3.663 -0.3296 -0.1435  0.0376
   29A      C5'  902   3.478   2.609   3.607 -0.4379 -0.1528  0.7720
   29A      H5'  903   3.548   2.545   3.552  0.8039 -0.0975  2.2485
   29A     H5''  904   3.535   2.662   3.683 -2.0207  2.1363  0.4587
   29A      C4'  905   3.402   2.716   3.527 -0.0761 -0.6877 -0.5416
   29A      H4'  906   3.307   2.682   3.487 -1.7061  0.8091  1.8345
   29A      O4'  907   3.382   2.832   3.611  0.3389  0.1916 -0.6145
   29A      C1'  908   3.411   2.949   3.535 -0.6668 -0.3099 -0.5915
   29A      H1'  909   3.328   3.018   3.550 -1.4631 -1.4336  0.3136
   29A       N9  910   3.535   3.015   3.586 -0.1850 -0.6300  1.2204
   29A       C8  911   3.633   2.958   3.663  0.6758 -0.7140  0.9573
   29A       H8  912   3.642   2.853   3.689  0.3534 -0.8291  0.6143
   29A       N7  913   3.725   3.044   3.709  0.3854  0.0568 -0.7881
   29A       C5  914   3.682   3.171   3.659  0.5645 -0.2106  0.1687
   29A       C6  915   3.726   3.302   3.668 -0.3214 -0.5377 -0.2350
   29A       N6  916   3.833   3.342   3.730 -0.1326 -0.3276 -0.2080
   29A      H61  917   3.849   3.441   3.723 -1.2733 -0.2103 -1.4561
   29A      H62  918   3.908   3.283   3.765  0.1917 -0.1563 -0.6036
   29A       N1  919   3.659   3.401   3.605 -0.1438 -0.3210  0.0654
   29A       C2  920   3.544   3.365   3.545 -0.1307 -0.3490 -0.1672
   29A       H2  921   3.504   3.443   3.481 -1.6238 -1.6016 -0.8212
   29A       N3  922   3.490   3.247   3.524 -0.6703  0.6560 -0.3520
   29A       C4  923   3.569   3.152   3.585  0.5228 -0.0795 -0.3346
   29A      C3'  924   3.490   2.771   3.414  0.4522 -0.8123 -0.4698
   29A      H3'  925   3.588   2.783   3.461 -0.1785  0.3760  0.5871
   29A      C2'  926   3.428   2.911   3.387  0.1826  0.6125 -0.5493
   29A      H2'  927   3.498   2.972   3.330 -0.1337  0.6682 -0.8836
   29A      O2'  928   3.311   2.902   3.315  0.7952  0.4765  0.2070
   29A     HO2'  929   3.293   2.994   3.295  1.0932  0.5484  0.2586
   29A      O3'  930   3.498   2.678   3.312 -0.3961  0.1225 -0.5564
   30C        P  931   3.601   2.699   3.200 -0.3169  0.1279  0.0994
   30C      OP1  932   3.552   2.619   3.084 -0.3603 -0.3415 -0.5893
   30C      OP2  933   3.735   2.666   3.252  0.3432  0.3483 -0.4363
   30C      O5'  934   3.610   2.849   3.152  0.4631 -0.5636  0.0148
   30C      C5'  935   3.514   2.906   3.059  0.7133  0.4623  0.2142
   30C      H5'  936   3.410   2.900   3.091  0.7381 -0.0428  0.1977
   30C     H5''  937   3.514   2.856   2.963 -0.8824  0.1892  0.3398
   30C      C4'  938   3.551   3.053   3.036  0.2605  0.2553 -1.4221
   30C      H4'  939   3.478   3.096   2.968 -0.6041  0.8405 -0.1555
   30C      O4'  940   3.543   3.139   3.150  0.0879  0.3908  0.2237
   30C      C1'  941   3.648   3.235   3.149 -0.0243  0.7799 -0.0224
   30C      H1'  942   3.613   3.335   3.174  3.0018  2.0133 -0.2471
   30C       N1  943   3.758   3.204   3.249  0.1781 -0.3689  0.2099
   30C       C6  944   3.765   3.082   3.310  0.1235  0.2471 -0.0334
   30C       H6  945   3.696   3.003   3.284  0.9153 -0.0868 -1.1802
   30C       C5  946   3.857   3.058   3.408 -0.4941 -0.6288 -0.0211
   30C       H5  947   3.875   2.957   3.442  0.7841 -1.1414 -2.0344
   30C       C4  948   3.936   3.170   3.452 -0.1138  0.1756 -0.2896
   30C       N4  949   4.034   3.149   3.533 -0.1040 -0.2272  0.0597
   30C      H41  950   4.052   3.059   3.575  1.3961  0.1632  0.3262
   30C      H42  951   4.073   3.229   3.581  1.6486 -1.2753  0.4776
   30C       N3  952   3.928   3.286   3.395  0.8420  0.4675  0.0007
   30C       C2  953   3.841   3.309   3.298  0.2305  0.3269 -0.5063
   30C       O2  954   3.838   3.421   3.246 -0.1029 -0.2310 -0.7281
   30C      C3'  955   3.693   3.075   2.973  0.5040  0.3666  0.6205
   30C      H3'  956   3.764   3.018   3.033  0.9322  0.5853  0.3254
   30C      C2'  957   3.705   3.227   3.008 -0.6103 -0.5329 -0.0882
   30C      H2'  958   3.808   3.264   3.015 -1.3236  1.5750  0.0715
   30C      O2'  959   3.644   3.322   2.922  0.5515  0.1011  0.3098
   30C     HO2'  960   3.593   3.390   2.966 -0.3541 -0.0129 -0.5201
   30C      O3'  961   3.698   3.031   2.836 -0.0674 -0.2823  0.0065
   31A        P  962   3.832   2.990   2.765  0.0169 -0.0034  0.0763
   31A      OP1  963   3.806   2.944   2.621  1.2255 -0.6946 -0.0799
   31A      OP2  964   3.912   2.904   2.848  0.0568  0.5591  0.4401
   31A      O5'  965   3.915   3.135   2.744  0.4950  0.6997 -0.2070
   31A      C5'  966   3.865   3.243   2.658  0.1461 -0.5707 -0.3340
   31A      H5'  967   3.791   3.303   2.711  1.3020  1.4294 -0.8761
   31A     H5''  968   3.831   3.209   2.560 -0.4357  0.1743 -0.3987
   31A      C4'  969   3.984   3.340   2.631 -0.2333 -0.6576  0.2574
   31A      H4'  970   3.950   3.417   2.561 -5.2867 -2.3380  0.4460
   31A      O4'  971   4.022   3.400   2.757 -0.3823 -0.5577 -0.7040
   31A      C1'  972   4.160   3.375   2.794 -0.1430 -0.0492 -0.0072
   31A      H1'  973   4.215   3.466   2.769 -0.3336  0.5682  1.7138
   31A       N9  974   4.151   3.344   2.940 -0.3763 -0.1077 -0.2807
   31A       C8  975   4.077   3.252   3.001 -0.2514 -0.1922  0.6127
   31A       H8  976   3.992   3.213   2.946  0.6552 -1.3366 -0.0264
   31A       N7  977   4.094   3.234   3.130  0.0209 -0.0514  0.1738
   31A       C5  978   4.211   3.306   3.148  0.4023  0.0851 -0.1917
   31A       C6  979   4.298   3.333   3.259  0.5158 -0.3317  0.4629
   31A       N6  980   4.285   3.279   3.377  0.0608  0.6016 -0.5035
   31A      H61  981   4.335   3.317   3.456  1.5182 -2.1376 -0.0177
   31A      H62  982   4.202   3.224   3.391 -0.2549  1.3427  0.7879
   31A       N1  983   4.399   3.415   3.245 -0.0085 -0.0675  0.0789
   31A       C2  984   4.411   3.475   3.134 -0.6959 -0.7002 -0.1426
   31A       H2  985   4.491   3.547   3.130 -0.9654 -0.4744 -2.2898
   31A       N3  986   4.341   3.468   3.021  0.7103 -0.0405 -0.8402
   31A       C4  987   4.232   3.386   3.037 -0.1177 -0.6620 -0.1631
   31A      C3'  988   4.117   3.270   2.580  0.0815  0.3519  0.6224
   31A      H3'  989   4.097   3.169   2.544 -1.3626  1.1292 -0.8752
   31A      C2'  990   4.206   3.261   2.707  0.1404  0.6485  0.1023
   31A      H2'  991   4.181   3.166   2.753 -0.6316 -1.3467 -3.9488
   31A      O2'  992   4.348   3.274   2.681  0.3717 -0.4857 -0.5652
   31A     HO2'  993   4.400   3.238   2.754  0.2077 -0.1890 -0.2952
   31A      O3'  994   4.183   3.349   2.478  0.5172  0.1206 -0.0366
   32A        P  995   4.223   3.289   2.336  0.0964  0.2223  0.2324
   32A      OP1  996   4.099   3.292   2.253 -0.6877 -0.3081  0.0140
   32A      OP2  997   4.307   3.172   2.355  0.4908  0.7745  0.3506
   32A      O5'  998   4.316   3.400   2.277 -1.0031 -0.0945  0.5418
   32A      C5'  999   4.265   3.511   2.207 -0.4357  0.3143 -0.5985
   32A      H5' 1000   4.180   3.546   2.266 -0.3957 -2.9962  1.7079
   32A     H5'' 1001   4.227   3.472   2.112  0.0453 -1.3426 -0.1465
   32A      C4' 1002   4.364   3.617   2.192  0.6494  0.5480 -0.3184
   32A      H4' 1003   4.319   3.700   2.137  2.8446  3.3662  1.8324
   32A      O4' 1004   4.382   3.681   2.319 -0.0790  0.6112  0.0535
   32A      C1' 1005   4.518   3.719   2.331  0.8767 -0.0418  0.8302
   32A      H1' 1006   4.524   3.826   2.348  0.9252  0.2368 -0.8029
   32A       N9 1007   4.577   3.642   2.442 -0.2204 -0.5452 -0.4164
   32A       C8 1008   4.532   3.531   2.503 -0.5764  0.2527 -0.7672
   32A       H8 1009   4.455   3.466   2.464  0.3604 -0.1442 -2.0256
   32A       N7 1010   4.591   3.501   2.612  0.3599  0.3771  0.0781
   32A       C5 1011   4.695   3.595   2.618  0.4262  0.8580  0.7942
   32A       C6 1012   4.810   3.617   2.705  0.2220 -0.0415  0.2943
   32A       N6 1013   4.832   3.558   2.818 -0.9189 -0.0452 -0.0390
   32A      H61 1014   4.917   3.575   2.869 -0.0803 -0.2982 -1.3019
   32A      H62 1015   4.761   3.491   2.844 -1.3197  0.3703 -0.0408
   32A       N1 1016   4.904   3.703   2.675 -0.2678  0.0361  0.9659
   32A       C2 1017   4.886   3.773   2.561  0.2053  0.1097 -0.1075
   32A       H2 1018   4.961   3.845   2.534  0.4367 -0.1085 -0.0538
   32A       N3 1019   4.783   3.771   2.480 -0.1441 -0.1991 -0.6832
   32A       C4 1020   4.692   3.677   2.509 -0.8956  0.1070 -0.1058
   32A      C3' 1021   4.504   3.572   2.143 -0.2637 -0.5406  0.0743
   32A      H3' 1022   4.547   3.488   2.198  0.8723 -0.3630 -0.5037
   32A      C2' 1023   4.579   3.696   2.188 -0.2644 -0.6214  0.5759
   32A      H2' 1024   4.686   3.681   2.176 -0.4628 -0.9590 -1.1302
   32A      O2' 1025   4.562   3.806   2.096 -0.2731  0.3266 -0.5896
   32A     HO2' 1026   4.614   3.777   2.021  2.3881 -2.0367  1.9289
   32A      O3' 1027   4.520   3.552   2.001 -0.1770  0.4171  0.2950
   33G3       P 1028   4.567   3.410   1.938  0.2446  0.1851  0.1603
   33G3     OP1 1029   4.607   3.429   1.801  0.4074 -0.2260  0.1660
   33G3     OP2 1030   4.471   3.309   1.980 -0.4386 -0.1456  0.0017
   33G3     O5' 1031   4.697   3.388   2.018 -0.1032 -0.3430 -0.0085
   33G3     C5' 1032   4.812   3.471   1.996 -0.1212 -0.5555  0.5551
   33G3     H5' 1033   4.781   3.574   1.978 -0.4150 -0.7343  0.0068
   33G3    H5'' 1034   4.863   3.429   1.909 -2.1879 -2.2402  0.0587
   33G3     C4' 1035   4.909   3.468   2.115  0.3184 -0.7894  0.2811
   33G3     H4' 1036   4.982   3.548   2.101 -0.3614 -0.5266 -2.4162
   33G3     O4' 1037   4.841   3.478   2.240 -0.4019  0.1876 -0.4307
   33G3     C1' 1038   4.915   3.418   2.342  0.9248  0.3804 -0.7712
   33G3     H1' 1039   4.946   3.481   2.426 -0.0517 -0.1888  0.0501
   33G3      N9 1040   4.828   3.314   2.394 -0.2442  0.3735 -0.6239
   33G3      C8 1041   4.711   3.262   2.338 -0.0601 -0.1149  0.7851
   33G3      H8 1042   4.659   3.293   2.249 -2.0102 -2.5838  0.9646
   33G3      N7 1043   4.657   3.166   2.410 -0.3012  0.1184 -0.1721
   33G3      C5 1044   4.740   3.162   2.525  0.1289 -0.1245 -0.3841
   33G3      C6 1045   4.734   3.082   2.640 -0.1472  1.0521  0.1028
   33G3      O6 1046   4.649   3.004   2.674  0.0752  0.2089 -0.2915
   33G3      N1 1047   4.834   3.108   2.730 -0.0065 -0.2940  0.3396
   33G3      H1 1048   4.845   3.043   2.806  1.5483 -0.6779 -0.1838
   33G3      C2 1049   4.927   3.206   2.716  0.0852 -0.0787  0.2336
   33G3      N2 1050   5.028   3.199   2.792 -0.5394 -0.4068 -0.3456
   33G3     H21 1051   5.028   3.132   2.867 -0.9359 -0.9133 -0.7871
   33G3     H22 1052   5.093   3.275   2.779 -0.9433  0.0006 -0.0276
   33G3      N3 1053   4.938   3.285   2.605 -0.1785  0.2245 -0.2305
   33G3      C4 1054   4.842   3.254   2.517  0.2099  0.3456 -0.0847
   33G3     C3' 1055   4.977   3.331   2.134  1.1582  0.1046 -0.6411
   33G3     H3' 1056   4.907   3.247   2.136  0.5904  0.5641 -1.0014
   33G3     C2' 1057   5.030   3.353   2.274  0.3684  0.8893  0.0482
   33G3     H2' 1058   5.045   3.256   2.320 -0.7963  1.0851  0.8892
   33G3     O2' 1059   5.146   3.429   2.295  0.2623  0.1014  0.0305
   33G3    HO2' 1060   5.225   3.373   2.299  0.1106 -0.2603 -1.4959
   33G3     O3' 1061   5.084   3.311   2.046 -0.2543 -0.1148  0.4592
   33G3    HO3' 1062   5.143   3.247   2.086 -1.1379 -0.9480  0.4709
   8.09217   8.04338   8.05573
