Generic title
57072
    1C5    HO5'    1   3.427   5.418   3.668 -0.7040 -2.0412 -1.0659
    1C5     O5'    2   3.491   5.442   3.601  0.0313  0.2879  0.3761
    1C5     C5'    3   3.610   5.404   3.664  0.0830  0.6397 -0.5040
    1C5     H5'    4   3.702   5.428   3.610  0.1163 -0.1896 -0.8247
    1C5    H5''    5   3.609   5.297   3.680  1.6700  0.3189 -2.2195
    1C5     C4'    6   3.612   5.476   3.796  0.2733  0.0487  0.1264
    1C5     H4'    7   3.639   5.578   3.769 -1.3461  0.1613 -1.2130
    1C5     O4'    8   3.487   5.477   3.868 -0.3670 -0.4701 -0.4730
    1C5     C1'    9   3.501   5.460   4.007 -0.0986  0.2447  0.0330
    1C5     H1'   10   3.465   5.550   4.057 -0.8921 -0.0549  0.0031
    1C5      N1   11   3.442   5.333   4.050  0.3138 -0.5943  0.8498
    1C5      C6   12   3.407   5.238   3.954  0.0139  0.0304 -0.2605
    1C5      H6   13   3.428   5.244   3.848  0.4574 -1.1970 -0.2491
    1C5      C5   14   3.354   5.123   3.998 -0.8456 -0.1618 -0.0777
    1C5      H5   15   3.340   5.041   3.929  0.2504  2.0917 -3.1968
    1C5      C4   16   3.327   5.116   4.139 -0.2391  0.6901 -0.0311
    1C5      N4   17   3.256   5.009   4.172 -0.2493 -0.5454 -0.3666
    1C5     H41   18   3.241   4.950   4.091 -0.8096 -1.9870  0.7420
    1C5     H42   19   3.261   4.977   4.267 -2.2099 -0.1580 -0.0790
    1C5      N3   20   3.373   5.197   4.229  0.3613 -0.8197  0.9880
    1C5      C2   21   3.437   5.303   4.182 -0.4761 -0.3676  0.1496
    1C5      O2   22   3.466   5.384   4.272  1.0661 -0.2065  0.1412
    1C5     C3'   23   3.712   5.417   3.898  0.2555 -0.1025  0.2167
    1C5     H3'   24   3.710   5.309   3.885  1.5348  0.0871 -2.2006
    1C5     C2'   25   3.653   5.464   4.029 -0.2155  0.1115 -0.1017
    1C5     H2'   26   3.677   5.408   4.119 -1.2057 -0.2797 -0.0666
    1C5     O2'   27   3.685   5.597   4.056 -0.2065 -0.2005  0.1877
    1C5    HO2'   28   3.779   5.608   4.044  0.3237 -3.4660  0.4295
    1C5     O3'   29   3.840   5.474   3.879 -0.0831 -0.7259  0.1394
    2U        P   30   3.959   5.389   3.905 -0.1010 -0.1618  0.3447
    2U      OP1   31   4.086   5.457   3.873  0.1819 -0.9882 -0.3734
    2U      OP2   32   3.931   5.260   3.833 -0.3428 -0.8123 -0.1223
    2U      O5'   33   3.952   5.360   4.062  0.4198 -0.0449 -0.5588
    2U      C5'   34   3.989   5.458   4.156 -0.1440 -0.2735 -0.5880
    2U      H5'   35   3.935   5.553   4.144  0.9368  0.8475  2.4531
    2U     H5''   36   4.095   5.482   4.152 -0.0190 -0.6099  0.3590
    2U      C4'   37   3.973   5.413   4.301 -0.2722 -0.5141  0.2068
    2U      H4'   38   4.008   5.495   4.364  3.1837 -1.4167 -0.3684
    2U      O4'   39   3.838   5.386   4.320  0.5088 -0.1000 -0.8001
    2U      C1'   40   3.822   5.285   4.421  0.2589  0.9624  0.1181
    2U      H1'   41   3.774   5.338   4.503 -0.3530 -0.4670  0.7289
    2U       N1   42   3.746   5.172   4.360  0.0009 -0.4206  0.8221
    2U       C6   43   3.743   5.158   4.219 -0.1758  0.3850  0.2379
    2U       H6   44   3.791   5.229   4.153  1.9770  1.7738  3.0808
    2U       C5   45   3.683   5.050   4.165 -0.2861 -0.0900  0.0219
    2U       H5   46   3.663   5.053   4.059  1.2115  0.6917 -0.2689
    2U       C4   47   3.631   4.946   4.250  0.1216  0.5271 -0.2430
    2U       O4   48   3.565   4.851   4.206  0.4377 -0.6126  0.1874
    2U       N3   49   3.643   4.961   4.384 -0.4476 -0.1087 -0.4531
    2U       H3   50   3.602   4.889   4.442 -0.7565 -0.3923 -1.0189
    2U       C2   51   3.690   5.075   4.443  0.8788  0.0905  0.3472
    2U       O2   52   3.692   5.086   4.563  0.6712  0.9093  0.3459
    2U      C3'   53   4.040   5.282   4.324 -0.5330  0.3928  0.0237
    2U      H3'   54   4.009   5.213   4.245  0.5718 -2.3072  1.7925
    2U      C2'   55   3.965   5.249   4.451  0.2347  0.0942 -0.5690
    2U      H2'   56   3.965   5.143   4.477 -1.1322  0.3168  0.4614
    2U      O2'   57   4.002   5.333   4.560  0.3559 -0.7112 -0.0493
    2U     HO2'   58   3.985   5.287   4.642  2.8117 -1.3791  0.1576
    2U      O3'   59   4.182   5.289   4.349  1.2107 -0.6761  0.1596
    3G        P   60   4.263   5.158   4.337  0.1766 -0.3396 -0.0475
    3G      OP1   61   4.404   5.201   4.349 -0.1616  0.0453 -0.4561
    3G      OP2   62   4.223   5.080   4.219 -0.0382 -0.0651  0.4347
    3G      O5'   63   4.225   5.068   4.457  0.5684 -0.1958 -0.3296
    3G      C5'   64   4.270   5.106   4.593  0.0112 -0.6517  0.7545
    3G      H5'   65   4.232   5.204   4.620 -0.3914 -0.7275  0.4754
    3G     H5''   66   4.379   5.107   4.588  0.0338 -2.8279 -1.4402
    3G      C4'   67   4.222   5.004   4.693 -0.0554 -0.8763  0.0134
    3G      H4'   68   4.273   5.025   4.787  0.1055  0.2182 -0.3003
    3G      O4'   69   4.076   4.999   4.706 -0.1538  0.1996  0.4435
    3G      C1'   70   4.033   4.864   4.721 -0.4173  0.2380  0.0128
    3G      H1'   71   3.966   4.859   4.807 -1.9552  1.3936 -1.0479
    3G       N9   72   3.962   4.811   4.607  0.4739  0.6459 -0.0611
    3G       C8   73   3.961   4.857   4.481 -0.1932 -0.2397  0.4924
    3G       H8   74   4.002   4.950   4.447  0.3823 -0.4924  0.4848
    3G       N7   75   3.898   4.780   4.397  0.5732  0.0032 -0.0902
    3G       C5   76   3.852   4.676   4.479  0.5157 -0.6446  0.9288
    3G       C6   77   3.762   4.565   4.450  0.2237 -0.5589 -0.1987
    3G       O6   78   3.702   4.532   4.348 -0.5347  0.0643 -1.1915
    3G       N1   79   3.736   4.487   4.560  0.4093  0.2121  0.2289
    3G       H1   80   3.660   4.420   4.556 -0.0283  0.7905 -1.9121
    3G       C2   81   3.769   4.521   4.686 -0.2150  0.0285 -0.3296
    3G       N2   82   3.745   4.433   4.774  0.0517  0.8701 -0.0016
    3G      H21   83   3.698   4.347   4.749 -0.8697  1.3352  0.0867
    3G      H22   84   3.780   4.435   4.869 -1.2570 -0.6289  0.5676
    3G       N3   85   3.856   4.613   4.721  0.3418 -0.3654  0.1801
    3G       C4   86   3.892   4.693   4.609  0.2970 -0.0065  0.1355
    3G      C3'   87   4.255   4.856   4.650 -0.7794  0.4474  0.4296
    3G      H3'   88   4.231   4.843   4.545 -0.1393 -0.5168  0.3939
    3G      C2'   89   4.159   4.783   4.739  0.0306  0.3423 -0.5225
    3G      H2'   90   4.150   4.681   4.702  1.0103 -0.4011  1.1536
    3G      O2'   91   4.202   4.790   4.873 -0.4946 -0.4424 -0.3581
    3G     HO2'   92   4.161   4.717   4.920 -3.0962  0.6838 -0.6944
    3G      O3'   93   4.394   4.831   4.673  0.3832 -0.0612  0.5828
    4G        P   94   4.462   4.709   4.596  0.0473 -0.0274 -0.1997
    4G      OP1   95   4.596   4.701   4.639  0.0390  0.2722 -0.4150
    4G      OP2   96   4.436   4.736   4.456 -0.1170 -0.3997  0.3626
    4G      O5'   97   4.387   4.572   4.641 -0.1014  0.4399  0.3404
    4G      C5'   98   4.400   4.533   4.777  0.2263  0.1032  0.2544
    4G      H5'   99   4.388   4.621   4.840 -0.8455  0.8279 -0.9190
    4G     H5''  100   4.504   4.510   4.798  0.8367  0.6792 -1.8935
    4G      C4'  101   4.309   4.418   4.811  0.0870  0.0274 -0.1763
    4G      H4'  102   4.321   4.400   4.918 -1.7180 -0.0509  0.0463
    4G      O4'  103   4.168   4.460   4.790  0.3345  0.0315 -0.1191
    4G      C1'  104   4.097   4.355   4.731 -0.3545  0.0743  0.4988
    4G      H1'  105   4.005   4.335   4.786  0.6933 -1.7238  1.7042
    4G       N9  106   4.060   4.370   4.591 -0.6258 -0.0528  0.4669
    4G       C8  107   4.118   4.446   4.494 -0.0962  0.3903  0.5638
    4G       H8  108   4.199   4.515   4.511  2.1757 -1.7077 -1.1081
    4G       N7  109   4.069   4.416   4.373 -0.1035 -0.2314  0.0222
    4G       C5  110   3.969   4.325   4.397 -0.6435 -0.3486  0.4825
    4G       C6  111   3.879   4.267   4.305  0.1917  0.0511 -0.3488
    4G       O6  112   3.868   4.289   4.185  0.8353 -0.3525 -0.4345
    4G       N1  113   3.807   4.168   4.362  0.2578 -0.1031 -0.0358
    4G       H1  114   3.740   4.122   4.301 -0.7018  0.1475  0.8054
    4G       C2  115   3.817   4.132   4.494  0.3930  0.0665  0.4539
    4G       N2  116   3.755   4.022   4.521 -0.2509  0.4828  0.2940
    4G      H21  117   3.717   3.961   4.450  0.0151 -0.0324  0.5895
    4G      H22  118   3.755   3.990   4.616 -1.0147 -0.2794  0.0512
    4G       N3  119   3.889   4.197   4.584  0.0517  0.5978  0.4663
    4G       C4  120   3.968   4.295   4.529 -0.0741  0.2817  0.3737
    4G      C3'  121   4.323   4.290   4.734  0.0177  0.2661 -0.1372
    4G      H3'  122   4.332   4.315   4.629 -0.1014  0.7762 -0.0295
    4G      C2'  123   4.184   4.232   4.752 -0.4649  0.4614  0.5092
    4G      H2'  124   4.163   4.160   4.673 -2.1050  1.4933 -0.0497
    4G      O2'  125   4.170   4.179   4.887  0.7958 -0.0640  0.1709
    4G     HO2'  126   4.075   4.169   4.896  0.7943  0.4000  0.7322
    4G      O3'  127   4.439   4.215   4.769 -0.0166  0.5542  0.5803
    5G        P  128   4.505   4.102   4.681  0.4502 -0.2096  0.3437
    5G      OP1  129   4.620   4.045   4.754  0.0436 -0.2081 -0.1413
    5G      OP2  130   4.528   4.161   4.544  0.0878  0.7904 -0.3686
    5G      O5'  131   4.396   3.990   4.654 -0.5418 -0.1348  0.4886
    5G      C5'  132   4.352   3.915   4.759  0.1655 -0.2823  0.1263
    5G      H5'  133   4.307   3.977   4.837  1.3842  1.3101 -0.3719
    5G     H5''  134   4.423   3.848   4.806  0.5009  0.2647  0.4116
    5G      C4'  135   4.241   3.821   4.704  0.3408 -1.1763 -0.4712
    5G      H4'  136   4.213   3.763   4.793 -0.9549  2.2170  1.5479
    5G      O4'  137   4.122   3.894   4.670 -0.8415 -0.1924 -0.3125
    5G      C1'  138   4.074   3.817   4.561  0.2273 -0.8344 -0.1155
    5G      H1'  139   3.967   3.799   4.572  0.1342 -1.3959 -1.6909
    5G       N9  140   4.091   3.899   4.437 -0.0891  0.1710  0.1612
    5G       C8  141   4.177   3.999   4.408 -0.4641 -0.1763  0.4963
    5G       H8  142   4.263   4.032   4.464  1.9502  0.7108 -3.2982
    5G       N7  143   4.164   4.057   4.290 -0.4400 -0.7006 -0.1891
    5G       C5  144   4.054   3.990   4.235 -0.2337 -0.4058 -0.2672
    5G       C6  145   3.982   4.004   4.109 -0.5452 -0.3614  0.4519
    5G       O6  146   4.000   4.092   4.022 -0.2612 -0.5703 -0.3552
    5G       N1  147   3.884   3.912   4.091  0.3488 -0.1213 -0.2470
    5G       H1  148   3.834   3.914   4.003  0.7513 -1.5651 -0.5400
    5G       C2  149   3.852   3.813   4.177 -0.4014 -0.3633  0.3507
    5G       N2  150   3.753   3.733   4.151 -0.1872  1.1412 -0.2850
    5G      H21  151   3.704   3.737   4.063 -2.2765  2.4041  0.8552
    5G      H22  152   3.703   3.682   4.222 -0.3990  0.4872 -0.8916
    5G       N3  153   3.905   3.802   4.298  0.4354  0.9437  0.6041
    5G       C4  154   4.009   3.887   4.318 -0.2380 -0.6203 -0.2969
    5G      C3'  155   4.277   3.733   4.586 -1.3528 -0.1863 -0.8756
    5G      H3'  156   4.334   3.788   4.511  0.2899 -1.5051 -0.6572
    5G      C2'  157   4.145   3.684   4.550  0.6737 -0.0949  0.2752
    5G      H2'  158   4.140   3.646   4.448 -0.5116 -0.6300  0.5192
    5G      O2'  159   4.097   3.590   4.639 -0.1396  0.3627 -0.0066
    5G     HO2'  160   4.168   3.532   4.664  0.2089 -0.0090 -1.7187
    5G      O3'  161   4.361   3.632   4.629 -0.5465  0.8860 -0.3167
    6U        P  162   4.438   3.531   4.524  0.0969  0.3133 -0.2189
    6U      OP1  163   4.572   3.493   4.577  0.5177 -0.0287  0.3159
    6U      OP2  164   4.430   3.585   4.382  0.2080 -0.7816  0.3673
    6U      O5'  165   4.347   3.400   4.537  0.0309 -0.0408 -0.2520
    6U      C5'  166   4.345   3.324   4.663  0.4045 -0.1538 -0.4695
    6U      H5'  167   4.324   3.384   4.752  0.4944 -0.7372 -0.0479
    6U     H5''  168   4.444   3.281   4.678  1.4061  2.2395  0.4074
    6U      C4'  169   4.236   3.217   4.658  0.5881  1.0099  0.3815
    6U      H4'  170   4.232   3.169   4.756 -1.4858 -0.3636 -0.3030
    6U      O4'  171   4.107   3.282   4.637 -0.2484  0.7237  0.3089
    6U      C1'  172   4.036   3.197   4.550  0.1371  0.5727  0.1634
    6U      H1'  173   3.943   3.162   4.595  0.5791 -2.3543 -0.9967
    6U       N1  174   4.020   3.243   4.410  0.0611 -0.1655 -0.1612
    6U       C6  175   4.079   3.360   4.364 -0.7595 -1.0872  0.5008
    6U       H6  176   4.158   3.411   4.415 -2.0380  3.1575 -1.3532
    6U       C5  177   4.041   3.426   4.248 -0.1837  0.5082 -0.0122
    6U       H5  178   4.069   3.526   4.219 -1.4409  1.4091  1.6749
    6U       C4  179   3.928   3.373   4.168 -0.5008 -0.1698  0.4128
    6U       O4  180   3.887   3.419   4.060  0.3776  0.6298  0.2684
    6U       N3  181   3.872   3.254   4.224  0.0144 -0.2824 -0.0245
    6U       H3  182   3.792   3.218   4.175 -0.5323  0.5186  0.2679
    6U       C2  183   3.926   3.177   4.330 -0.2271  0.1284  0.2889
    6U       O2  184   3.873   3.073   4.363  0.5355 -0.2311  0.2591
    6U      C3'  185   4.257   3.111   4.556  0.7686 -0.4029 -0.2347
    6U      H3'  186   4.286   3.164   4.466 -1.5715  1.5298  0.0457
    6U      C2'  187   4.117   3.063   4.544 -0.5076 -0.0336  0.1379
    6U      H2'  188   4.113   3.017   4.446  2.0880 -3.7484  1.5643
    6U      O2'  189   4.086   2.967   4.646 -0.0012 -0.1027  0.3988
    6U     HO2'  190   4.003   2.925   4.623  0.8396 -2.3717  1.2341
    6U      O3'  191   4.348   3.008   4.604  0.2307 -0.5483  0.1201
    7C        P  192   4.450   2.950   4.497 -0.5271 -0.3557  0.4506
    7C      OP1  193   4.500   2.830   4.571  0.3043 -0.3939 -0.2483
    7C      OP2  194   4.546   3.056   4.465 -0.3060  0.4601 -0.1214
    7C      O5'  195   4.367   2.910   4.366  0.2098 -0.3694  0.0673
    7C      C5'  196   4.271   2.802   4.365 -0.1247 -0.9321  0.3775
    7C      H5'  197   4.218   2.795   4.459 -0.2998 -0.4048  0.3169
    7C     H5''  198   4.319   2.704   4.358 -0.1262 -0.9619  0.7804
    7C      C4'  199   4.186   2.816   4.240  0.6839  0.3426  0.3475
    7C      H4'  200   4.124   2.726   4.237  0.0148  0.7865  0.5440
    7C      O4'  201   4.105   2.928   4.230  0.2454 -0.2227 -0.0911
    7C      C1'  202   4.103   2.968   4.093 -0.2707  0.1667 -0.3709
    7C      H1'  203   4.002   2.965   4.054  0.7546  0.0553 -3.1883
    7C       N1  204   4.164   3.103   4.075  0.3265  0.6211  0.2889
    7C       C6  205   4.266   3.148   4.157  0.0264  0.2433 -0.9719
    7C       H6  206   4.289   3.094   4.247 -1.0325 -2.2984 -2.1314
    7C       C5  207   4.342   3.258   4.121  0.0625 -0.4640 -0.0754
    7C       H5  208   4.404   3.301   4.198  0.6010 -0.4291 -0.5159
    7C       C4  209   4.298   3.330   4.005  0.0618  0.2817  0.2737
    7C       N4  210   4.351   3.439   3.964  0.3812  0.0728 -0.5387
    7C      H41  211   4.440   3.464   4.006  0.5890 -3.1478  1.2429
    7C      H42  212   4.317   3.482   3.879  1.8488 -0.4446 -1.4253
    7C       N3  213   4.203   3.289   3.931 -0.0004 -0.2233 -0.2916
    7C       C2  214   4.134   3.181   3.960 -0.5451  0.7956  0.5080
    7C       O2  215   4.043   3.143   3.889  0.2318 -0.1285 -0.1906
    7C      C3'  216   4.269   2.817   4.113 -0.8469 -0.6284 -0.2527
    7C      H3'  217   4.357   2.881   4.121 -1.0599  0.1155 -2.8996
    7C      C2'  218   4.180   2.868   4.006 -1.2071  0.1524  0.4203
    7C      H2'  219   4.234   2.916   3.925 -2.1998 -0.9259 -0.9123
    7C      O2'  220   4.081   2.778   3.960 -0.3128 -0.5665 -0.1311
    7C     HO2'  221   4.044   2.803   3.874  1.8172 -0.7413 -1.1587
    7C      O3'  222   4.316   2.695   4.077 -0.6665  0.4296 -0.5104
    8G        P  223   4.472   2.667   4.033  0.0694 -0.0784 -0.0048
    8G      OP1  224   4.490   2.527   3.992  0.3602 -0.0639  0.0723
    8G      OP2  225   4.555   2.729   4.137  0.8056 -0.0300 -0.1381
    8G      O5'  226   4.484   2.757   3.905  0.8240 -0.4030  0.1972
    8G      C5'  227   4.419   2.704   3.786  0.8168 -0.1434 -0.7036
    8G      H5'  228   4.315   2.682   3.811  1.0250 -0.9399 -0.5023
    8G     H5''  229   4.462   2.606   3.764  3.5035  0.7059  0.3259
    8G      C4'  230   4.435   2.791   3.658  0.6041  0.0942 -0.0432
    8G      H4'  231   4.393   2.739   3.571  0.2082  1.8876 -0.9686
    8G      O4'  232   4.374   2.913   3.677 -0.4363  0.3014 -0.2751
    8G      C1'  233   4.456   3.009   3.620  0.0123 -0.1843 -0.2971
    8G      H1'  234   4.400   3.077   3.556  0.5947 -0.0185 -0.6422
    8G       N9  235   4.511   3.104   3.721  1.0419 -0.2145  0.2045
    8G       C8  236   4.550   3.076   3.853 -0.5426  0.1278  0.4993
    8G       H8  237   4.525   2.994   3.917 -0.0999  0.7298  1.4676
    8G       N7  238   4.630   3.173   3.901  0.2699  0.5928 -0.3947
    8G       C5  239   4.630   3.268   3.803  0.3530 -0.3829  0.8061
    8G       C6  240   4.688   3.398   3.803  0.0675  0.2606 -0.2252
    8G       O6  241   4.731   3.461   3.901 -0.7024  0.4180 -0.1035
    8G       N1  242   4.671   3.469   3.686  0.5675 -0.4107 -0.3169
    8G       H1  243   4.719   3.556   3.669 -0.5398  0.0757 -1.0886
    8G       C2  244   4.602   3.419   3.582 -0.6274 -0.0402  0.2844
    8G       N2  245   4.601   3.498   3.474  0.5720  0.2551  0.4377
    8G      H21  246   4.633   3.594   3.475 -0.6235  0.8196 -3.0104
    8G      H22  247   4.553   3.463   3.393  1.3254  0.8517 -0.2775
    8G       N3  248   4.551   3.296   3.571  0.0399  0.1750  0.1845
    8G       C4  249   4.565   3.226   3.688 -0.4301 -0.3857  0.9563
    8G      C3'  250   4.584   2.814   3.622  0.2678 -0.5635 -0.4230
    8G      H3'  251   4.642   2.836   3.712 -1.3435 -0.5861  0.6677
    8G      C2'  252   4.577   2.944   3.545  0.4499  0.0876  0.4334
    8G      H2'  253   4.667   3.003   3.563 -0.1393  1.7051 -1.5172
    8G      O2'  254   4.554   2.929   3.403  0.1280  0.0646 -0.7117
    8G     HO2'  255   4.590   3.001   3.352 -0.4384 -1.2176 -3.0559
    8G      O3'  256   4.639   2.707   3.554  0.0842  0.4129  0.7488
    9C        P  257   4.783   2.651   3.581  0.2521  0.1560  0.3890
    9C      OP1  258   4.808   2.537   3.494 -0.2774 -1.0266  0.2052
    9C      OP2  259   4.802   2.633   3.730  0.3248  0.2106  0.5054
    9C      O5'  260   4.887   2.767   3.549 -0.3795 -0.2729 -0.4933
    9C      C5'  261   5.023   2.753   3.583 -0.1421  0.8124  0.5073
    9C      H5'  262   5.041   2.646   3.566  0.2610  0.9306  0.1590
    9C     H5''  263   5.037   2.770   3.689  1.2498  3.2072  0.0117
    9C      C4'  264   5.119   2.836   3.494 -0.1171 -0.6423 -0.3169
    9C      H4'  265   5.221   2.832   3.532 -0.0478 -0.6241 -0.4986
    9C      O4'  266   5.111   2.789   3.361 -0.3739 -0.3966  0.2160
    9C      C1'  267   5.105   2.892   3.270  0.4089  0.1334  0.1973
    9C      H1'  268   5.189   2.882   3.201  0.4858 -2.6045  0.5717
    9C       N1  269   4.979   2.879   3.184  0.0124 -0.0231  0.3212
    9C       C6  270   4.870   2.798   3.224  0.5435 -0.4717 -0.3302
    9C       H6  271   4.867   2.748   3.319  0.0200  1.9477  1.0163
    9C       C5  272   4.761   2.786   3.142 -0.5581 -0.4340 -0.3846
    9C       H5  273   4.680   2.718   3.164  0.1398 -1.1163  0.1549
    9C       C4  274   4.761   2.863   3.016  0.5926  0.6288  0.1865
    9C       N4  275   4.661   2.858   2.937 -0.0598  0.0900 -0.9979
    9C      H41  276   4.584   2.794   2.955 -0.5010  1.2930  1.9111
    9C      H42  277   4.668   2.916   2.855  2.9203 -0.7857 -1.4659
    9C       N3  278   4.853   2.954   2.983  0.3909  0.0963  0.0373
    9C       C2  279   4.959   2.968   3.072 -0.4294 -0.5277 -0.3315
    9C       O2  280   5.045   3.054   3.040 -0.0743  1.2841  0.1270
    9C      C3'  281   5.070   2.985   3.495 -0.6376  0.1343  0.0129
    9C      H3'  282   4.961   2.982   3.484 -0.5783 -2.8477 -0.5951
    9C      C2'  283   5.129   3.026   3.358 -0.5752  0.1313  0.2500
    9C      H2'  284   5.077   3.111   3.313  1.5535  0.7594 -1.1908
    9C      O2'  285   5.271   3.041   3.357 -0.2543  0.4765  0.2689
    9C     HO2'  286   5.291   3.113   3.417 -0.5306  2.4749 -1.8882
    9C      O3'  287   5.112   3.063   3.601  0.3818 -0.0827 -0.0604
   10A        P  288   5.019   3.180   3.656 -0.0555  0.1902  0.1643
   10A      OP1  289   5.091   3.258   3.753  0.4342 -0.2470  0.1584
   10A      OP2  290   4.891   3.121   3.694 -0.1485 -0.0517 -0.0343
   10A      O5'  291   4.985   3.281   3.537  0.1463 -0.0276  0.2497
   10A      C5'  292   5.084   3.366   3.484  0.5248 -0.2076 -1.0387
   10A      H5'  293   5.173   3.303   3.473  0.1925 -1.0892  0.9772
   10A     H5''  294   5.106   3.447   3.553  1.2506 -2.4511  1.5040
   10A      C4'  295   5.048   3.425   3.350 -0.2761 -0.1665  0.0776
   10A      H4'  296   5.132   3.488   3.322 -0.2310  0.8445  2.2797
   10A      O4'  297   5.034   3.324   3.251 -0.1373  0.0691 -0.0787
   10A      C1'  298   4.930   3.356   3.163 -0.4413  0.2249 -0.6662
   10A      H1'  299   4.958   3.346   3.058 -0.4632 -0.8221 -0.5846
   10A       N9  300   4.809   3.272   3.182  0.2360  0.5886  0.0306
   10A       C8  301   4.761   3.199   3.293 -0.2955 -0.4801  0.4813
   10A       H8  302   4.820   3.194   3.383  0.5168 -1.2389 -0.0662
   10A       N7  303   4.657   3.128   3.259 -0.2007  0.4135  0.2894
   10A       C5  304   4.622   3.168   3.128 -0.0454  0.4036 -0.4908
   10A       C6  305   4.509   3.138   3.040 -0.3700 -0.0586  0.2909
   10A       N6  306   4.427   3.045   3.062 -0.0819  0.5604  0.2070
   10A      H61  307   4.356   3.022   2.994 -0.2363 -2.9454  1.3733
   10A      H62  308   4.441   2.981   3.139 -0.1028 -0.8865 -0.9617
   10A       N1  309   4.508   3.203   2.926  0.3339 -0.9800 -0.0337
   10A       C2  310   4.603   3.292   2.898 -0.3034  0.4233  0.6374
   10A       H2  311   4.605   3.334   2.799  1.0858  0.8524  0.8152
   10A       N3  312   4.716   3.326   2.966  0.5097 -0.4367 -0.3435
   10A       C4  313   4.716   3.259   3.084  1.4095  0.0223 -0.4450
   10A      C3'  314   4.923   3.511   3.334 -0.4478 -0.2632 -0.5801
   10A      H3'  315   4.845   3.465   3.394  0.3364 -0.2211  0.5100
   10A      C2'  316   4.892   3.501   3.189 -0.3289  0.3581  0.7842
   10A      H2'  317   4.793   3.526   3.151  0.4795  1.2859 -0.8049
   10A      O2'  318   4.974   3.583   3.110  0.0722  0.3006  0.4723
   10A     HO2'  319   4.958   3.675   3.133 -2.4988 -0.3257  1.5749
   10A      O3'  320   4.951   3.649   3.368  0.1785 -0.4327  0.3430
   11G        P  321   4.888   3.735   3.482  0.3936  0.0471 -0.3032
   11G      OP1  322   4.952   3.873   3.481  0.3875 -0.0690 -0.0554
   11G      OP2  323   4.888   3.659   3.605  0.5035  0.4771 -0.3834
   11G      O5'  324   4.742   3.760   3.431 -0.1584 -0.0397 -0.7073
   11G      C5'  325   4.720   3.828   3.310 -0.3113  0.0107 -0.2869
   11G      H5'  326   4.708   3.752   3.233  3.1550 -0.7388 -0.2427
   11G     H5''  327   4.802   3.889   3.274 -1.2977  0.5223 -1.7434
   11G      C4'  328   4.600   3.920   3.322 -0.0214  0.3185 -0.8300
   11G      H4'  329   4.584   3.972   3.227 -2.2111 -0.6609 -1.0546
   11G      O4'  330   4.484   3.844   3.354 -0.6024  0.1479 -0.2325
   11G      C1'  331   4.434   3.876   3.478 -0.9785 -0.2933 -0.4456
   11G      H1'  332   4.350   3.943   3.460 -1.3325  0.4000  3.1742
   11G       N9  333   4.382   3.767   3.558  0.3368 -0.5139  0.2610
   11G       C8  334   4.428   3.717   3.681  0.1653  0.3830 -0.0198
   11G       H8  335   4.506   3.758   3.744 -1.6364  0.5609  2.2155
   11G       N7  336   4.357   3.614   3.720  0.2335 -0.2962  0.2082
   11G       C5  337   4.268   3.585   3.618  0.1045  0.1395 -0.3714
   11G       C6  338   4.166   3.482   3.597  0.0831 -0.7061 -0.5518
   11G       O6  339   4.131   3.386   3.667  0.2413 -0.1633 -0.2681
   11G       N1  340   4.099   3.498   3.478 -0.1658  0.3553  0.0646
   11G       H1  341   4.033   3.429   3.444 -0.3118  0.0256  0.9939
   11G       C2  342   4.125   3.599   3.390 -0.9820  0.6203  0.4776
   11G       N2  343   4.062   3.585   3.275  0.4080  0.2329  0.2323
   11G      H21  344   3.995   3.510   3.266 -0.7578  1.4788 -2.3586
   11G      H22  345   4.059   3.661   3.209  0.1346 -0.6691 -0.8291
   11G       N3  346   4.211   3.695   3.398  0.1211  0.3535 -1.0016
   11G       C4  347   4.281   3.682   3.521 -0.0578  0.6918  0.1545
   11G      C3'  348   4.618   4.018   3.439 -0.0546  0.0608  0.5031
   11G      H3'  349   4.726   4.028   3.451  0.6163 -1.1582 -3.1826
   11G      C2'  350   4.538   3.951   3.554 -0.1596  0.0173 -0.6743
   11G      H2'  351   4.606   3.879   3.599 -1.3046 -1.5965 -1.4661
   11G      O2'  352   4.490   4.031   3.661  0.0197 -0.1300  0.4104
   11G     HO2'  353   4.483   3.987   3.746  3.3265 -1.2114  0.2699
   11G      O3'  354   4.564   4.135   3.392  0.2510 -0.1466  0.1437
   12U        P  355   4.643   4.235   3.304 -0.1134 -0.0431 -0.2415
   12U      OP1  356   4.596   4.221   3.170  0.2982  0.3569 -0.0725
   12U      OP2  357   4.786   4.219   3.330 -0.0864 -0.1876  0.1169
   12U      O5'  358   4.593   4.385   3.348 -0.4130  0.3640 -0.0814
   12U      C5'  359   4.633   4.452   3.466  0.3652 -0.0232  0.4450
   12U      H5'  360   4.700   4.386   3.521  1.3764  1.2314  0.7532
   12U     H5''  361   4.546   4.473   3.529  0.0937 -0.6304  0.2837
   12U      C4'  362   4.715   4.579   3.449  0.1736 -0.0814  0.2433
   12U      H4'  363   4.732   4.621   3.548 -1.0116 -0.1902  0.5105
   12U      O4'  364   4.831   4.549   3.378 -0.3459  0.8750  0.0189
   12U      C1'  365   4.838   4.643   3.278  0.6051 -0.0809  0.2844
   12U      H1'  366   4.872   4.734   3.328 -3.0540  0.6586  1.7347
   12U       N1  367   4.921   4.613   3.164 -0.1705 -0.3001  0.9786
   12U       C6  368   4.930   4.487   3.114 -0.1831  0.9350 -0.3597
   12U       H6  369   4.880   4.408   3.168 -3.3058  2.8022 -0.2889
   12U       C5  370   5.007   4.456   3.008 -0.1864  0.2737  0.7617
   12U       H5  371   5.012   4.353   2.976  0.7368  0.1875  1.1405
   12U       C4  372   5.077   4.558   2.940 -0.1850 -0.6680  0.3064
   12U       O4  373   5.148   4.542   2.843  0.8233 -0.0524  0.8459
   12U       N3  374   5.050   4.684   2.982  0.0979  0.3719 -0.3818
   12U       H3  375   5.092   4.757   2.927  0.5642 -1.0071 -1.9457
   12U       C2  376   4.989   4.717   3.099  0.8494  0.0598  0.2868
   12U       O2  377   4.999   4.831   3.140  0.0651 -0.0022 -0.2869
   12U      C3'  378   4.635   4.679   3.364 -0.2498  0.7647 -0.3591
   12U      H3'  379   4.528   4.661   3.360 -0.2131  0.5963 -0.6577
   12U      C2'  380   4.695   4.665   3.227  0.2007 -0.3944  0.9581
   12U      H2'  381   4.663   4.579   3.170 -1.1074  1.4112 -1.1996
   12U      O2'  382   4.682   4.776   3.144  0.2770 -0.0381 -0.3551
   12U     HO2'  383   4.712   4.849   3.199 -0.3578  0.1298 -0.2223
   12U      O3'  384   4.655   4.812   3.405  0.1438 -0.3234 -0.0383
   13A        P  385   4.580   4.878   3.533 -0.7570  0.4144 -0.1587
   13A      OP1  386   4.583   5.022   3.519  0.3023  0.7268 -0.4575
   13A      OP2  387   4.641   4.826   3.653  0.3445 -0.2269 -1.2311
   13A      O5'  388   4.429   4.837   3.520  0.2449 -0.3835  0.0732
   13A      C5'  389   4.342   4.881   3.624 -0.2711  0.6617  0.3219
   13A      H5'  390   4.342   4.989   3.638 -1.8972  1.0571 -2.0332
   13A     H5''  391   4.380   4.836   3.716 -1.7368 -0.6570  0.3187
   13A      C4'  392   4.203   4.829   3.592  0.2378 -0.2078 -0.0793
   13A      H4'  393   4.137   4.873   3.667 -0.2904 -0.2234 -0.5263
   13A      O4'  394   4.165   4.883   3.464  0.8453 -0.0059 -0.3092
   13A      C1'  395   4.062   4.797   3.409 -0.1767 -0.6837  0.9818
   13A      H1'  396   3.972   4.858   3.410 -1.3477 -2.3719  1.1483
   13A       N9  397   4.085   4.773   3.267  0.4697  0.1899  0.2153
   13A       C8  398   4.022   4.839   3.164  0.6589  0.2286 -0.7169
   13A       H8  399   3.942   4.907   3.189 -1.2791 -2.9525  2.8372
   13A       N7  400   4.059   4.808   3.044  0.4924  0.3140 -0.1816
   13A       C5  401   4.160   4.712   3.071 -0.0283  0.5829 -0.4017
   13A       C6  402   4.259   4.643   2.987  0.6067 -0.3148  0.4221
   13A       N6  403   4.259   4.660   2.851 -0.2837 -0.0152 -0.5439
   13A      H61  404   4.317   4.596   2.798 -0.8270 -1.4035  0.4815
   13A      H62  405   4.181   4.709   2.809 -1.2783  0.8581  2.1197
   13A       N1  406   4.355   4.568   3.041 -0.0279 -0.5444  0.4426
   13A       C2  407   4.367   4.564   3.173  0.1901  0.1603  0.3352
   13A       H2  408   4.440   4.495   3.212  1.0568  1.1013  0.3810
   13A       N3  409   4.287   4.625   3.255  0.5097 -0.3165 -0.1282
   13A       C4  410   4.183   4.699   3.205 -0.7488 -0.1770 -0.2662
   13A      C3'  411   4.181   4.683   3.578 -0.5866  0.2459 -0.6413
   13A      H3'  412   4.273   4.651   3.529  0.5531  1.4164  0.6365
   13A      C2'  413   4.054   4.673   3.496  1.2242 -0.6286  0.0686
   13A      H2'  414   4.051   4.588   3.428  0.5564  0.5905 -1.4930
   13A      O2'  415   3.939   4.673   3.574 -0.4340 -0.0038  0.7160
   13A     HO2'  416   3.872   4.623   3.527 -0.0040 -0.4619  0.5737
   13A      O3'  417   4.185   4.623   3.708 -1.0888  0.0550 -0.2153
   14A        P  418   4.264   4.488   3.738  0.0980  0.4052 -0.0167
   14A      OP1  419   4.234   4.456   3.877 -0.0421 -0.5697  0.2285
   14A      OP2  420   4.405   4.515   3.708  0.1988  0.2290 -0.3648
   14A      O5'  421   4.212   4.357   3.651 -0.0843 -0.4756 -0.6648
   14A      C5'  422   4.238   4.349   3.510  0.2534  0.4079 -0.1773
   14A      H5'  423   4.342   4.317   3.504  0.1571 -0.5086  2.0644
   14A     H5''  424   4.223   4.444   3.459 -0.3596 -1.5256 -3.9561
   14A      C4'  425   4.150   4.246   3.438  0.1599  0.5770 -0.3164
   14A      H4'  426   4.151   4.252   3.329  1.7263 -1.6967 -0.5200
   14A      O4'  427   4.188   4.112   3.463 -0.5803  0.5702 -0.5488
   14A      C1'  428   4.081   4.018   3.479  0.8811 -0.0396 -0.3141
   14A      H1'  429   4.080   3.944   3.399  0.0581 -0.1710 -0.1990
   14A       N9  430   4.075   3.957   3.612  0.0262  0.4072  0.4761
   14A       C8  431   4.165   3.973   3.714  0.0000 -0.3750  0.3266
   14A       H8  432   4.234   4.057   3.710 -1.4686  0.9256  1.3391
   14A       N7  433   4.147   3.894   3.814 -0.5621 -0.1819 -0.6119
   14A       C5  434   4.043   3.812   3.775 -0.3405  0.1515  0.9840
   14A       C6  435   3.970   3.704   3.827  0.1585  0.1849  0.1280
   14A       N6  436   3.997   3.644   3.938  0.2154 -0.0323 -0.7301
   14A      H61  437   3.944   3.558   3.943  1.1953 -0.7735 -2.3786
   14A      H62  438   4.079   3.666   3.992 -0.5119 -0.1113  0.4180
   14A       N1  439   3.889   3.631   3.746 -0.6151 -0.2287 -0.4513
   14A       C2  440   3.855   3.678   3.627 -0.3389 -0.7663  0.5038
   14A       H2  441   3.790   3.622   3.562  1.9498  0.5992 -3.3105
   14A       N3  442   3.911   3.782   3.562 -0.0538  0.1015 -0.1847
   14A       C4  443   4.004   3.844   3.647 -0.3454  0.8419 -0.1354
   14A      C3'  444   4.001   4.253   3.478 -0.2653 -0.2206 -0.5414
   14A      H3'  445   4.005   4.266   3.587  0.0750 -0.0367 -0.5757
   14A      C2'  446   3.955   4.108   3.450  0.1696  0.3638  0.3050
   14A      H2'  447   3.880   4.072   3.521  1.6147 -0.5418  1.4480
   14A      O2'  448   3.923   4.094   3.310  0.3545  0.3393 -0.1408
   14A     HO2'  449   3.849   4.153   3.292 -0.9449 -2.0719 -3.8930
   14A      O3'  450   3.925   4.348   3.413  0.0293 -0.2984  0.2567
   15C        P  451   3.785   4.389   3.466 -0.3421 -0.1192 -0.0435
   15C      OP1  452   3.768   4.536   3.447  0.5482  0.3606 -0.8774
   15C      OP2  453   3.761   4.343   3.602  0.0190  0.3504  0.1711
   15C      O5'  454   3.675   4.306   3.378 -0.3461 -0.4156  0.4673
   15C      C5'  455   3.556   4.371   3.342  0.0239  0.4131 -0.6186
   15C      H5'  456   3.570   4.466   3.292 -0.1715  0.7208 -0.0971
   15C     H5''  457   3.500   4.379   3.435 -0.1204  0.7983 -0.7389
   15C      C4'  458   3.479   4.283   3.236 -0.6398 -0.0880 -0.1840
   15C      H4'  459   3.380   4.328   3.223 -0.2778  1.2223  1.2822
   15C      O4'  460   3.550   4.285   3.109  0.4449  0.0771 -0.2491
   15C      C1'  461   3.563   4.155   3.066  0.4839  0.2602 -0.4219
   15C      H1'  462   3.468   4.117   3.028  0.8483 -0.9843 -0.1325
   15C       N1  463   3.670   4.147   2.956  0.7955  0.1977  0.2959
   15C       C6  464   3.787   4.079   2.973  0.4614 -0.1445 -0.4147
   15C       H6  465   3.799   4.029   3.068 -1.9749  2.4263  1.4127
   15C       C5  466   3.874   4.066   2.875  0.2741 -0.4952  1.0077
   15C       H5  467   3.960   4.002   2.881  1.4653  0.8365 -0.7479
   15C       C4  468   3.846   4.142   2.751 -0.6780  0.7088 -0.1762
   15C       N4  469   3.929   4.130   2.655 -0.7889  0.2339 -0.1130
   15C      H41  470   4.013   4.073   2.661 -0.6913 -0.1576 -3.4939
   15C      H42  471   3.915   4.182   2.571  0.0366  1.1723  0.3097
   15C       N3  472   3.727   4.195   2.726 -0.2631  0.3283  0.0375
   15C       C2  473   3.644   4.206   2.833  0.7311  0.4171  0.5158
   15C       O2  474   3.540   4.263   2.805 -0.4495 -0.4262 -0.4741
   15C      C3'  475   3.462   4.133   3.275  0.5594 -0.1338 -0.0510
   15C      H3'  476   3.488   4.118   3.380  0.4052  0.9252  0.1462
   15C      C2'  477   3.572   4.065   3.191  0.2732 -0.5460  0.0836
   15C      H2'  478   3.671   4.086   3.233  1.2351 -0.6242 -2.0002
   15C      O2'  479   3.552   3.927   3.174 -0.2687 -0.0246  0.0754
   15C     HO2'  480   3.615   3.886   3.234  0.9378 -0.5810 -1.5042
   15C      O3'  481   3.336   4.076   3.244  0.0905 -0.6266 -0.9410
   16C        P  482   3.219   4.091   3.351  0.4151  0.2042  0.1645
   16C      OP1  483   3.092   4.063   3.276  0.6397 -0.1290  0.1523
   16C      OP2  484   3.229   4.217   3.427  0.3093 -0.6585 -0.0129
   16C      O5'  485   3.257   3.975   3.453 -0.1138 -0.4339  0.5337
   16C      C5'  486   3.225   3.842   3.430 -0.0289  0.3544 -0.9698
   16C      H5'  487   3.260   3.803   3.334 -2.6830  0.6860 -2.1977
   16C     H5''  488   3.116   3.848   3.427 -0.0257  0.4530 -0.8883
   16C      C4'  489   3.275   3.747   3.540 -0.5378  0.3841 -0.4390
   16C      H4'  490   3.228   3.648   3.533  0.7745 -0.1968 -1.6037
   16C      O4'  491   3.414   3.723   3.533 -0.6331  0.4135  0.0270
   16C      C1'  492   3.461   3.699   3.667 -0.3899 -0.6467 -0.4953
   16C      H1'  493   3.499   3.598   3.681  2.0014  0.0752 -1.2925
   16C       N1  494   3.556   3.807   3.695 -0.5007  0.1399  0.9756
   16C       C6  495   3.568   3.919   3.610  0.2110 -0.3754 -0.1176
   16C       H6  496   3.508   3.936   3.522 -0.1036  1.7285  0.4635
   16C       C5  497   3.649   4.025   3.643 -1.1768 -0.6394  0.0313
   16C       H5  498   3.663   4.109   3.577  1.4221 -0.7053  0.4021
   16C       C4  499   3.724   4.013   3.770  0.1049 -0.3072 -0.0899
   16C       N4  500   3.805   4.104   3.802 -0.4350 -0.5023 -0.0847
   16C      H41  501   3.822   4.176   3.734 -2.0154 -1.4603 -1.5449
   16C      H42  502   3.875   4.080   3.872 -2.1885 -1.7358  1.3402
   16C       N3  503   3.720   3.906   3.840 -0.4293 -0.8637  0.6881
   16C       C2  504   3.632   3.804   3.811  0.3001  0.6655 -1.1889
   16C       O2  505   3.631   3.703   3.885 -0.0128  0.2074  0.6730
   16C      C3'  506   3.239   3.796   3.681  0.8078 -0.0249  0.5401
   16C      H3'  507   3.272   3.900   3.690 -0.1004  0.1550  2.3017
   16C      C2'  508   3.338   3.704   3.760 -0.3389 -0.5965  0.2176
   16C      H2'  509   3.355   3.749   3.858 -0.6494 -1.8166  0.8494
   16C      O2'  510   3.285   3.569   3.775  0.4204 -0.5398  0.7965
   16C     HO2'  511   3.341   3.502   3.814 -0.7185 -1.6906  0.5259
   16C      O3'  512   3.103   3.784   3.723 -0.0419  0.0596 -0.1497
   17C        P  513   3.031   3.889   3.832  0.1566  0.0738 -0.1651
   17C      OP1  514   2.887   3.865   3.822  0.0300 -0.2562 -0.3605
   17C      OP2  515   3.082   4.031   3.822  0.1649  0.0596 -0.3241
   17C      O5'  516   3.085   3.840   3.973 -0.0771 -0.1504  0.2418
   17C      C5'  517   3.060   3.714   4.025  0.2489  1.3810  0.0034
   17C      H5'  518   3.081   3.629   3.960  0.5988  1.3441  0.1624
   17C     H5''  519   2.958   3.703   4.062  1.0758 -0.7728  1.9127
   17C      C4'  520   3.156   3.690   4.143  0.3990 -0.6667  0.3153
   17C      H4'  521   3.133   3.596   4.193 -0.3797 -0.3242  0.6229
   17C      O4'  522   3.284   3.694   4.100  0.1624  0.5341  0.6894
   17C      C1'  523   3.361   3.747   4.206 -0.3816  0.0635  0.6332
   17C      H1'  524   3.437   3.672   4.227 -0.8064  0.0887  2.4131
   17C       N1  525   3.429   3.876   4.161 -0.1662  0.0338  0.0517
   17C       C6  526   3.400   3.935   4.039 -0.1740  0.2545 -0.2410
   17C       H6  527   3.312   3.904   3.985 -0.4666 -1.7471  1.2818
   17C       C5  528   3.471   4.037   3.989 -0.8372 -0.5526  0.1121
   17C       H5  529   3.428   4.080   3.900  0.6306 -2.8715 -1.8690
   17C       C4  530   3.570   4.095   4.077 -0.0804  0.4343  0.0015
   17C       N4  531   3.623   4.204   4.045 -0.5180  0.1635  0.1328
   17C      H41  532   3.611   4.242   3.952 -1.5364  0.7049  0.4599
   17C      H42  533   3.702   4.235   4.100 -0.0577 -0.1603 -0.3413
   17C       N3  534   3.598   4.039   4.198  0.0217 -0.1006 -0.0810
   17C       C2  535   3.535   3.929   4.239 -0.3092 -0.1059 -0.0248
   17C       O2  536   3.578   3.878   4.345 -0.1199  0.3157  0.2471
   17C      C3'  537   3.142   3.800   4.247 -0.2694 -0.0833  0.7927
   17C      H3'  538   3.153   3.893   4.191  1.2070 -0.9325 -0.4231
   17C      C2'  539   3.272   3.770   4.325  0.2123 -0.1077 -0.6448
   17C      H2'  540   3.322   3.848   4.382  0.4765 -0.3747 -0.5077
   17C      O2'  541   3.255   3.652   4.409 -0.0265 -0.7648  0.1958
   17C     HO2'  542   3.317   3.651   4.483 -1.8048  0.1804  1.7658
   17C      O3'  543   3.018   3.770   4.302 -0.3650  0.5411  0.2900
   18C        P  544   2.942   3.887   4.379  0.2028 -0.0087 -0.0937
   18C      OP1  545   2.821   3.831   4.440  0.0849 -0.5593  0.4183
   18C      OP2  546   2.927   4.002   4.286  0.4172 -0.3708  0.2019
   18C      O5'  547   3.037   3.931   4.501 -0.0955 -0.5696  0.3768
   18C      C5'  548   3.055   3.849   4.617 -0.4685 -0.1312  0.2933
   18C      H5'  549   3.080   3.750   4.580  1.3587 -0.4564  2.2576
   18C     H5''  550   2.962   3.841   4.673 -0.2765 -1.5283  0.4315
   18C      C4'  551   3.161   3.902   4.709 -0.2844 -0.4211 -0.1944
   18C      H4'  552   3.150   3.844   4.801  2.5564  0.4427  0.7924
   18C      O4'  553   3.293   3.882   4.652 -0.1952 -0.4809  0.2136
   18C      C1'  554   3.370   4.004   4.691 -0.4728  0.3663 -0.2363
   18C      H1'  555   3.459   3.969   4.742  0.0605  2.4927  0.4122
   18C       N1  556   3.402   4.095   4.583  0.4512  0.7909  0.8585
   18C       C6  557   3.334   4.089   4.467  0.3950  0.2574 -0.0848
   18C       H6  558   3.263   4.010   4.448  0.5392  0.1892 -0.3392
   18C       C5  559   3.356   4.177   4.367 -0.2917  0.6995  0.0324
   18C       H5  560   3.288   4.173   4.283 -0.5383  0.0749  0.2565
   18C       C4  561   3.449   4.285   4.396 -0.1869 -0.7255  0.5293
   18C       N4  562   3.470   4.379   4.307 -0.1670  0.2399  0.3848
   18C      H41  563   3.427   4.362   4.218  0.6948 -1.7370  0.2966
   18C      H42  564   3.536   4.456   4.309 -1.1264  1.3417 -3.5261
   18C       N3  565   3.522   4.294   4.508  0.5188 -0.1412  0.5902
   18C       C2  566   3.500   4.195   4.599  0.0214  0.0381 -0.2333
   18C       O2  567   3.560   4.205   4.704 -0.3942 -0.0261  0.2367
   18C      C3'  568   3.148   4.048   4.754 -0.2031 -0.4148  0.6702
   18C      H3'  569   3.117   4.102   4.665 -0.3572 -1.1828  0.2456
   18C      C2'  570   3.289   4.076   4.799 -0.0050  0.5184 -0.0405
   18C      H2'  571   3.314   4.181   4.816 -2.1655  0.9982  0.4966
   18C      O2'  572   3.310   4.009   4.926  0.3338  0.0507  0.0246
   18C     HO2'  573   3.327   4.062   5.004  0.2513 -0.7504  0.6019
   18C      O3'  574   3.047   4.075   4.846 -0.3171 -0.2375 -0.5243
   19A        P  575   2.970   4.209   4.864  0.1714  0.2225 -0.1225
   19A      OP1  576   2.859   4.180   4.960 -0.5487 -0.5096  0.1506
   19A      OP2  577   2.936   4.258   4.729 -0.1169  0.3242 -0.4739
   19A      O5'  578   3.079   4.308   4.921 -0.1696 -0.0113  0.0375
   19A      C5'  579   3.120   4.302   5.060  0.2339 -0.4041  0.4156
   19A      H5'  580   3.110   4.201   5.101 -0.1979  1.1805  4.7124
   19A     H5''  581   3.045   4.352   5.121  0.6626 -1.0880  1.5499
   19A      C4'  582   3.252   4.377   5.078 -0.3729  0.4196 -0.3199
   19A      H4'  583   3.308   4.355   5.169 -2.2528 -0.4158  0.6940
   19A      O4'  584   3.338   4.358   4.969 -0.8012  0.0461  0.1950
   19A      C1'  585   3.406   4.481   4.946  0.0124 -0.0668  0.0013
   19A      H1'  586   3.513   4.468   4.959  0.2463 -0.0510 -1.6540
   19A       N9  587   3.375   4.514   4.810 -0.4749 -0.4502  0.4152
   19A       C8  588   3.292   4.446   4.725 -0.8389  0.5868  0.0747
   19A       H8  589   3.244   4.353   4.753  0.7074 -0.9439 -1.9243
   19A       N7  590   3.277   4.494   4.609 -0.0569 -0.4736  0.8636
   19A       C5  591   3.367   4.607   4.611 -0.8157 -0.1257 -0.5550
   19A       C6  592   3.424   4.694   4.509  1.1854 -0.0555  0.0419
   19A       N6  593   3.390   4.691   4.381 -0.1597 -0.0414  0.3739
   19A      H61  594   3.430   4.760   4.319  0.5341 -0.5254  0.2649
   19A      H62  595   3.322   4.625   4.345  0.2158  0.6357 -1.7541
   19A       N1  596   3.506   4.794   4.548  0.1717  0.0818  0.5310
   19A       C2  597   3.549   4.795   4.670 -0.0159 -0.4888 -0.8190
   19A       H2  598   3.631   4.863   4.691 -0.9685  0.3201  0.3896
   19A       N3  599   3.518   4.710   4.769 -0.1548  0.2808  0.3082
   19A       C4  600   3.425   4.619   4.734  0.5474  0.6089  0.2458
   19A      C3'  601   3.220   4.528   5.080 -0.4202 -0.7004 -0.3914
   19A      H3'  602   3.148   4.550   5.002  0.2360 -2.4676 -1.5566
   19A      C2'  603   3.359   4.583   5.055 -0.5833 -0.0618  0.5880
   19A      H2'  604   3.360   4.686   5.018 -0.3749 -0.4114 -0.4297
   19A      O2'  605   3.457   4.559   5.164  0.4903 -0.3559 -0.1926
   19A     HO2'  606   3.542   4.582   5.124  0.2191  0.8693 -0.1197
   19A      O3'  607   3.172   4.578   5.207  0.0576  0.3365  0.0756
   20G        P  608   3.107   4.720   5.217  0.4043  0.5208  0.0705
   20G      OP1  609   3.072   4.745   5.359 -0.4331 -0.0422 -0.5666
   20G      OP2  610   3.002   4.732   5.112  0.3138 -0.2405 -0.8484
   20G      O5'  611   3.220   4.824   5.183 -0.1112  0.1392  0.2978
   20G      C5'  612   3.324   4.853   5.268 -0.3130  0.5421 -0.9770
   20G      H5'  613   3.382   4.762   5.282 -0.8260  0.3950  0.4086
   20G     H5''  614   3.278   4.882   5.363 -2.3876  0.2317 -1.8368
   20G      C4'  615   3.405   4.972   5.216  0.1004 -0.6040 -0.3703
   20G      H4'  616   3.493   4.970   5.281  0.7927  1.0802 -1.1850
   20G      O4'  617   3.443   4.954   5.083  0.3951 -0.6248  0.7063
   20G      C1'  618   3.377   5.055   5.005 -0.1734  0.1711  0.3033
   20G      H1'  619   3.454   5.131   4.992  0.4756 -0.3695  0.8984
   20G       N9  620   3.319   5.005   4.882 -0.3791 -0.2633  0.4395
   20G       C8  621   3.236   4.902   4.856 -0.4006  0.1988 -0.1878
   20G       H8  622   3.204   4.831   4.931  0.9684 -0.0131  0.2170
   20G       N7  623   3.213   4.877   4.731  0.1323 -0.1421  0.0418
   20G       C5  624   3.271   4.985   4.670  0.3981  0.1353  0.4484
   20G       C6  625   3.267   5.025   4.531  0.5593  0.1256  0.3002
   20G       O6  626   3.195   4.977   4.450 -0.0330 -0.4272  0.3604
   20G       N1  627   3.341   5.134   4.498  0.1942 -0.3497  0.3340
   20G       H1  628   3.333   5.169   4.403 -0.1594 -1.3619 -0.0290
   20G       C2  629   3.411   5.202   4.592  0.3824  0.0440 -0.4588
   20G       N2  630   3.465   5.315   4.547  0.5699  0.5209  0.0139
   20G      H21  631   3.456   5.340   4.450 -1.2191  0.5858  0.1649
   20G      H22  632   3.506   5.377   4.616  0.7917  1.4785 -0.9579
   20G       N3  633   3.409   5.181   4.723  0.4705  0.3407  0.5061
   20G       C4  634   3.335   5.065   4.758 -0.0225 -0.1395 -0.3423
   20G      C3'  635   3.339   5.107   5.232  0.1743 -0.3690  0.5422
   20G      H3'  636   3.266   5.117   5.313 -1.1072  3.1927 -0.8354
   20G      C2'  637   3.265   5.108   5.097  0.0724  0.0627  0.4028
   20G      H2'  638   3.180   5.040   5.090 -1.8511  2.4981 -1.3315
   20G      O2'  639   3.227   5.231   5.050 -0.9573 -0.1091 -0.0313
   20G     HO2'  640   3.264   5.299   5.107  1.7160  1.2373 -3.0489
   20G      O3'  641   3.435   5.206   5.241 -0.2433  0.7219 -0.2069
   21U        P  642   3.475   5.278   5.380 -0.2137  0.4515  0.2544
   21U      OP1  643   3.472   5.185   5.499 -0.0851 -0.8277 -0.5908
   21U      OP2  644   3.398   5.408   5.379  0.2156 -0.4722  0.3064
   21U      O5'  645   3.628   5.316   5.348 -0.4088  0.2909 -0.3817
   21U      C5'  646   3.722   5.216   5.363 -0.6014  0.0806  0.0949
   21U      H5'  647   3.694   5.133   5.299 -1.0750  0.2337  0.1006
   21U     H5''  648   3.719   5.183   5.467 -0.7458  0.5454  0.2390
   21U      C4'  649   3.864   5.263   5.328 -0.0681 -0.0172 -0.1601
   21U      H4'  650   3.939   5.188   5.352 -0.5277 -0.7687 -0.9803
   21U      O4'  651   3.866   5.278   5.191 -0.5688  0.6372  0.0927
   21U      C1'  652   3.887   5.417   5.151  0.5683 -0.2394 -0.1034
   21U      H1'  653   3.991   5.436   5.124  0.4963  1.1852  0.5337
   21U       N1  654   3.802   5.451   5.037 -0.1829  0.4664 -0.2825
   21U       C6  655   3.665   5.410   5.028  0.0781 -0.2387  0.0446
   21U       H6  656   3.619   5.364   5.114 -0.5723 -2.2290 -1.2791
   21U       C5  657   3.594   5.438   4.911  0.4032  0.0444 -0.0475
   21U       H5  658   3.488   5.418   4.903 -0.1392  1.2621  2.9053
   21U       C4  659   3.658   5.495   4.800 -0.1509 -0.6979 -0.4736
   21U       O4  660   3.609   5.513   4.691 -0.1692  0.2318 -0.4916
   21U       N3  661   3.790   5.538   4.816  0.5659  0.6978  0.2618
   21U       H3  662   3.843   5.563   4.734  2.7081 -1.5360  0.8569
   21U       C2  663   3.865   5.511   4.926 -0.2946  1.0678 -0.5947
   21U       O2  664   3.988   5.537   4.918  0.4549  0.4533  0.4777
   21U      C3'  665   3.891   5.402   5.390  0.0448 -0.0370 -0.0360
   21U      H3'  666   3.839   5.429   5.482 -0.2921 -0.1083 -0.2030
   21U      C2'  667   3.853   5.498   5.275  0.6911 -0.4007 -0.6409
   21U      H2'  668   3.749   5.530   5.280  1.5515  3.3035 -2.3957
   21U      O2'  669   3.924   5.620   5.266 -0.0454 -0.1582 -0.2105
   21U     HO2'  670   3.924   5.661   5.353 -1.3030  0.2552 -0.3738
   21U      O3'  671   4.030   5.423   5.418 -0.3492  0.2194  0.7424
   22U        P  672   4.072   5.458   5.562  0.3333 -0.2080 -0.4871
   22U      OP1  673   3.973   5.542   5.645 -0.3992 -0.2398  0.0775
   22U      OP2  674   4.215   5.498   5.547  0.1283  1.3139  0.3265
   22U      O5'  675   4.065   5.317   5.635  0.7270 -0.1147 -0.0344
   22U      C5'  676   4.155   5.214   5.600  0.1105  0.6952 -0.0676
   22U      H5'  677   4.257   5.237   5.631 -0.0856 -0.9703  2.0449
   22U     H5''  678   4.159   5.194   5.493  0.2542  2.5990 -0.4365
   22U      C4'  679   4.119   5.085   5.673  0.1453 -0.1908 -0.3128
   22U      H4'  680   4.199   5.013   5.651  0.0948 -0.2824 -0.2028
   22U      O4'  681   4.113   5.116   5.814  0.1027  0.8817  0.1452
   22U      C1'  682   3.975   5.083   5.853 -0.1146 -0.1588  0.0790
   22U      H1'  683   3.982   4.984   5.899 -0.2646  0.4107  1.3556
   22U       N1  684   3.923   5.180   5.948 -0.2521 -0.4132 -0.6262
   22U       C6  685   3.908   5.314   5.919 -0.4249  0.1290 -0.3349
   22U       H6  686   3.921   5.347   5.817 -0.4771  1.5078  0.0869
   22U       C5  687   3.876   5.407   6.013 -0.1582  0.7858 -0.9565
   22U       H5  688   3.870   5.512   5.986  1.6885  1.1162 -0.2766
   22U       C4  689   3.851   5.369   6.154 -1.1325 -0.1051  0.4779
   22U       O4  690   3.839   5.440   6.252  0.1204  0.6186 -0.4078
   22U       N3  691   3.851   5.233   6.173 -0.1807 -0.2501 -0.7453
   22U       H3  692   3.833   5.205   6.268  1.6135  0.9832  0.0224
   22U       C2  693   3.893   5.137   6.078  0.1356  0.0039 -0.3360
   22U       O2  694   3.893   5.018   6.121  0.4620  0.0326  0.2313
   22U      C3'  695   3.982   5.022   5.628 -0.3344 -0.0069 -0.2650
   22U      H3'  696   3.969   5.052   5.524  1.6117  0.5678 -0.3873
   22U      C2'  697   3.885   5.084   5.727  0.2521  0.7911 -0.3962
   22U      H2'  698   3.849   5.182   5.697 -1.3114  0.6303  0.8001
   22U      O2'  699   3.769   5.000   5.746  0.8241 -0.1850 -0.5255
   22U     HO2'  700   3.719   5.003   5.663  0.3036 -0.3417 -0.2208
   22U      O3'  701   3.980   4.882   5.649  0.1221 -0.5724  0.1336
   23A        P  702   4.039   4.785   5.535 -0.2020  0.2409 -0.1028
   23A      OP1  703   4.027   4.652   5.600 -0.6255  0.8821  0.4853
   23A      OP2  704   4.166   4.833   5.476  0.0304  0.2642 -0.0195
   23A      O5'  705   3.936   4.786   5.417  0.2378 -0.0936  0.6985
   23A      C5'  706   3.804   4.744   5.431  0.2247  0.3450 -0.0745
   23A      H5'  707   3.749   4.807   5.501 -1.8031 -1.5419  0.1390
   23A     H5''  708   3.798   4.642   5.470  1.5748  0.1988 -0.1824
   23A      C4'  709   3.737   4.747   5.294  0.0799 -0.2778 -0.7437
   23A      H4'  710   3.636   4.710   5.309  0.0854 -0.5420 -1.3300
   23A      O4'  711   3.747   4.881   5.242 -0.3025 -0.1522 -0.4552
   23A      C1'  712   3.770   4.873   5.103  0.8268 -0.0253 -0.1443
   23A      H1'  713   3.682   4.915   5.054  1.9766  2.0097 -0.6140
   23A       N9  714   3.892   4.948   5.069  0.2890 -0.4373 -0.7843
   23A       C8  715   4.019   4.941   5.128  0.9724  0.6980  0.0418
   23A       H8  716   4.041   4.874   5.211  1.2170  0.3924 -0.2657
   23A       N7  717   4.099   5.032   5.080 -0.0010  0.5344 -0.2224
   23A       C5  718   4.023   5.100   4.980  0.1552  0.7945  0.4813
   23A       C6  719   4.039   5.209   4.893  0.1363 -0.3568  0.1831
   23A       N6  720   4.147   5.287   4.884  0.4906 -0.0307 -0.4249
   23A      H61  721   4.142   5.360   4.815 -1.7428  1.1962  0.9298
   23A      H62  722   4.230   5.265   4.938  1.2387 -2.3395 -2.3488
   23A       N1  723   3.939   5.253   4.812  0.5187 -0.2133 -0.3522
   23A       C2  724   3.824   5.192   4.823  0.3267 -0.8086 -0.1251
   23A       H2  725   3.747   5.234   4.760  0.3483 -0.2599  0.2061
   23A       N3  726   3.791   5.090   4.906  0.0111 -0.6252 -0.0192
   23A       C4  727   3.896   5.051   4.986 -0.5227 -1.0173 -0.2763
   23A      C3'  728   3.810   4.650   5.194  0.0054  0.0603 -0.4346
   23A      H3'  729   3.917   4.647   5.210 -0.2418 -1.6264  1.2579
   23A      C2'  730   3.772   4.722   5.057  0.9711  0.7703 -0.0732
   23A      H2'  731   3.846   4.702   4.979  0.3645  1.7096 -0.8974
   23A      O2'  732   3.634   4.689   5.021  0.1427  0.6494  0.1260
   23A     HO2'  733   3.608   4.740   4.944 -2.9890  1.3918  1.5551
   23A      O3'  734   3.750   4.524   5.195  0.2024  0.0316  0.3067
   24A        P  735   3.826   4.385   5.157 -0.8130 -0.7088  0.4201
   24A      OP1  736   3.974   4.402   5.177  0.5339 -0.2346  0.1785
   24A      OP2  737   3.779   4.342   5.021 -0.2761  0.0216  0.5091
   24A      O5'  738   3.779   4.289   5.271  0.4156  0.0360  0.0626
   24A      C5'  739   3.816   4.305   5.413  0.2450 -0.2338  0.1588
   24A      H5'  740   3.807   4.409   5.446 -1.9549 -1.6493  4.8950
   24A     H5''  741   3.921   4.280   5.428  0.5632  1.1849  0.5136
   24A      C4'  742   3.731   4.217   5.501 -0.5797  0.3197 -0.4633
   24A      H4'  743   3.777   4.221   5.600 -1.8624 -2.4138  0.3668
   24A      O4'  744   3.589   4.245   5.496  0.1506  0.1896  0.0035
   24A      C1'  745   3.523   4.117   5.523 -0.7571 -0.7063  0.3001
   24A      H1'  746   3.453   4.121   5.606  2.1224 -1.1193  2.9230
   24A       N9  747   3.448   4.071   5.405 -0.1399 -0.2896  0.3300
   24A       C8  748   3.458   4.119   5.276 -0.3875 -0.4364  0.3762
   24A       H8  749   3.530   4.196   5.251 -0.0009 -0.8983  0.0463
   24A       N7  750   3.361   4.085   5.201  0.9997 -0.6673 -0.3102
   24A       C5  751   3.290   3.998   5.284 -0.0057  0.2953  0.3251
   24A       C6  752   3.170   3.926   5.270 -0.0740 -0.3863 -0.1828
   24A       N6  753   3.098   3.939   5.156  0.3670 -0.5329 -0.4558
   24A      H61  754   3.028   3.866   5.160 -0.6592  0.4599  0.4051
   24A      H62  755   3.117   3.997   5.075 -1.8924  1.7988  0.5480
   24A       N1  756   3.122   3.838   5.364 -0.0449 -0.3570  0.1190
   24A       C2  757   3.195   3.832   5.475  0.1236  0.0384 -0.1959
   24A       H2  758   3.148   3.780   5.557  0.0769  0.2593 -0.0818
   24A       N3  759   3.308   3.893   5.504  0.0244 -0.5768  0.7950
   24A       C4  760   3.351   3.976   5.403 -0.7818  0.5799 -0.3055
   24A      C3'  761   3.751   4.070   5.465  0.2050 -0.0188 -0.0225
   24A      H3'  762   3.730   4.054   5.359  1.3021  2.3038 -0.6601
   24A      C2'  763   3.641   4.011   5.547 -0.3117  0.3770 -0.4563
   24A      H2'  764   3.621   3.915   5.498  2.7457  0.7257 -2.6279
   24A      O2'  765   3.674   3.997   5.686  0.0483 -0.5445 -0.4591
   24A     HO2'  766   3.607   3.942   5.728 -2.8141  2.3619 -0.7744
   24A      O3'  767   3.885   4.033   5.500  0.0544 -0.3165  0.1232
   25C        P  768   3.960   3.915   5.419 -0.1443 -0.6301 -0.0091
   25C      OP1  769   4.091   3.876   5.479 -0.6336  0.6775 -0.2026
   25C      OP2  770   3.955   3.948   5.275 -0.2131 -0.5347  0.6115
   25C      O5'  771   3.864   3.794   5.449  0.3623  0.2776 -0.7813
   25C      C5'  772   3.861   3.737   5.576 -0.3266 -0.0020 -0.7254
   25C      H5'  773   3.850   3.816   5.651  0.1023  1.6825 -2.3681
   25C     H5''  774   3.961   3.698   5.595 -0.3850  0.1072 -0.1670
   25C      C4'  775   3.764   3.623   5.597 -0.1487 -0.0792 -0.1000
   25C      H4'  776   3.781   3.585   5.697  0.0805 -2.3463 -0.9355
   25C      O4'  777   3.628   3.661   5.574 -0.0122 -0.0354 -0.1001
   25C      C1'  778   3.550   3.555   5.523  0.1575 -0.4947  0.3824
   25C      H1'  779   3.459   3.538   5.581 -0.5364 -1.4901 -0.9530
   25C       N1  780   3.502   3.588   5.384 -0.8821 -0.1886 -0.6816
   25C       C6  781   3.556   3.700   5.312 -0.3139  0.3256 -0.0040
   25C       H6  782   3.637   3.757   5.355  0.6344  0.1887 -1.5279
   25C       C5  783   3.496   3.731   5.196 -0.0835  0.0633 -0.1008
   25C       H5  784   3.541   3.804   5.131 -0.7616  1.7505  1.2148
   25C       C4  785   3.377   3.674   5.158  0.8802  0.1039 -0.6964
   25C       N4  786   3.320   3.710   5.046 -0.2256  0.0264 -0.2293
   25C      H41  787   3.355   3.784   4.987  1.6160 -0.5368  0.1082
   25C      H42  788   3.249   3.648   5.009  1.3577 -2.1428  0.1819
   25C       N3  789   3.317   3.574   5.228  0.3932  0.3557 -0.1983
   25C       C2  790   3.377   3.532   5.343 -0.3429  0.3034  0.2495
   25C       O2  791   3.320   3.452   5.416  0.2354  0.0365 -0.0597
   25C      C3'  792   3.777   3.503   5.498  0.0192  0.4580 -0.5860
   25C      H3'  793   3.790   3.539   5.396  1.6911 -1.3509 -1.0954
   25C      C2'  794   3.639   3.437   5.520 -0.9742 -0.1880 -0.4566
   25C      H2'  795   3.613   3.374   5.435 -3.2429 -0.7477  0.6058
   25C      O2'  796   3.626   3.358   5.642 -0.3269 -0.0519 -0.6112
   25C     HO2'  797   3.678   3.282   5.617 -0.9445 -0.2331 -1.3657
   25C      O3'  798   3.887   3.419   5.535  0.4569 -0.2387  0.3816
   26A        P  799   3.960   3.323   5.422  0.5090  0.0712  0.2514
   26A      OP1  800   4.042   3.225   5.498 -0.2950 -0.2478 -0.0521
   26A      OP2  801   4.019   3.417   5.334  0.2685  0.3258 -0.3975
   26A      O5'  802   3.829   3.253   5.357  0.2388  0.1315 -0.0635
   26A      C5'  803   3.811   3.241   5.217  0.2057 -0.2980  0.1185
   26A      H5'  804   3.872   3.155   5.187  1.6234  1.0544 -1.0626
   26A     H5''  805   3.855   3.325   5.164  0.1066  0.0980  0.6483
   26A      C4'  806   3.661   3.222   5.191 -0.8158  0.0161  0.1665
   26A      H4'  807   3.623   3.173   5.281  2.9897  0.2885  2.1207
   26A      O4'  808   3.602   3.350   5.196 -0.0308 -0.5496 -0.2804
   26A      C1'  809   3.514   3.355   5.082 -0.0572  0.0944 -0.3497
   26A      H1'  810   3.414   3.393   5.105 -1.0547 -1.9871 -0.9981
   26A       N9  811   3.569   3.448   4.977  0.5350 -0.2411 -0.2170
   26A       C8  812   3.668   3.537   4.992 -0.2321  0.2724  0.5550
   26A       H8  813   3.733   3.537   5.079  1.9524  2.7697 -0.9130
   26A       N7  814   3.678   3.630   4.904 -0.5748  0.1679  0.1938
   26A       C5  815   3.575   3.596   4.812  0.5642  0.0430  0.5048
   26A       C6  816   3.529   3.653   4.690  0.3890 -0.1076  0.0354
   26A       N6  817   3.587   3.760   4.637 -0.8353  0.4741 -0.4705
   26A      H61  818   3.539   3.794   4.555 -2.1023  0.5572  0.2817
   26A      H62  819   3.662   3.805   4.686 -2.0135 -0.2439  2.1813
   26A       N1  820   3.425   3.603   4.628 -0.7825  0.3771 -0.0699
   26A       C2  821   3.366   3.496   4.680  0.3051 -0.4448 -0.3356
   26A       H2  822   3.282   3.461   4.623  0.3305  0.2347 -0.8039
   26A       N3  823   3.397   3.438   4.799 -0.1785  0.0148  0.4113
   26A       C4  824   3.500   3.496   4.863 -0.1855  0.0616 -0.4287
   26A      C3'  825   3.639   3.149   5.061  0.1908 -0.3453  0.2881
   26A      H3'  826   3.713   3.172   4.984  1.5090  0.1063  1.6443
   26A      C2'  827   3.493   3.210   5.035 -0.0276 -0.0119  0.4263
   26A      H2'  828   3.474   3.218   4.928  2.6164 -0.8926 -0.1856
   26A      O2'  829   3.396   3.150   5.109  0.1615  0.0539  0.2696
   26A     HO2'  830   3.429   3.075   5.160  1.2404  0.6040  0.4219
   26A      O3'  831   3.645   3.009   5.087 -0.7640  0.7414  0.2172
   27A        P  832   3.691   2.905   4.979  0.2709 -0.4155 -0.0877
   27A      OP1  833   3.668   2.775   5.040  0.5455 -0.5718 -0.1254
   27A      OP2  834   3.828   2.936   4.943  0.4970 -0.2396  0.7084
   27A      O5'  835   3.601   2.915   4.848 -0.3149  0.2634 -0.1142
   27A      C5'  836   3.458   2.875   4.841 -1.3132 -0.3274  0.5081
   27A      H5'  837   3.400   2.927   4.918 -1.3789 -1.0534  0.9579
   27A     H5''  838   3.446   2.768   4.853 -0.9472 -0.4117  0.1626
   27A      C4'  839   3.404   2.927   4.705 -0.0850  0.5639 -0.4513
   27A      H4'  840   3.304   2.885   4.701 -0.5856  0.5288  4.7450
   27A      O4'  841   3.396   3.073   4.705  0.2634 -0.2741 -0.0763
   27A      C1'  842   3.415   3.120   4.570 -0.6999  0.8817  0.3065
   27A      H1'  843   3.328   3.177   4.537  0.3015  2.7680  0.7970
   27A       N9  844   3.534   3.203   4.563 -0.4909  0.4579  0.3124
   27A       C8  845   3.636   3.221   4.660  0.2150 -0.6449  0.1985
   27A       H8  846   3.636   3.166   4.753 -1.5667  1.4145  1.5023
   27A       N7  847   3.724   3.309   4.635  0.0815 -0.1584 -0.0423
   27A       C5  848   3.675   3.368   4.522 -0.4684 -0.2776 -0.8002
   27A       C6  849   3.713   3.479   4.443  0.3908  0.3871 -0.5373
   27A       N6  850   3.825   3.549   4.454 -0.1332 -0.2899 -0.3477
   27A      H61  851   3.840   3.618   4.381  0.2414  0.6650  0.5977
   27A      H62  852   3.889   3.546   4.533  0.8149  2.5356 -0.8850
   27A       N1  853   3.641   3.520   4.340 -0.9322  0.4215  0.3893
   27A       C2  854   3.534   3.448   4.311 -0.4121  0.0829 -1.1064
   27A       H2  855   3.479   3.479   4.223 -0.8754  2.9507  0.0716
   27A       N3  856   3.487   3.340   4.371  0.2260 -0.4468 -0.0037
   27A       C4  857   3.565   3.301   4.474  0.6603  0.1376 -0.2540
   27A      C3'  858   3.477   2.878   4.585  0.0147  0.5621  0.1082
   27A      H3'  859   3.582   2.886   4.616 -0.2277 -1.1279  1.5107
   27A      C2'  860   3.438   2.995   4.492 -0.2632 -0.0422  0.3545
   27A      H2'  861   3.518   3.018   4.422  0.3496  0.1524  1.1153
   27A      O2'  862   3.320   2.963   4.425  0.4482 -0.2169 -0.1378
   27A     HO2'  863   3.248   2.949   4.487  0.1106 -1.2713 -0.7449
   27A      O3'  864   3.422   2.753   4.552 -0.7423  0.1728  0.3975
   28A        P  865   3.519   2.652   4.460 -0.2652  0.1485  0.1724
   28A      OP1  866   3.472   2.518   4.502  0.3606  0.1612  0.2606
   28A      OP2  867   3.663   2.683   4.481  0.3616 -0.7611 -0.2494
   28A      O5'  868   3.482   2.688   4.310  0.2460  0.2700  0.0853
   28A      C5'  869   3.338   2.674   4.267  0.0601 -0.0044  0.4834
   28A      H5'  870   3.280   2.740   4.330 -0.4000 -0.4080  0.4863
   28A     H5''  871   3.308   2.569   4.271 -1.2579  0.3616  0.5666
   28A      C4'  872   3.315   2.721   4.119 -0.4509  0.9102 -0.2937
   28A      H4'  873   3.215   2.690   4.088 -0.5647  0.9682  0.0041
   28A      O4'  874   3.334   2.853   4.104 -0.1811 -0.2539  0.3559
   28A      C1'  875   3.430   2.869   4.000 -0.4224 -0.2097  0.5264
   28A      H1'  876   3.383   2.857   3.902  0.6548  0.5001 -0.0918
   28A       N9  877   3.494   3.008   4.006  0.3070 -0.5998 -0.3762
   28A       C8  878   3.600   3.036   4.091 -0.3687 -0.0971  0.8807
   28A       H8  879   3.635   2.957   4.157 -1.1737 -1.0436  0.2137
   28A       N7  880   3.643   3.158   4.083 -0.1851 -0.0684 -0.3543
   28A       C5  881   3.552   3.218   3.999 -0.5527  0.4480 -0.5020
   28A       C6  882   3.532   3.349   3.957 -0.2121 -0.2344  0.1730
   28A       N6  883   3.612   3.449   3.989  0.0337 -0.5044  0.0166
   28A      H61  884   3.610   3.535   3.936 -0.7456 -1.8264 -2.2324
   28A      H62  885   3.708   3.426   4.010  0.1266 -0.5484 -0.4465
   28A       N1  886   3.438   3.377   3.866 -0.0920 -0.5671 -0.0732
   28A       C2  887   3.356   3.282   3.827  0.2749  0.5944  0.4415
   28A       H2  888   3.285   3.309   3.751 -0.1077 -0.4210  0.4289
   28A       N3  889   3.356   3.158   3.865 -0.3658 -0.1024 -0.1848
   28A       C4  890   3.465   3.126   3.948  0.3972 -0.8208 -0.9117
   28A      C3'  891   3.417   2.639   4.037  0.1775  0.2595  0.0458
   28A      H3'  892   3.457   2.556   4.094 -1.6476 -0.6184  0.1256
   28A      C2'  893   3.525   2.746   4.012  0.5181 -0.1575  0.7351
   28A      H2'  894   3.576   2.750   4.108  0.1769 -2.2040  1.0469
   28A      O2'  895   3.611   2.726   3.903 -0.4171  0.4633 -0.1642
   28A     HO2'  896   3.698   2.696   3.931 -1.1642  0.8570  3.0041
   28A      O3'  897   3.353   2.597   3.917  0.6189 -0.2090  0.2673
   29A        P  898   3.386   2.469   3.830 -0.1416 -0.1223 -0.0981
   29A      OP1  899   3.274   2.371   3.847  0.3376  0.9186  0.2046
   29A      OP2  900   3.519   2.420   3.862  0.4261 -0.2507  0.3097
   29A      O5'  901   3.388   2.520   3.676 -0.3296 -0.1435  0.0376
   29A      C5'  902   3.488   2.603   3.620 -0.4379 -0.1528  0.7720
   29A      H5'  903   3.558   2.539   3.565  0.8039 -0.0975  2.2485
   29A     H5''  904   3.545   2.656   3.696 -2.0207  2.1363  0.4587
   29A      C4'  905   3.412   2.710   3.540 -0.0761 -0.6877 -0.5416
   29A      H4'  906   3.317   2.676   3.500 -1.7061  0.8091  1.8345
   29A      O4'  907   3.392   2.826   3.624  0.3389  0.1916 -0.6145
   29A      C1'  908   3.421   2.943   3.548 -0.6668 -0.3099 -0.5915
   29A      H1'  909   3.338   3.012   3.563 -1.4631 -1.4336  0.3136
   29A       N9  910   3.545   3.009   3.599 -0.1850 -0.6300  1.2204
   29A       C8  911   3.643   2.952   3.676  0.6758 -0.7140  0.9573
   29A       H8  912   3.652   2.847   3.702  0.3534 -0.8291  0.6143
   29A       N7  913   3.735   3.038   3.722  0.3854  0.0568 -0.7881
   29A       C5  914   3.692   3.165   3.672  0.5645 -0.2106  0.1687
   29A       C6  915   3.736   3.296   3.681 -0.3214 -0.5377 -0.2350
   29A       N6  916   3.843   3.336   3.743 -0.1326 -0.3276 -0.2080
   29A      H61  917   3.859   3.435   3.736 -1.2733 -0.2103 -1.4561
   29A      H62  918   3.918   3.277   3.778  0.1917 -0.1563 -0.6036
   29A       N1  919   3.669   3.395   3.618 -0.1438 -0.3210  0.0654
   29A       C2  920   3.554   3.359   3.558 -0.1307 -0.3490 -0.1672
   29A       H2  921   3.514   3.437   3.494 -1.6238 -1.6016 -0.8212
   29A       N3  922   3.500   3.241   3.537 -0.6703  0.6560 -0.3520
   29A       C4  923   3.579   3.146   3.598  0.5228 -0.0795 -0.3346
   29A      C3'  924   3.500   2.765   3.427  0.4522 -0.8123 -0.4698
   29A      H3'  925   3.598   2.777   3.474 -0.1785  0.3760  0.5871
   29A      C2'  926   3.438   2.905   3.400  0.1826  0.6125 -0.5493
   29A      H2'  927   3.508   2.966   3.343 -0.1337  0.6682 -0.8836
   29A      O2'  928   3.321   2.896   3.328  0.7952  0.4765  0.2070
   29A     HO2'  929   3.303   2.988   3.308  1.0932  0.5484  0.2586
   29A      O3'  930   3.508   2.672   3.325 -0.3961  0.1225 -0.5564
   30C        P  931   3.611   2.693   3.213 -0.3169  0.1279  0.0994
   30C      OP1  932   3.562   2.613   3.097 -0.3603 -0.3415 -0.5893
   30C      OP2  933   3.745   2.660   3.265  0.3432  0.3483 -0.4363
   30C      O5'  934   3.620   2.843   3.165  0.4631 -0.5636  0.0148
   30C      C5'  935   3.524   2.900   3.072  0.7133  0.4623  0.2142
   30C      H5'  936   3.420   2.894   3.104  0.7381 -0.0428  0.1977
   30C     H5''  937   3.524   2.850   2.976 -0.8824  0.1892  0.3398
   30C      C4'  938   3.561   3.047   3.049  0.2605  0.2553 -1.4221
   30C      H4'  939   3.488   3.090   2.981 -0.6041  0.8405 -0.1555
   30C      O4'  940   3.553   3.133   3.163  0.0879  0.3908  0.2237
   30C      C1'  941   3.658   3.229   3.162 -0.0243  0.7799 -0.0224
   30C      H1'  942   3.623   3.329   3.187  3.0018  2.0133 -0.2471
   30C       N1  943   3.768   3.198   3.262  0.1781 -0.3689  0.2099
   30C       C6  944   3.775   3.076   3.323  0.1235  0.2471 -0.0334
   30C       H6  945   3.706   2.997   3.297  0.9153 -0.0868 -1.1802
   30C       C5  946   3.867   3.052   3.421 -0.4941 -0.6288 -0.0211
   30C       H5  947   3.885   2.951   3.455  0.7841 -1.1414 -2.0344
   30C       C4  948   3.946   3.164   3.465 -0.1138  0.1756 -0.2896
   30C       N4  949   4.044   3.143   3.546 -0.1040 -0.2272  0.0597
   30C      H41  950   4.062   3.053   3.588  1.3961  0.1632  0.3262
   30C      H42  951   4.083   3.223   3.594  1.6486 -1.2753  0.4776
   30C       N3  952   3.938   3.280   3.408  0.8420  0.4675  0.0007
   30C       C2  953   3.851   3.303   3.311  0.2305  0.3269 -0.5063
   30C       O2  954   3.848   3.415   3.259 -0.1029 -0.2310 -0.7281
   30C      C3'  955   3.703   3.069   2.986  0.5040  0.3666  0.6205
   30C      H3'  956   3.774   3.012   3.046  0.9322  0.5853  0.3254
   30C      C2'  957   3.715   3.221   3.021 -0.6103 -0.5329 -0.0882
   30C      H2'  958   3.818   3.258   3.028 -1.3236  1.5750  0.0715
   30C      O2'  959   3.654   3.316   2.935  0.5515  0.1011  0.3098
   30C     HO2'  960   3.603   3.384   2.979 -0.3541 -0.0129 -0.5201
   30C      O3'  961   3.708   3.025   2.849 -0.0674 -0.2823  0.0065
   31A        P  962   3.842   2.984   2.778  0.0169 -0.0034  0.0763
   31A      OP1  963   3.816   2.938   2.634  1.2255 -0.6946 -0.0799
   31A      OP2  964   3.922   2.898   2.861  0.0568  0.5591  0.4401
   31A      O5'  965   3.925   3.129   2.757  0.4950  0.6997 -0.2070
   31A      C5'  966   3.875   3.237   2.671  0.1461 -0.5707 -0.3340
   31A      H5'  967   3.801   3.297   2.724  1.3020  1.4294 -0.8761
   31A     H5''  968   3.841   3.203   2.573 -0.4357  0.1743 -0.3987
   31A      C4'  969   3.994   3.334   2.644 -0.2333 -0.6576  0.2574
   31A      H4'  970   3.960   3.411   2.574 -5.2867 -2.3380  0.4460
   31A      O4'  971   4.032   3.394   2.770 -0.3823 -0.5577 -0.7040
   31A      C1'  972   4.170   3.369   2.807 -0.1430 -0.0492 -0.0072
   31A      H1'  973   4.225   3.460   2.782 -0.3336  0.5682  1.7138
   31A       N9  974   4.161   3.338   2.953 -0.3763 -0.1077 -0.2807
   31A       C8  975   4.087   3.246   3.014 -0.2514 -0.1922  0.6127
   31A       H8  976   4.002   3.207   2.959  0.6552 -1.3366 -0.0264
   31A       N7  977   4.104   3.228   3.143  0.0209 -0.0514  0.1738
   31A       C5  978   4.221   3.300   3.161  0.4023  0.0851 -0.1917
   31A       C6  979   4.308   3.327   3.272  0.5158 -0.3317  0.4629
   31A       N6  980   4.295   3.273   3.390  0.0608  0.6016 -0.5035
   31A      H61  981   4.345   3.311   3.469  1.5182 -2.1376 -0.0177
   31A      H62  982   4.212   3.218   3.404 -0.2549  1.3427  0.7879
   31A       N1  983   4.409   3.409   3.258 -0.0085 -0.0675  0.0789
   31A       C2  984   4.421   3.469   3.147 -0.6959 -0.7002 -0.1426
   31A       H2  985   4.501   3.541   3.143 -0.9654 -0.4744 -2.2898
   31A       N3  986   4.351   3.462   3.034  0.7103 -0.0405 -0.8402
   31A       C4  987   4.242   3.380   3.050 -0.1177 -0.6620 -0.1631
   31A      C3'  988   4.127   3.264   2.593  0.0815  0.3519  0.6224
   31A      H3'  989   4.107   3.163   2.557 -1.3626  1.1292 -0.8752
   31A      C2'  990   4.216   3.255   2.720  0.1404  0.6485  0.1023
   31A      H2'  991   4.191   3.160   2.766 -0.6316 -1.3467 -3.9488
   31A      O2'  992   4.358   3.268   2.694  0.3717 -0.4857 -0.5652
   31A     HO2'  993   4.410   3.232   2.767  0.2077 -0.1890 -0.2952
   31A      O3'  994   4.193   3.343   2.491  0.5172  0.1206 -0.0366
   32A        P  995   4.233   3.283   2.349  0.0964  0.2223  0.2324
   32A      OP1  996   4.109   3.286   2.266 -0.6877 -0.3081  0.0140
   32A      OP2  997   4.317   3.166   2.368  0.4908  0.7745  0.3506
   32A      O5'  998   4.326   3.394   2.290 -1.0031 -0.0945  0.5418
   32A      C5'  999   4.275   3.505   2.220 -0.4357  0.3143 -0.5985
   32A      H5' 1000   4.190   3.540   2.279 -0.3957 -2.9962  1.7079
   32A     H5'' 1001   4.237   3.466   2.125  0.0453 -1.3426 -0.1465
   32A      C4' 1002   4.374   3.611   2.205  0.6494  0.5480 -0.3184
   32A      H4' 1003   4.329   3.694   2.150  2.8446  3.3662  1.8324
   32A      O4' 1004   4.392   3.675   2.332 -0.0790  0.6112  0.0535
   32A      C1' 1005   4.528   3.713   2.344  0.8767 -0.0418  0.8302
   32A      H1' 1006   4.534   3.820   2.361  0.9252  0.2368 -0.8029
   32A       N9 1007   4.587   3.636   2.455 -0.2204 -0.5452 -0.4164
   32A       C8 1008   4.542   3.525   2.516 -0.5764  0.2527 -0.7672
   32A       H8 1009   4.465   3.460   2.477  0.3604 -0.1442 -2.0256
   32A       N7 1010   4.601   3.495   2.625  0.3599  0.3771  0.0781
   32A       C5 1011   4.705   3.589   2.631  0.4262  0.8580  0.7942
   32A       C6 1012   4.820   3.611   2.718  0.2220 -0.0415  0.2943
   32A       N6 1013   4.842   3.552   2.831 -0.9189 -0.0452 -0.0390
   32A      H61 1014   4.927   3.569   2.882 -0.0803 -0.2982 -1.3019
   32A      H62 1015   4.771   3.485   2.857 -1.3197  0.3703 -0.0408
   32A       N1 1016   4.914   3.697   2.688 -0.2678  0.0361  0.9659
   32A       C2 1017   4.896   3.767   2.574  0.2053  0.1097 -0.1075
   32A       H2 1018   4.971   3.839   2.547  0.4367 -0.1085 -0.0538
   32A       N3 1019   4.793   3.765   2.493 -0.1441 -0.1991 -0.6832
   32A       C4 1020   4.702   3.671   2.522 -0.8956  0.1070 -0.1058
   32A      C3' 1021   4.514   3.566   2.156 -0.2637 -0.5406  0.0743
   32A      H3' 1022   4.557   3.482   2.211  0.8723 -0.3630 -0.5037
   32A      C2' 1023   4.589   3.690   2.201 -0.2644 -0.6214  0.5759
   32A      H2' 1024   4.696   3.675   2.189 -0.4628 -0.9590 -1.1302
   32A      O2' 1025   4.572   3.800   2.109 -0.2731  0.3266 -0.5896
   32A     HO2' 1026   4.624   3.771   2.034  2.3881 -2.0367  1.9289
   32A      O3' 1027   4.530   3.546   2.014 -0.1770  0.4171  0.2950
   33G3       P 1028   4.577   3.404   1.951  0.2446  0.1851  0.1603
   33G3     OP1 1029   4.617   3.423   1.814  0.4074 -0.2260  0.1660
   33G3     OP2 1030   4.481   3.303   1.993 -0.4386 -0.1456  0.0017
   33G3     O5' 1031   4.707   3.382   2.031 -0.1032 -0.3430 -0.0085
   33G3     C5' 1032   4.822   3.465   2.009 -0.1212 -0.5555  0.5551
   33G3     H5' 1033   4.791   3.568   1.991 -0.4150 -0.7343  0.0068
   33G3    H5'' 1034   4.873   3.423   1.922 -2.1879 -2.2402  0.0587
   33G3     C4' 1035   4.919   3.462   2.128  0.3184 -0.7894  0.2811
   33G3     H4' 1036   4.992   3.542   2.114 -0.3614 -0.5266 -2.4162
   33G3     O4' 1037   4.851   3.472   2.253 -0.4019  0.1876 -0.4307
   33G3     C1' 1038   4.925   3.412   2.355  0.9248  0.3804 -0.7712
   33G3     H1' 1039   4.956   3.475   2.439 -0.0517 -0.1888  0.0501
   33G3      N9 1040   4.838   3.308   2.407 -0.2442  0.3735 -0.6239
   33G3      C8 1041   4.721   3.256   2.351 -0.0601 -0.1149  0.7851
   33G3      H8 1042   4.669   3.287   2.262 -2.0102 -2.5838  0.9646
   33G3      N7 1043   4.667   3.160   2.423 -0.3012  0.1184 -0.1721
   33G3      C5 1044   4.750   3.156   2.538  0.1289 -0.1245 -0.3841
   33G3      C6 1045   4.744   3.076   2.653 -0.1472  1.0521  0.1028
   33G3      O6 1046   4.659   2.998   2.687  0.0752  0.2089 -0.2915
   33G3      N1 1047   4.844   3.102   2.743 -0.0065 -0.2940  0.3396
   33G3      H1 1048   4.855   3.037   2.819  1.5483 -0.6779 -0.1838
   33G3      C2 1049   4.937   3.200   2.729  0.0852 -0.0787  0.2336
   33G3      N2 1050   5.038   3.193   2.805 -0.5394 -0.4068 -0.3456
   33G3     H21 1051   5.038   3.126   2.880 -0.9359 -0.9133 -0.7871
   33G3     H22 1052   5.103   3.269   2.792 -0.9433  0.0006 -0.0276
   33G3      N3 1053   4.948   3.279   2.618 -0.1785  0.2245 -0.2305
   33G3      C4 1054   4.852   3.248   2.530  0.2099  0.3456 -0.0847
   33G3     C3' 1055   4.987   3.325   2.147  1.1582  0.1046 -0.6411
   33G3     H3' 1056   4.917   3.241   2.149  0.5904  0.5641 -1.0014
   33G3     C2' 1057   5.040   3.347   2.287  0.3684  0.8893  0.0482
   33G3     H2' 1058   5.055   3.250   2.333 -0.7963  1.0851  0.8892
   33G3     O2' 1059   5.156   3.423   2.308  0.2623  0.1014  0.0305
   33G3    HO2' 1060   5.235   3.367   2.312  0.1106 -0.2603 -1.4959
   33G3     O3' 1061   5.094   3.305   2.059 -0.2543 -0.1148  0.4592
   33G3    HO3' 1062   5.153   3.241   2.099 -1.1379 -0.9480  0.4709
   34K+      K+ 1063   4.375   4.386   4.089 -0.0089  0.0370 -0.1213
   35K+      K+ 1064   3.950   3.664   4.921  0.1196  0.1288  0.0316
   36K+      K+ 1065   1.681   3.754   1.967  0.1025 -0.7379 -0.3130
   37K+      K+ 1066   4.897   4.849   5.867 -0.2442 -0.2372 -0.0400
   38K+      K+ 1067   4.892   2.343   4.005 -0.3460  0.0399 -0.4342
   39K+      K+ 1068   4.445   3.039   2.548  0.0508  0.2418  0.1133
   40K+      K+ 1069   4.497   5.466   3.699 -0.3246 -0.4465  0.0345
   41K+      K+ 1070   3.990   1.712   5.213 -0.1307  0.2813 -0.1108
   42K+      K+ 1071   2.352   3.380   4.788  0.1740  0.3973 -0.0959
   43K+      K+ 1072   1.444   2.817   5.087  0.1019 -0.4451  0.0362
   44K+      K+ 1073   2.314   4.073   0.129  0.1407 -0.5193  0.0435
   45K+      K+ 1074   4.107   2.898   1.519  0.0524 -0.2933  0.5750
   46K+      K+ 1075   4.567   5.082   5.209  0.0217 -0.0254 -0.2713
   47K+      K+ 1076   3.974   4.698   3.859  0.2041  0.2981  0.0672
   48K+      K+ 1077   4.371   3.142   5.168 -0.3411 -0.0063  0.1643
   49K+      K+ 1078   5.466   4.041   3.275  0.1127 -0.0454  0.4825
   50K+      K+ 1079   1.846   7.697   4.794 -0.2827  0.4517  0.0763
   51K+      K+ 1080   4.935   3.667   4.006  0.1979  0.2941 -0.4070
   52K+      K+ 1081   4.101   2.518   3.966 -0.0912  0.1015 -0.0633
   53K+      K+ 1082   1.200   4.763   3.051  0.4594 -0.2375 -0.1790
   54K+      K+ 1083   5.106   4.247   5.200  0.0570  0.1863  0.4148
   55K+      K+ 1084   3.784   2.127   4.049 -0.5598 -0.0469 -0.1391
   56K+      K+ 1085   4.716   3.317   4.105  0.0730  0.5847  0.3177
   57K+      K+ 1086   4.649   4.477   2.718 -0.0437 -0.0469  0.5027
   58K+      K+ 1087   3.137   2.736   3.209 -0.0489  0.0874  0.1216
   59K+      K+ 1088   3.518   2.434   7.529  0.4045  0.4368  0.7415
   60K+      K+ 1089   3.035   2.939   6.351  0.1372  0.2807  0.1091
   61K+      K+ 1090   2.819   4.494   4.426  0.2233  0.3051 -0.1558
   62K+      K+ 1091   3.531   4.562   3.846  0.1178 -0.0364 -0.1589
   63K+      K+ 1092   4.655   5.127   5.760 -0.0567  0.4318 -0.1394
   64K+      K+ 1093   6.654   1.944   1.881  0.1110 -0.3910  0.4192
   65K+      K+ 1094   3.007   6.724   0.948  0.3446  0.0948 -0.0060
   66K+      K+ 1095   5.909   2.952   1.264  0.0127 -0.3844 -0.0606
   67K+      K+ 1096   4.520   6.895   5.840 -0.1736  0.3689 -0.3809
   68K+      K+ 1097   0.391   5.198   4.192  0.1150 -0.0130 -0.0358
   69K+      K+ 1098   5.566   0.826   2.283  0.6065 -0.1163  0.1270
   70K+      K+ 1099   3.700   3.139   1.071 -0.0613  0.2735 -0.1131
   71K+      K+ 1100   4.694   6.087   3.571 -0.4335 -0.3137 -0.0610
   72K+      K+ 1101   3.143   7.688   1.910 -0.2513 -0.3765  0.0865
   73K+      K+ 1102   1.989   4.102   4.849  0.2466 -0.0852 -0.1205
   74K+      K+ 1103   0.039   6.237   2.914  0.1641  0.3170  0.1155
   75K+      K+ 1104   5.200   1.703   0.933 -0.2885  0.5297 -0.0865
   76K+      K+ 1105   7.770   5.680   3.796 -0.1598 -0.0877 -0.0051
   77K+      K+ 1106   1.671   4.138   7.425  0.1861 -0.0417 -0.1528
   78K+      K+ 1107   4.785   5.322   3.147  0.1208 -0.1134 -0.0248
   79K+      K+ 1108   6.326   3.069   2.746 -0.1253  0.0621 -0.0172
   80K+      K+ 1109   2.941   4.260   5.895  0.2679 -0.4751 -0.1106
   81K+      K+ 1110   3.500   4.406   2.594 -0.0873 -0.2255 -0.3176
   82K+      K+ 1111   5.991   6.814   3.985  0.1936 -0.1518  0.1289
   83K+      K+ 1112   5.895   2.863   3.014  0.1263 -0.2828  0.0470
   84K+      K+ 1113   2.650   5.826   3.167  0.3017 -0.1964 -0.1399
   85K+      K+ 1114   4.199   5.494   1.229 -0.0405  0.1716 -0.0631
   86K+      K+ 1115   4.347   4.129   5.076 -0.3131 -0.2279  0.0437
   87Cl-    Cl- 1116   4.369   3.799   1.492  0.4312  0.0262  0.0167
   88Cl-    Cl- 1117   4.918   4.718   5.142 -0.1445 -0.0755 -0.5258
   89Cl-    Cl- 1118   1.703   4.929   6.913 -0.2558 -0.1310  0.4723
   90Cl-    Cl- 1119   1.988   4.877   0.732 -0.1383 -0.0240  0.3929
   91Cl-    Cl- 1120   3.970   6.714   3.986  0.1192  0.2637  0.4722
   92Cl-    Cl- 1121   0.240   1.049   2.054  0.0406  0.0108  0.0968
   93Cl-    Cl- 1122   1.914   6.111   2.787 -0.3350  0.1706 -0.1741
   94Cl-    Cl- 1123   6.047   0.268   3.899  0.0486  0.0715 -0.7203
   95Cl-    Cl- 1124   5.663   2.623   2.159 -0.0072 -0.0272  0.4395
   96Cl-    Cl- 1125   3.234   1.567   6.446 -0.4759 -0.1944 -0.3290
   97Cl-    Cl- 1126   1.006   1.707   4.368  0.0282  0.3705 -0.0938
   98Cl-    Cl- 1127   4.540   2.752   5.159  0.2172  0.3347 -0.2273
   99Cl-    Cl- 1128   0.444   5.961   4.162  0.1298 -0.5249 -0.1977
  100Cl-    Cl- 1129   3.755   3.105   6.864 -0.0844  0.5217  0.1238
  101Cl-    Cl- 1130   5.605   5.498   2.298  0.1872 -0.2161  0.5052
  102Cl-    Cl- 1131   6.366   3.668   2.530  0.2208 -0.2465 -0.2306
  103Cl-    Cl- 1132   2.997   4.537   7.909  0.0078 -0.0858  0.0021
  104Cl-    Cl- 1133   3.003   3.162   3.550 -0.3882  0.0368  0.0284
  105Cl-    Cl- 1134   3.865   5.593   6.887 -0.0300 -0.0410 -0.3337
  106Cl-    Cl- 1135   5.770   0.880   2.560 -0.1690 -0.2884  0.0993
  107Cl-    Cl- 1136   2.215   4.140   0.680  0.2074  0.1601  0.1203
  108WAT      O 1137   0.190   6.605   1.194 -0.0880  0.3947  0.0214
  108WAT     H1 1138   0.187   6.571   1.274  1.3826 -0.1346 -0.1248
  108WAT     H2 1139   0.246   6.554   1.152 -0.8540  0.6435 -1.3738
  108WAT    EPW 1140   0.198   6.593   1.199  0.0246  0.1584  0.5363
  109WAT      O 1141   4.584   0.165   1.171  0.2104  0.1039  0.7542
  109WAT     H1 1142   4.573   0.185   1.087 -3.0722  0.1482  1.0432
  109WAT     H2 1143   4.585   0.243   1.211 -0.7962  0.0420  0.9260
  109WAT    EPW 1144   4.582   0.180   1.165 -0.1976 -0.1636  0.6494
  110WAT      O 1145   4.348   4.443   2.022 -0.0105 -0.3173  0.0772
  110WAT     H1 1146   4.310   4.466   1.948  1.4265 -0.1952 -0.6629
  110WAT     H2 1147   4.310   4.367   2.042 -0.4728 -0.3066 -0.7304
  110WAT    EPW 1148   4.337   4.435   2.014  0.3761 -0.1941  0.3681
  111WAT      O 1149   2.089   0.669   0.769  0.1701  0.3685 -0.1334
  111WAT     H1 1150   2.122   0.600   0.726 -0.2503 -0.3344  0.6556
  111WAT     H2 1151   2.102   0.650   0.853 -3.4745 -0.6975  0.3781
  111WAT    EPW 1152   2.096   0.656   0.775  0.8739 -0.5435  0.1913
  112WAT      O 1153   4.925   7.090   7.430  0.3781 -0.2544  0.0191
  112WAT     H1 1154   4.869   7.063   7.369  0.0954  1.2324 -0.4270
  112WAT     H2 1155   4.883   7.073   7.505 -0.9197  1.2146 -0.3067
  112WAT    EPW 1156   4.910   7.084   7.432  0.0283 -1.0298  0.3482
  113WAT      O 1157   3.438   7.741   0.716 -0.3038 -0.0694  0.2301
  113WAT     H1 1158   3.468   7.754   0.797  0.1555 -1.7104  0.3625
  113WAT     H2 1159   3.408   7.660   0.718  0.6411 -0.5279 -1.5026
  113WAT    EPW 1160   3.438   7.731   0.728 -0.3128  0.3927  0.7012
  114WAT      O 1161   3.700   7.912   1.294  0.2544  0.0683  0.3700
  114WAT     H1 1162   3.660   7.870   1.360  0.6897 -0.9867 -0.0208
  114WAT     H2 1163   3.676   7.867   1.224 -1.2835  1.9746 -0.3935
  114WAT    EPW 1164   3.691   7.899   1.294  0.0610  0.1525 -0.0697
  115WAT      O 1165   4.839   5.166   7.934 -0.0838 -0.0954  0.3553
  115WAT     H1 1166   4.847   5.093   7.887  0.7997  0.3094 -0.1527
  115WAT     H2 1167   4.883   5.150   8.007  0.9101  0.2531 -0.1592
  115WAT    EPW 1168   4.846   5.153   7.938 -0.1777 -0.2152 -0.2494
  116WAT      O 1169   6.198   1.227   8.025 -0.6242 -0.2332  0.2884
  116WAT     H1 1170   6.222   1.250   8.105  1.0794 -0.3575 -0.1567
  116WAT     H2 1171   6.231   1.146   8.016  1.0034  0.5363 -1.2290
  116WAT    EPW 1172   6.206   1.218   8.036  0.2588 -0.7267  0.0356
  117WAT      O 1173   2.454   2.812   1.349  0.1653 -0.3618 -0.0990
  117WAT     H1 1174   2.429   2.769   1.277 -0.1789 -0.1877 -0.0841
  117WAT     H2 1175   2.499   2.752   1.394 -0.4507 -0.7566 -0.0017
  117WAT    EPW 1176   2.457   2.797   1.345  0.2113 -0.5821 -0.5656
  118WAT      O 1177   5.548   3.859   5.219 -0.2349 -0.1500  0.2453
  118WAT     H1 1178   5.605   3.801   5.187 -1.2338 -1.0518  0.0477
  118WAT     H2 1179   5.497   3.877   5.151  1.1307  2.4131 -0.2318
  118WAT    EPW 1180   5.549   3.853   5.204 -0.8138 -0.2576 -0.0767
  119WAT      O 1181   7.964   2.352   3.566 -0.1008  0.2450 -0.4069
  119WAT     H1 1182   7.932   2.274   3.586 -0.0372  0.2695 -0.2050
  119WAT     H2 1183   8.002   2.378   3.640  1.2811 -0.2262 -0.9177
  119WAT    EPW 1184   7.965   2.345   3.579  0.5320  0.0260  0.0543
  120WAT      O 1185   5.588   2.983   8.016 -0.5403  0.4651  0.3318
  120WAT     H1 1186   5.602   2.901   7.990  1.4209  0.3569  1.4995
  120WAT     H2 1187   5.603   3.030   7.945  1.4116 -0.0366  0.3296
  120WAT    EPW 1188   5.592   2.978   8.002 -0.0613 -0.0599  0.0243
  121WAT      O 1189   5.837   0.700   5.554  0.0868 -0.3821 -0.0741
  121WAT     H1 1190   5.856   0.737   5.630 -1.5205 -0.3996  0.3713
  121WAT     H2 1191   5.890   0.740   5.497  2.1592 -1.1679  1.1650
  121WAT    EPW 1192   5.848   0.711   5.557 -0.0291  0.0797  0.4634
  122WAT      O 1193   4.371   0.068   0.596  0.0409  0.3296 -1.0288
  122WAT     H1 1194   4.325   0.024   0.536 -0.0664  1.2102 -1.6199
  122WAT     H2 1195   4.327   0.143   0.603  0.7586  0.7269 -0.7663
  122WAT    EPW 1196   4.357   0.073   0.588  0.1809 -0.1014 -0.1258
  123WAT      O 1197   5.403   2.334   4.511 -0.0031 -0.0007 -0.0965
  123WAT     H1 1198   5.322   2.319   4.483  0.0246 -1.9714  0.7230
  123WAT     H2 1199   5.392   2.367   4.591  0.0049 -0.5827  0.1456
  123WAT    EPW 1200   5.389   2.337   4.519 -0.0146 -0.3402 -0.7739
  124WAT      O 1201   5.909   1.457   1.646 -0.1206  0.4730 -0.3425
  124WAT     H1 1202   5.942   1.500   1.577  0.7342 -0.2565 -0.4024
  124WAT     H2 1203   5.894   1.377   1.614  0.2570  0.1358  0.3159
  124WAT    EPW 1204   5.911   1.452   1.631 -0.0143 -0.2282 -0.1080
  125WAT      O 1205   4.375   4.275   0.726 -0.2150 -0.0847 -0.3161
  125WAT     H1 1206   4.437   4.300   0.781 -0.2572  0.8316 -0.6745
  125WAT     H2 1207   4.302   4.277   0.774 -0.1226 -0.1342 -0.1753
  125WAT    EPW 1208   4.374   4.279   0.741 -0.0468 -0.2573 -0.2415
  126WAT      O 1209   0.730   7.761   3.115 -0.3070 -0.0733 -0.4593
  126WAT     H1 1210   0.682   7.834   3.108  0.2919  0.2891 -0.9168
  126WAT     H2 1211   0.676   7.705   3.154 -0.5472  0.8289  0.5382
  126WAT    EPW 1212   0.715   7.764   3.119  0.5271 -0.2376 -0.0211
  127WAT      O 1213   5.797   0.848   4.864 -0.2302  0.0723  0.4856
  127WAT     H1 1214   5.719   0.875   4.836  0.8111  0.7163 -2.0847
  127WAT     H2 1215   5.833   0.812   4.793  2.3678  1.0866  1.1816
  127WAT    EPW 1216   5.791   0.847   4.850 -0.0288  0.0176  0.5296
  128WAT      O 1217   0.702   3.369   3.517  0.1136 -0.1732  0.2153
  128WAT     H1 1218   0.636   3.318   3.544  0.7626 -1.0449  0.1935
  128WAT     H2 1219   0.677   3.395   3.438  0.0387 -0.9462 -0.0167
  128WAT    EPW 1220   0.689   3.365   3.509  0.3055 -0.9203  0.4101
  129WAT      O 1221   5.539   1.262   7.405  0.2309  0.1558 -0.3857
  129WAT     H1 1222   5.535   1.181   7.438  2.6884  0.1012 -0.0450
  129WAT     H2 1223   5.502   1.253   7.326 -2.8360 -0.4147  0.9902
  129WAT    EPW 1224   5.533   1.249   7.398  0.1501  0.1276  0.3528
  130WAT      O 1225   1.813   1.994   1.064 -0.3015  0.2988  0.0929
  130WAT     H1 1226   1.739   1.969   1.104  0.5396  0.0846  1.5914
  130WAT     H2 1227   1.875   1.971   1.120  0.8087  2.1043 -0.3178
  130WAT    EPW 1228   1.811   1.987   1.078 -0.0275  0.0129  0.2808
  131WAT      O 1229   3.689   7.474   6.806  0.1890 -0.2263 -0.2432
  131WAT     H1 1230   3.722   7.405   6.765 -0.0210 -0.5821  0.1736
  131WAT     H2 1231   3.718   7.542   6.760  0.1738 -0.6053 -0.8176
  131WAT    EPW 1232   3.698   7.474   6.794 -0.3570 -0.2516  0.0607
  132WAT      O 1233   5.675   0.486   7.140 -0.1626  0.1771  0.2841
  132WAT     H1 1234   5.648   0.509   7.060 -0.1891 -0.8312 -0.0077
  132WAT     H2 1235   5.657   0.401   7.144  1.9808 -0.3083  0.4923
  132WAT    EPW 1236   5.668   0.477   7.129  0.6475  0.2828  0.0239
  133WAT      O 1237   2.627   7.637   6.083  0.3292  0.3654 -0.2717
  133WAT     H1 1238   2.544   7.653   6.100  0.4359  1.1616 -0.4550
  133WAT     H2 1239   2.628   7.617   5.998  0.4863  1.6491 -0.5849
  133WAT    EPW 1240   2.615   7.636   6.073  0.3344  0.4149 -0.1261
  134WAT      O 1241   4.446   4.945   7.772  0.1223  0.2947  0.2957
  134WAT     H1 1242   4.367   4.947   7.734 -0.6107 -1.2378  1.5850
  134WAT     H2 1243   4.488   4.882   7.728 -0.1173 -0.2943  0.8951
  134WAT    EPW 1244   4.440   4.936   7.760 -0.4271  0.3173  0.0553
  135WAT      O 1245   3.532   1.284   5.563 -0.9078  0.8462 -0.2957
  135WAT     H1 1246   3.449   1.300   5.541 -1.3717 -1.4185 -0.4345
  135WAT     H2 1247   3.525   1.230   5.631  0.4607  0.6231 -0.3069
  135WAT    EPW 1248   3.519   1.278   5.570 -0.5706  0.1009  0.0644
  136WAT      O 1249   6.293   7.226   1.456 -0.3914 -0.1920 -0.2217
  136WAT     H1 1250   6.219   7.230   1.408 -0.0147  0.5222 -0.7669
  136WAT     H2 1251   6.308   7.310   1.476  1.0169 -0.1482 -1.3093
  136WAT    EPW 1252   6.284   7.239   1.452 -0.2560  0.0902 -0.6342
  137WAT      O 1253   1.455   1.234   0.832  0.1725 -0.5831 -0.4127
  137WAT     H1 1254   1.418   1.155   0.829 -0.5422 -0.2528 -0.5229
  137WAT     H2 1255   1.452   1.262   0.750 -0.7963  0.0924 -0.1691
  137WAT    EPW 1256   1.449   1.226   0.820 -0.1973  0.0865 -0.0067
  138WAT      O 1257   5.474   2.234   5.332  0.2065 -0.1165  0.1367
  138WAT     H1 1258   5.438   2.211   5.256 -0.4217  0.3609  0.2740
  138WAT     H2 1259   5.524   2.166   5.354 -0.3298 -0.6425 -0.2498
  138WAT    EPW 1260   5.476   2.221   5.324 -0.1301  0.3061 -0.3753
  139WAT      O 1261   3.246   7.262   6.212 -0.3125  0.0883 -0.7486
  139WAT     H1 1262   3.292   7.311   6.268  0.1176 -0.4694 -0.6059
  139WAT     H2 1263   3.166   7.259   6.248 -0.0655 -0.1842 -0.2106
  139WAT    EPW 1264   3.241   7.269   6.226  0.3070  0.4144 -0.1478
  140WAT      O 1265   6.840   6.144   2.986 -0.3956  0.3103  0.2277
  140WAT     H1 1266   6.788   6.214   2.991  1.9714  2.2396 -0.2802
  140WAT     H2 1267   6.900   6.159   3.047  0.7108 -0.8003 -0.5429
  140WAT    EPW 1268   6.841   6.157   2.996  0.0854 -0.1328 -0.2763
  141WAT      O 1269   5.380   2.699   0.573  0.3478 -0.9392  0.0508
  141WAT     H1 1270   5.395   2.683   0.488  0.4146  1.1747 -0.4069
  141WAT     H2 1271   5.449   2.664   0.613  2.0385  0.8052 -1.1369
  141WAT    EPW 1272   5.393   2.692   0.566 -0.1617 -0.6678  0.1700
  142WAT      O 1273   7.189   1.016   4.393 -0.2004  0.2570  0.2025
  142WAT     H1 1274   7.263   1.061   4.382  0.0118  0.0770  0.8517
  142WAT     H2 1275   7.159   1.045   4.470 -1.6959  1.5848 -0.8021
  142WAT    EPW 1276   7.195   1.027   4.403 -0.2026  0.6183  0.0247
  143WAT      O 1277   6.149   2.083   1.293 -0.8528 -0.5907  0.1939
  143WAT     H1 1278   6.137   2.022   1.232 -1.4802 -0.0766 -0.2114
  143WAT     H2 1279   6.182   2.039   1.361 -0.6789 -1.2609 -0.3228
  143WAT    EPW 1280   6.152   2.068   1.294  0.0505 -0.2459 -0.5685
  144WAT      O 1281   2.298   7.074   0.005 -0.7809  0.1251  0.2326
  144WAT     H1 1282   2.316   7.123   0.075 -1.5093  0.3815  0.2490
  144WAT     H2 1283   2.278   7.132  -0.057 -1.4801 -0.1342  0.2028
  144WAT    EPW 1284   2.298   7.090   0.006 -0.3065 -0.1127  0.0089
  145WAT      O 1285   5.039   4.195   6.993 -0.0581 -0.4430  0.0901
  145WAT     H1 1286   5.040   4.190   7.080 -0.8927  0.5960  0.1763
  145WAT     H2 1287   4.958   4.220   6.974  0.4521  0.5468 -0.9110
  145WAT    EPW 1288   5.027   4.198   7.003 -0.2730  0.0055  0.0214
  146WAT      O 1289   4.255   7.871   5.658 -0.1454 -0.5713  0.3983
  146WAT     H1 1290   4.183   7.917   5.644 -1.4062 -1.3577  3.4995
  146WAT     H2 1291   4.319   7.922   5.627 -1.8898  0.7543 -1.1846
  146WAT    EPW 1292   4.254   7.885   5.651 -0.8235  0.7103  0.6230
  147WAT      O 1293   5.434   0.672   3.317 -0.4156 -0.4295  0.3058
  147WAT     H1 1294   5.372   0.682   3.377  0.0711 -2.5072  1.2609
  147WAT     H2 1295   5.469   0.594   3.337  0.7540 -0.5125 -1.7859
  147WAT    EPW 1296   5.430   0.662   3.329  0.6346  0.0965 -0.7172
  148WAT      O 1297   4.797   6.996   4.881 -0.3612  0.1540  0.2407
  148WAT     H1 1298   4.810   6.935   4.820  1.2397 -0.2350  0.9125
  148WAT     H2 1299   4.760   6.952   4.947 -0.0634  0.1030  0.3744
  148WAT    EPW 1300   4.794   6.980   4.882  0.2081 -0.0988  0.0405
  149WAT      O 1301   5.057   2.875   5.090 -0.5843 -0.1781 -0.1099
  149WAT     H1 1302   4.995   2.892   5.150  0.0471  0.1449  0.4696
  149WAT     H2 1303   5.029   2.917   5.019 -2.3758 -2.1801 -0.7182
  149WAT    EPW 1304   5.044   2.883   5.089  0.9162  0.4079 -0.6848
  150WAT      O 1305   5.956   7.614   5.123 -0.3780 -0.2676  0.5681
  150WAT     H1 1306   5.879   7.636   5.157 -1.2640 -1.9360 -0.2197
  150WAT     H2 1307   5.965   7.530   5.145 -0.5746 -1.1902 -2.3730
  150WAT    EPW 1308   5.946   7.605   5.131  0.3090  0.0836  0.2317
  151WAT      O 1309   5.707   5.716   7.716  0.5114 -0.2421  0.4872
  151WAT     H1 1310   5.751   5.642   7.707 -0.3527 -0.6787 -0.2449
  151WAT     H2 1311   5.767   5.778   7.701  1.5910 -0.7165  2.5098
  151WAT    EPW 1312   5.722   5.714   7.713 -0.5334  0.2424 -0.4364
  152WAT      O 1313   3.797   5.964   6.689  0.6562 -0.2532  0.2049
  152WAT     H1 1314   3.779   6.025   6.748  2.3868  0.5177 -0.0051
  152WAT     H2 1315   3.869   5.926   6.720  0.8733 -0.6884 -0.7951
  152WAT    EPW 1316   3.805   5.967   6.702  0.1547  0.5685  0.0223
  153WAT      O 1317   4.961   7.353   7.102  0.1316  0.1568  0.2328
  153WAT     H1 1318   4.982   7.357   7.187  2.1252 -0.5935 -0.1524
  153WAT     H2 1319   4.964   7.436   7.076  2.2347  0.1837  0.3786
  153WAT    EPW 1320   4.965   7.365   7.111  0.6621 -0.1593  0.4006
  154WAT      O 1321   1.743   2.633   7.783  0.1774 -0.0053 -0.0906
  154WAT     H1 1322   1.771   2.714   7.800 -0.1646  0.2226 -0.6052
  154WAT     H2 1323   1.806   2.583   7.816  0.2391  0.4596  0.5234
  154WAT    EPW 1324   1.756   2.638   7.791  1.0045  0.2226 -0.4452
  155WAT      O 1325   6.614   6.612   4.674  0.0530  0.6695 -0.0715
  155WAT     H1 1326   6.688   6.634   4.714 -0.1186 -0.0306  0.6499
  155WAT     H2 1327   6.568   6.686   4.673  0.3015  0.8334  0.4891
  155WAT    EPW 1328   6.618   6.626   4.680  0.4470 -0.9388 -0.4537
  156WAT      O 1329   5.871   2.428   1.899 -0.0263  0.4691  0.3832
  156WAT     H1 1330   5.851   2.349   1.867 -1.9212  1.1544 -0.2966
  156WAT     H2 1331   5.803   2.447   1.950 -0.0258  1.9961 -0.1309
  156WAT    EPW 1332   5.858   2.419   1.902 -0.0040 -0.1993  0.0044
  157WAT      O 1333   7.236   2.609   4.189  0.3106 -0.3017  0.5704
  157WAT     H1 1334   7.181   2.669   4.159 -1.7361 -2.1441  0.4119
  157WAT     H2 1335   7.310   2.626   4.147 -0.9990  0.3975 -1.5912
  157WAT    EPW 1336   7.239   2.621   4.179  0.7150 -0.1628  0.2842
  158WAT      O 1337   5.198   1.995   6.332 -0.7572 -0.0560  0.0000
  158WAT     H1 1338   5.254   2.036   6.386 -0.7720 -1.1692  0.8762
  158WAT     H2 1339   5.181   1.920   6.372 -1.0701 -0.7567 -1.3878
  158WAT    EPW 1340   5.204   1.990   6.346 -0.2628  0.0630 -0.0324
  159WAT      O 1341   7.085   5.160   4.573 -0.3971 -0.0953 -0.2199
  159WAT     H1 1342   7.129   5.211   4.518  0.0067  2.3614  2.1577
  159WAT     H2 1343   7.120   5.081   4.561  2.3860  1.1140 -0.7518
  159WAT    EPW 1344   7.096   5.156   4.563  0.1737  0.2687  0.6961
  160WAT      O 1345   2.304   1.769   3.025  0.3594  0.0715 -0.0495
  160WAT     H1 1346   2.260   1.764   3.100  0.9188  0.8667  0.3440
  160WAT     H2 1347   2.377   1.724   3.041  0.0307 -0.6397 -0.4711
  160WAT    EPW 1348   2.309   1.762   3.038 -0.5925  0.4676  0.7044
  161WAT      O 1349   5.973   7.804   0.344 -0.3834  0.0323  0.8317
  161WAT     H1 1350   6.039   7.755   0.373  2.2004  2.1157 -0.9271
  161WAT     H2 1351   6.004   7.886   0.353 -1.7348  1.0111 -2.1233
  161WAT    EPW 1352   5.987   7.809   0.349 -0.2519 -0.0020 -0.6272
  162WAT      O 1353   1.724   0.633   7.831  0.4820  0.5120  0.1761
  162WAT     H1 1354   1.655   0.679   7.802 -0.6036 -1.4200 -0.4899
  162WAT     H2 1355   1.787   0.653   7.774 -0.6176 -0.4759 -1.4837
  162WAT    EPW 1356   1.723   0.643   7.818  0.2164 -0.1763  0.2903
  163WAT      O 1357   5.848   2.418   7.972 -0.2823 -0.4273 -0.1288
  163WAT     H1 1358   5.763   2.414   7.994 -0.1457  2.6967  1.5325
  163WAT     H2 1359   5.884   2.354   8.019 -1.4623 -0.5956  0.5978
  163WAT    EPW 1360   5.840   2.408   7.982  0.7263 -0.3513 -0.0673
  164WAT      O 1361   6.805   6.679   1.458 -0.0442  0.2807  0.0437
  164WAT     H1 1362   6.789   6.754   1.500 -1.7121 -0.2089  0.3767
  164WAT     H2 1363   6.819   6.621   1.521 -0.6334 -0.0603 -0.1261
  164WAT    EPW 1364   6.804   6.682   1.473  0.2707  0.1815 -0.3729
  165WAT      O 1365   3.575   4.849   6.843 -0.3645 -0.4448 -0.8749
  165WAT     H1 1366   3.612   4.845   6.921  1.6974 -1.8845 -1.8411
  165WAT     H2 1367   3.612   4.918   6.806 -0.4637 -0.4455 -0.9760
  165WAT    EPW 1368   3.586   4.858   6.849 -0.0517  0.3154  0.4351
  166WAT      O 1369   5.083   2.758   7.332 -0.0862 -0.5886  0.2051
  166WAT     H1 1370   5.006   2.746   7.294 -0.6650 -1.1620  1.4902
  166WAT     H2 1371   5.068   2.823   7.388  0.7069  0.1386 -0.3969
  166WAT    EPW 1372   5.070   2.766   7.335  0.1773  0.4409 -0.1660
  167WAT      O 1373   2.521   7.403   6.360  0.5591  0.1682  0.3817
  167WAT     H1 1374   2.583   7.406   6.421  0.5290  0.9305  0.3947
  167WAT     H2 1375   2.452   7.371   6.402  0.1476  1.9183  1.1433
  167WAT    EPW 1376   2.520   7.399   6.375 -0.4566  0.3692  0.1664
  168WAT      O 1377   4.149   2.424   6.509  0.5844  0.2793  0.5961
  168WAT     H1 1378   4.122   2.406   6.428  2.2199 -1.6010  0.4055
  168WAT     H2 1379   4.076   2.451   6.549 -1.0408 -1.9583 -0.5934
  168WAT    EPW 1380   4.134   2.425   6.503 -0.3534 -0.6283 -0.2682
  169WAT      O 1381   7.104   7.993   0.867 -0.1103  0.3747 -0.5278
  169WAT     H1 1382   7.183   7.970   0.895 -0.6372 -1.1231 -0.2005
  169WAT     H2 1383   7.081   7.928   0.814 -2.2325 -0.6822  1.4872
  169WAT    EPW 1384   7.112   7.980   0.863  0.2076 -0.5733  0.2230
  170WAT      O 1385   5.595   3.797   2.011 -0.2554 -0.5494 -0.1092
  170WAT     H1 1386   5.543   3.847   2.061  0.9121  0.7486 -0.1355
  170WAT     H2 1387   5.582   3.829   1.931  2.6193  1.8070  0.1976
  170WAT    EPW 1388   5.585   3.809   2.007  0.3748  0.0798  0.2962
  171WAT      O 1389   5.734   7.856   6.363 -0.1289  0.3239 -0.2878
  171WAT     H1 1390   5.787   7.861   6.294  0.3585  2.8739  0.1512
  171WAT     H2 1391   5.762   7.921   6.415 -0.8122 -1.1595  2.0947
  171WAT    EPW 1392   5.746   7.867   6.361  0.2197  0.0296 -0.0876
  172WAT      O 1393   4.385   7.815   3.842 -0.0175  0.1604  0.5169
  172WAT     H1 1394   4.341   7.786   3.911 -1.1701  0.4094 -0.0906
  172WAT     H2 1395   4.441   7.751   3.825 -0.3366 -0.2938  1.1316
  172WAT    EPW 1396   4.387   7.802   3.850 -0.0629 -0.5029  0.4577
  173WAT      O 1397   6.740   7.580   0.086 -0.2942 -0.1070  0.1586
  173WAT     H1 1398   6.767   7.505   0.122  0.8241 -0.6033 -1.6125
  173WAT     H2 1399   6.706   7.555   0.010 -2.4174  0.9279  0.6803
  173WAT    EPW 1400   6.739   7.565   0.080 -0.3779  0.5760  0.2560
  174WAT      O 1401   4.013   0.442   7.627 -0.3658 -0.1810  0.5388
  174WAT     H1 1402   4.074   0.470   7.682  2.1876  1.4027 -2.7695
  174WAT     H2 1403   4.036   0.359   7.611  0.0422 -0.0512  0.4417
  174WAT    EPW 1404   4.025   0.434   7.632  0.5476  0.1746  0.2218
  175WAT      O 1405   5.867   1.737   5.487 -0.7188 -0.6624 -0.0227
  175WAT     H1 1406   5.784   1.735   5.459 -0.2980 -1.6404 -1.2642
  175WAT     H2 1407   5.902   1.665   5.452  0.1321 -1.4005  2.1791
  175WAT    EPW 1408   5.860   1.726   5.478  0.2325 -0.1438  0.0728
  176WAT      O 1409   5.820   0.646   4.389 -0.1563 -0.3518 -0.3249
  176WAT     H1 1410   5.866   0.702   4.340 -0.5858  1.8321  1.6165
  176WAT     H2 1411   5.840   0.569   4.354  0.2479  0.9461 -3.3519
  176WAT    EPW 1412   5.830   0.643   4.376 -0.1861  0.3050 -0.3954
  177WAT      O 1413   0.864   1.214   0.642  0.2382  0.5801  0.0941
  177WAT     H1 1414   0.931   1.218   0.697  0.6493  1.9275 -0.4563
  177WAT     H2 1415   0.899   1.238   0.565 -0.3241 -1.1767 -0.7579
  177WAT    EPW 1416   0.879   1.218   0.639 -0.4286  0.1181  0.4351
  178WAT      O 1417   3.394   4.960   3.049 -0.3502  0.5165  0.4926
  178WAT     H1 1418   3.308   4.949   3.058 -0.9507  3.5205 -0.5861
  178WAT     H2 1419   3.404   4.981   2.965  1.3988  0.7092  0.7038
  178WAT    EPW 1420   3.383   4.961   3.038 -0.3002 -0.2334 -0.6053
  179WAT      O 1421   5.867   7.818   7.038  0.8336  0.9296  0.1214
  179WAT     H1 1422   5.933   7.867   7.009  0.5484  1.8843  1.0531
  179WAT     H2 1423   5.797   7.868   7.025  0.4088  0.3350  0.0994
  179WAT    EPW 1424   5.866   7.832   7.032 -0.6306 -0.2128 -0.2236
  180WAT      O 1425   5.117   6.944   1.743 -0.4278 -0.3580 -0.3456
  180WAT     H1 1426   5.097   6.900   1.671 -1.2495 -0.0832 -0.2964
  180WAT     H2 1427   5.202   6.928   1.754 -0.2899 -0.4034 -1.3739
  180WAT    EPW 1428   5.127   6.935   1.734 -0.1913  0.2549  0.1123
  181WAT      O 1429   1.475   0.052   2.552 -0.0951  0.1872  0.5959
  181WAT     H1 1430   1.527  -0.018   2.552 -1.1232 -0.5972 -0.2936
  181WAT     H2 1431   1.396   0.019   2.567 -0.5801  1.1673  0.2632
  181WAT    EPW 1432   1.471   0.037   2.554 -0.3325  0.6395  0.3776
  182WAT      O 1433   1.205   1.066   0.519  0.1032 -0.4464  0.3386
  182WAT     H1 1434   1.183   1.108   0.593 -0.5952 -1.0248  0.4642
  182WAT     H2 1435   1.155   1.103   0.459 -0.1915 -0.7862  0.3708
  182WAT    EPW 1436   1.195   1.078   0.521 -0.1445  0.5197  0.4978
  183WAT      O 1437   6.066   0.483   7.175  0.1186 -0.3073 -0.2337
  183WAT     H1 1438   6.124   0.490   7.240  0.4637 -0.6935 -0.4935
  183WAT     H2 1439   6.019   0.556   7.182  0.3287 -0.2151  0.2799
  183WAT    EPW 1440   6.068   0.495   7.186 -0.3271  0.8003  0.2004
  184WAT      O 1441   5.972   3.085   6.610 -0.4846 -0.2728  0.0563
  184WAT     H1 1442   6.000   3.112   6.532 -0.5380 -0.1641  0.0745
  184WAT     H2 1443   5.940   3.158   6.647  0.2633 -0.1573  0.4950
  184WAT    EPW 1444   5.971   3.100   6.604  0.1073 -0.2923 -0.1741
  185WAT      O 1445   5.008   5.167   1.252  0.3124 -0.1302  0.4025
  185WAT     H1 1446   4.928   5.173   1.286 -0.3274  0.9819 -1.1516
  185WAT     H2 1447   5.021   5.246   1.217  1.2071 -0.9429 -1.1928
  185WAT    EPW 1448   4.998   5.180   1.252  0.5640 -0.7799  0.6855
  186WAT      O 1449   0.516   1.408   2.785 -0.7463  0.2364 -0.9316
  186WAT     H1 1450   0.470   1.379   2.853  0.6416  1.1898  0.4661
  186WAT     H2 1451   0.529   1.492   2.803  0.1896  0.3589 -2.0608
  186WAT    EPW 1452   0.511   1.416   2.797 -0.0497 -0.7067 -0.6678
  187WAT      O 1453   0.904   4.992   3.349 -0.1728  0.5120 -0.1329
  187WAT     H1 1454   0.970   5.001   3.292 -0.1966  2.4743  0.1037
  187WAT     H2 1455   0.931   4.926   3.400  1.4662  1.0494 -0.2506
  187WAT    EPW 1456   0.918   4.983   3.348  0.3617  1.1986  0.2541
  188WAT      O 1457   5.069   7.172   5.060 -0.4158  0.0355 -0.2488
  188WAT     H1 1458   5.121   7.145   4.996 -2.1844  1.4053 -2.4018
  188WAT     H2 1459   5.017   7.231   5.022 -1.6438  0.8807  2.4341
  188WAT    EPW 1460   5.069   7.177   5.045  0.0394  0.5335 -0.2574
  189WAT      O 1461   3.328   7.216   4.575  0.8499 -0.3842  0.0921
  189WAT     H1 1462   3.412   7.234   4.560  0.4859  0.2616 -1.4497
  189WAT     H2 1463   3.326   7.129   4.581  1.3079 -0.6591 -2.5688
  189WAT    EPW 1464   3.340   7.206   4.573  0.2555 -0.3776 -0.3603
  190WAT      O 1465   1.877   6.746   1.199  0.4797  0.1287 -0.0367
  190WAT     H1 1466   1.898   6.802   1.135  1.2160  1.5028  1.3258
  190WAT     H2 1467   1.824   6.793   1.250 -1.0054 -1.3030 -0.1754
  190WAT    EPW 1468   1.873   6.761   1.197 -0.3759 -0.0493 -0.1223
  191WAT      O 1469   5.490   5.366   2.888 -0.4563 -0.2639 -0.1179
  191WAT     H1 1470   5.553   5.326   2.844 -1.1099  0.3687 -1.7228
  191WAT     H2 1471   5.521   5.447   2.900 -0.5529 -0.2399 -0.0272
  191WAT    EPW 1472   5.504   5.372   2.883  0.2674  0.4703 -0.2302
  192WAT      O 1473   4.484   5.958   2.025  0.2631  0.0727  0.0197
  192WAT     H1 1474   4.494   5.999   2.101  0.6481  0.0178  0.0002
  192WAT     H2 1475   4.564   5.927   2.007 -0.1079 -1.0743  0.2522
  192WAT    EPW 1476   4.498   5.960   2.034  0.3684  0.1926 -0.2886
  193WAT      O 1477   5.185   7.128   1.255  0.7182  0.2296 -0.1823
  193WAT     H1 1478   5.167   7.042   1.257 -0.1614  0.3958 -0.4206
  193WAT     H2 1479   5.215   7.145   1.335 -0.3298 -0.0625  0.2994
  193WAT    EPW 1480   5.187   7.118   1.267  0.5524 -0.1929 -0.0615
  194WAT      O 1481   1.134   6.040   4.202  0.2834 -0.7071 -0.3144
  194WAT     H1 1482   1.111   6.091   4.135 -1.5932 -0.2202  0.6186
  194WAT     H2 1483   1.182   6.093   4.253 -0.0038 -0.4697 -0.2923
  194WAT    EPW 1484   1.138   6.055   4.200  0.3549  0.1639 -0.4569
  195WAT      O 1485   0.829   6.013   1.497  0.7588  0.4362 -0.0759
  195WAT     H1 1486   0.887   5.952   1.517 -0.4608  0.1356  2.9911
  195WAT     H2 1487   0.771   5.970   1.447  0.1215 -0.8910  1.7213
  195WAT    EPW 1488   0.829   5.997   1.492  0.2941 -0.6366  0.6002
  196WAT      O 1489   3.863   6.909   4.670 -0.5636  0.0271 -0.0401
  196WAT     H1 1490   3.907   6.973   4.630 -0.0516 -1.4605 -1.9846
  196WAT     H2 1491   3.801   6.888   4.613 -1.0089 -0.9254  0.7541
  196WAT    EPW 1492   3.860   6.915   4.656 -0.3530 -0.3313 -0.1370
  197WAT      O 1493   2.552   6.492   4.075  0.2116  0.1493  0.1109
  197WAT     H1 1494   2.497   6.526   4.133 -0.4544 -1.6235  0.5784
  197WAT     H2 1495   2.542   6.406   4.085  2.3575 -0.2269 -0.4924
  197WAT    EPW 1496   2.543   6.484   4.085 -0.0692 -0.7786 -0.3715
  198WAT      O 1497   6.381   1.274   2.402  0.2826  0.0177  0.4403
  198WAT     H1 1498   6.420   1.226   2.342 -0.1971 -0.1076  0.2247
  198WAT     H2 1499   6.313   1.309   2.360 -1.8344 -2.3940  1.5678
  198WAT    EPW 1500   6.376   1.272   2.387  0.2409  0.3754 -1.1785
  199WAT      O 1501   7.339   0.728   2.365 -0.2639  0.7628  0.2762
  199WAT     H1 1502   7.347   0.705   2.448  0.4709  1.7772  0.5062
  199WAT     H2 1503   7.422   0.729   2.336 -0.5820 -1.2292 -0.9686
  199WAT    EPW 1504   7.352   0.724   2.373  0.7334 -0.2059  0.1896
  200WAT      O 1505   1.865   2.836   1.770 -0.2848  0.0032 -0.0369
  200WAT     H1 1506   1.884   2.760   1.807 -1.0169  0.7584  2.0200
  200WAT     H2 1507   1.919   2.893   1.810  0.6173  0.5439 -1.8915
  200WAT    EPW 1508   1.876   2.833   1.781  0.0450  0.4529 -0.4199
  201WAT      O 1509   0.642   4.153   0.785 -0.6250 -0.3430  0.1465
  201WAT     H1 1510   0.580   4.185   0.837  0.7738  1.0977  1.0041
  201WAT     H2 1511   0.712   4.149   0.836  0.4811 -0.1272 -1.2836
  201WAT    EPW 1512   0.643   4.157   0.800  0.2087  0.2541  0.2055
  202WAT      O 1513   6.270   1.613   3.964 -0.1919 -1.0560 -0.4116
  202WAT     H1 1514   6.237   1.689   3.940 -1.4815 -1.2330  0.6990
  202WAT     H2 1515   6.353   1.632   3.983 -0.6678  0.2254  0.5198
  202WAT    EPW 1516   6.278   1.627   3.963 -0.0275  0.6101 -0.4976
  203WAT      O 1517   2.948   0.900   2.812  0.3060  0.3647  0.2064
  203WAT     H1 1518   2.867   0.931   2.812 -0.0652 -0.5324  1.4225
  203WAT     H2 1519   2.966   0.888   2.728 -0.5882  1.1537 -0.1048
  203WAT    EPW 1520   2.939   0.902   2.800 -0.0758  0.1447 -0.0249
  204WAT      O 1521   7.037   1.505   0.597  0.5716  0.0076 -0.3208
  204WAT     H1 1522   6.990   1.572   0.627  0.2060 -0.7525  0.8871
  204WAT     H2 1523   6.991   1.435   0.622  1.9602 -0.7311  0.2855
  204WAT    EPW 1524   7.023   1.504   0.605 -0.8447 -0.6432 -0.1240
  205WAT      O 1525   0.247   0.500   2.022  0.2859  0.2362  0.2683
  205WAT     H1 1526   0.169   0.485   2.059  0.5380 -1.0539  0.3114
  205WAT     H2 1527   0.229   0.501   1.936  0.3560 -0.9678  0.2319
  205WAT    EPW 1528   0.233   0.498   2.015  0.0498 -0.1282  0.6389
  206WAT      O 1529   6.521   0.417   0.181  0.0737  0.5973  0.0663
  206WAT     H1 1530   6.478   0.371   0.241 -0.3175  1.9078  0.8213
  206WAT     H2 1531   6.496   0.499   0.196  3.6795  1.6707  1.3885
  206WAT    EPW 1532   6.511   0.422   0.192 -0.2635 -0.3798  0.0229
  207WAT      O 1533   0.111   5.791   1.678 -0.1047 -0.0599 -0.3421
  207WAT     H1 1534   0.049   5.741   1.644  0.8407 -1.8084  0.3625
  207WAT     H2 1535   0.185   5.749   1.658  0.6312  0.0911  1.7773
  207WAT    EPW 1536   0.113   5.777   1.670  0.1748 -0.4723 -0.2546
  208WAT      O 1537   7.158   2.706   1.161  0.2915  0.2897 -0.4920
  208WAT     H1 1538   7.173   2.697   1.246  1.6028 -0.2121 -0.7466
  208WAT     H2 1539   7.128   2.627   1.137  4.4135 -1.3229 -1.2859
  208WAT    EPW 1540   7.156   2.693   1.170  0.0246  0.3673 -0.3010
  209WAT      O 1541   2.134   1.658   4.467  0.2017  0.1195  0.2641
  209WAT     H1 1542   2.129   1.576   4.495  0.5895  0.5576  1.7258
  209WAT     H2 1543   2.054   1.690   4.482  0.1294  0.0835 -0.0469
  209WAT    EPW 1544   2.122   1.651   4.473 -0.2749  0.3018 -0.1360
  210WAT      O 1545   7.325   0.697   3.796  0.4542 -0.0482 -0.2158
  210WAT     H1 1546   7.326   0.665   3.877  3.4928  0.6348  0.1143
  210WAT     H2 1547   7.342   0.629   3.746 -0.7455 -0.3352 -0.2706
  210WAT    EPW 1548   7.327   0.682   3.801 -0.2538  0.3610 -0.2704
  211WAT      O 1549   1.412   5.405   3.589 -0.2155  0.0559 -0.2259
  211WAT     H1 1550   1.344   5.370   3.547  0.1915 -0.7071 -0.2722
  211WAT     H2 1551   1.383   5.483   3.615 -1.4871 -0.7095  0.7523
  211WAT    EPW 1552   1.398   5.411   3.586  0.2503 -0.0590  0.3824
  212WAT      O 1553   7.597   0.417   3.010 -0.9024 -0.4801 -0.2658
  212WAT     H1 1554   7.682   0.416   2.991 -1.0540 -0.9015 -1.0033
  212WAT     H2 1555   7.594   0.447   3.091  0.0088 -1.1260  0.0283
  212WAT    EPW 1556   7.609   0.421   3.019 -0.4247  0.1636  0.1186
  213WAT      O 1557   1.664   1.593   4.163 -0.4070  0.7020 -0.4093
  213WAT     H1 1558   1.599   1.540   4.139 -0.2027  0.7220 -1.0180
  213WAT     H2 1559   1.735   1.544   4.151 -0.2854  0.7807 -0.0209
  213WAT    EPW 1560   1.665   1.578   4.158  0.0558  0.4779  0.0907
  214WAT      O 1561   5.948   5.382   0.693 -0.5677 -0.0814 -0.1632
  214WAT     H1 1562   5.976   5.463   0.677 -1.4335  0.1273 -0.6343
  214WAT     H2 1563   5.947   5.344   0.614 -0.7126 -0.3847 -0.0186
  214WAT    EPW 1564   5.952   5.388   0.679  0.0699 -0.0950  0.2819
  215WAT      O 1565   2.334   6.666   4.128 -0.0684 -0.2763 -0.6561
  215WAT     H1 1566   2.315   6.648   4.044 -0.1592 -1.2280 -0.4391
  215WAT     H2 1567   2.284   6.611   4.173 -2.5566  2.4354  0.1682
  215WAT    EPW 1568   2.324   6.655   4.122  0.0275 -0.6521 -0.6451
  216WAT      O 1569   6.583   2.989   7.759 -0.1684  0.7969  0.7456
  216WAT     H1 1570   6.516   3.033   7.724 -0.5620  0.3195  0.8904
  216WAT     H2 1571   6.548   2.949   7.828  0.8479  2.6512  2.4573
  216WAT    EPW 1572   6.568   2.990   7.764  0.1787  0.0919  0.4899
  217WAT      O 1573   5.355   1.064   1.380  0.2260 -0.4397 -0.0978
  217WAT     H1 1574   5.331   1.147   1.367 -0.9600 -0.5936  0.8497
  217WAT     H2 1575   5.359   1.031   1.299 -0.6534  0.1945 -0.4182
  217WAT    EPW 1576   5.352   1.071   1.366 -0.1158 -0.8333 -0.0643
  218WAT      O 1577   0.990   7.230   2.963 -0.2948  0.6712 -0.1736
  218WAT     H1 1578   1.056   7.265   3.006 -0.2683 -0.9583  1.2541
  218WAT     H2 1579   1.026   7.161   2.922 -1.1034 -0.5112  0.9941
  218WAT    EPW 1580   1.005   7.225   2.963  0.4805  0.3105  0.0692
  219WAT      O 1581   0.469   2.273   0.147  0.7422  0.4735 -0.3014
  219WAT     H1 1582   0.408   2.211   0.139  2.2313 -1.3949  1.4244
  219WAT     H2 1583   0.425   2.340   0.181 -0.4978 -0.5655  0.2750
  219WAT    EPW 1584   0.453   2.274   0.151 -0.0605 -0.0092 -0.1183
  220WAT      O 1585   6.782   5.011   2.281 -0.1484 -0.0302 -0.1066
  220WAT     H1 1586   6.730   5.014   2.351 -0.2209  0.5506 -0.1782
  220WAT     H2 1587   6.855   5.050   2.308 -0.7606  1.7048 -0.8136
  220WAT    EPW 1588   6.785   5.018   2.295  0.6365 -0.2598 -0.3939
  221WAT      O 1589   7.802   7.907   3.976 -0.2951  0.0937  0.0370
  221WAT     H1 1590   7.829   7.902   4.059 -0.5900  0.4954  0.1587
  221WAT     H2 1591   7.848   7.844   3.936  0.5596  0.5199  0.3151
  221WAT    EPW 1592   7.813   7.897   3.983 -0.1573  0.2247 -0.2191
  222WAT      O 1593   6.997   5.653   1.198 -0.2603  0.1196  0.1721
  222WAT     H1 1594   6.958   5.632   1.123  2.8558  0.1305 -1.6213
  222WAT     H2 1595   6.956   5.604   1.257 -1.6952 -1.1916 -1.8018
  222WAT    EPW 1596   6.985   5.643   1.196 -0.1809 -0.3676 -0.1773
  223WAT      O 1597   5.076   2.994   6.897  0.0950  0.2548  0.1946
  223WAT     H1 1598   5.032   3.064   6.869 -0.4016 -1.0567 -2.7181
  223WAT     H2 1599   5.136   2.981   6.835  1.1399 -1.0428  1.4078
  223WAT    EPW 1600   5.078   3.002   6.883  0.0633 -0.3287  0.3122
  224WAT      O 1601   6.629   0.144   0.517 -0.0736  0.3673  0.2190
  224WAT     H1 1602   6.617   0.068   0.476  0.2926 -0.1644  1.0649
  224WAT     H2 1603   6.677   0.123   0.586 -0.3265  1.3078  0.7063
  224WAT    EPW 1604   6.635   0.130   0.521 -0.1100  0.2248  0.2752
  225WAT      O 1605   2.902   7.276   4.856 -0.3734 -0.1814  0.3848
  225WAT     H1 1606   2.817   7.269   4.876 -0.2436 -0.5991  0.8065
  225WAT     H2 1607   2.909   7.358   4.826 -0.7395  0.2017  1.2914
  225WAT    EPW 1608   2.890   7.287   4.855 -0.5093  0.3166  0.7207
  226WAT      O 1609   4.610   5.281   0.720  0.1664 -0.0743 -0.2407
  226WAT     H1 1610   4.645   5.208   0.687 -2.1237 -1.7113  0.6932
  226WAT     H2 1611   4.541   5.295   0.668 -2.2488 -1.4834  2.3308
  226WAT    EPW 1612   4.605   5.272   0.707 -0.4654 -0.2532  0.4306
  227WAT      O 1613   7.561   3.330   3.858 -0.1203  0.1525 -0.0862
  227WAT     H1 1614   7.587   3.413   3.861 -0.2163  0.2174 -0.8710
  227WAT     H2 1615   7.507   3.323   3.927  0.4279  0.5398  0.3975
  227WAT    EPW 1616   7.557   3.341   3.869 -0.4080  0.1444  0.3372
  228WAT      O 1617   6.586   2.417   1.546 -0.2312  0.4549  0.0041
  228WAT     H1 1618   6.623   2.454   1.477 -2.2078 -0.2131 -1.5022
  228WAT     H2 1619   6.501   2.415   1.526 -0.8731  0.1135  2.4088
  228WAT    EPW 1620   6.579   2.422   1.533 -0.6440  0.4073  0.6357
  229WAT      O 1621   5.596   6.423   4.318 -0.1078  0.1255  0.1764
  229WAT     H1 1622   5.551   6.490   4.349  0.4870  0.3677  0.5316
  229WAT     H2 1623   5.587   6.430   4.232  0.4987  1.0550  0.1737
  229WAT    EPW 1624   5.588   6.434   4.310  0.0951 -0.3049  0.8557
  230WAT      O 1625   6.364   5.805   5.222  0.0081 -0.1239  0.0656
  230WAT     H1 1626   6.451   5.801   5.223  0.0301  0.2606  1.3068
  230WAT     H2 1627   6.347   5.859   5.155  0.8572  1.7846  1.2796
  230WAT    EPW 1628   6.374   5.813   5.213 -0.6011  0.8385  0.5310
  231WAT      O 1629   6.839   5.763   1.885  0.1729 -0.5484  0.1523
  231WAT     H1 1630   6.899   5.803   1.835 -0.3132  1.7567  1.3043
  231WAT     H2 1631   6.778   5.740   1.828  0.1153  1.0957 -0.5090
  231WAT    EPW 1632   6.839   5.766   1.869  0.4653  0.5798 -0.5011
  232WAT      O 1633   6.366   6.535   0.668 -0.1627  0.3679  0.2345
  232WAT     H1 1634   6.427   6.594   0.649 -1.6411  1.1616 -2.5760
  232WAT     H2 1635   6.407   6.459   0.651  0.3823  0.8210 -0.5686
  232WAT    EPW 1636   6.381   6.532   0.663 -0.0028 -0.0967  0.8222
  233WAT      O 1637   0.573   2.506   4.803  0.0811 -0.0757 -0.5320
  233WAT     H1 1638   0.629   2.521   4.868 -0.0106  1.1584 -0.7296
  233WAT     H2 1639   0.622   2.467   4.742  0.1021 -1.5178  0.3627
  233WAT    EPW 1640   0.588   2.502   4.804  0.5698 -0.1215 -0.1896
  234WAT      O 1641   1.406   0.363   2.234 -0.5511 -0.2304 -0.5856
  234WAT     H1 1642   1.374   0.413   2.298  0.5689 -0.3647  0.1199
  234WAT     H2 1643   1.345   0.366   2.173 -0.6048  1.9215 -0.5118
  234WAT    EPW 1644   1.392   0.371   2.235 -0.2787  0.2858 -0.1715
  235WAT      O 1645   8.055   2.121   0.170 -0.3820  0.9836  0.2993
  235WAT     H1 1646   7.987   2.132   0.225 -0.3128 -0.4590  0.7308
  235WAT     H2 1647   8.025   2.063   0.112  0.6595 -0.1588  0.8628
  235WAT    EPW 1648   8.040   2.114   0.170 -0.4788 -0.6154 -0.2135
  236WAT      O 1649   1.435   1.994   4.605 -0.3301 -0.1780 -0.1776
  236WAT     H1 1650   1.474   2.026   4.676  1.0266  0.1029 -1.0218
  236WAT     H2 1651   1.439   1.908   4.616 -0.1349 -0.1347  0.0907
  236WAT    EPW 1652   1.441   1.986   4.617 -0.4622  0.3110  0.4666
  237WAT      O 1653   3.497   5.299   1.062 -0.0610 -0.3888 -0.0990
  237WAT     H1 1654   3.517   5.360   1.122 -1.9888 -0.8857  1.1389
  237WAT     H2 1655   3.563   5.242   1.069 -0.2037 -0.4009  1.5561
  237WAT    EPW 1656   3.510   5.300   1.072  0.6379  0.1257  0.4389
  238WAT      O 1657   5.035   0.157   2.847 -0.4456 -0.2305 -0.2186
  238WAT     H1 1658   5.055   0.074   2.826 -0.6640  0.1627 -2.0932
  238WAT     H2 1659   5.003   0.149   2.928  0.5760 -1.8228  0.0814
  238WAT    EPW 1660   5.033   0.143   2.856 -0.1315  0.4415 -0.1426
  239WAT      O 1661   2.036   6.964   2.731  0.3284 -0.3245 -0.3186
  239WAT     H1 1662   1.991   7.000   2.797  1.1175 -2.1197  1.2587
  239WAT     H2 1663   2.094   7.026   2.711 -1.1769  1.0480 -0.7500
  239WAT    EPW 1664   2.038   6.979   2.738  0.3973 -0.0631  0.2442
  240WAT      O 1665   7.738   5.018   1.831 -0.5449  0.0291 -0.1937
  240WAT     H1 1666   7.819   4.987   1.843 -0.3929 -0.2577 -1.6807
  240WAT     H2 1667   7.687   4.962   1.874 -0.0023 -0.1994  0.1589
  240WAT    EPW 1668   7.743   5.005   1.839  0.1466 -0.5111 -0.7239
  241WAT      O 1669   3.838   0.880   7.527  0.4220 -0.2161  0.1054
  241WAT     H1 1670   3.773   0.846   7.573  0.5328  0.9058  1.1570
  241WAT     H2 1671   3.799   0.906   7.453 -0.3140  0.3393  0.6731
  241WAT    EPW 1672   3.823   0.879   7.523  0.7355 -0.2465  0.5867
  242WAT      O 1673   4.678   5.164   4.207 -1.0641  0.1868 -0.3199
  242WAT     H1 1674   4.608   5.200   4.245  0.8288  1.1003  2.5543
  242WAT     H2 1675   4.686   5.087   4.246  0.4462  0.7968  0.6649
  242WAT    EPW 1676   4.669   5.158   4.218 -0.0602  0.0203  0.4852
  243WAT      O 1677   0.396   4.327   2.991 -0.0711 -0.0566 -0.1833
  243WAT     H1 1678   0.471   4.289   3.015  0.5455  0.8346 -0.6693
  243WAT     H2 1679   0.336   4.284   3.038  1.0663  1.6363  3.0805
  243WAT    EPW 1680   0.398   4.315   3.001 -0.0932  0.0825 -0.6365
  244WAT      O 1681   7.676   5.905   2.214 -0.3306  0.0067 -0.2437
  244WAT     H1 1682   7.730   5.847   2.251 -0.1554  0.5217  0.3129
  244WAT     H2 1683   7.660   5.870   2.135 -1.4894 -1.6141  0.6471
  244WAT    EPW 1684   7.682   5.891   2.207  0.1430  0.1516  0.3777
  245WAT      O 1685   4.721   2.015   7.899 -0.2829  0.1715 -0.1601
  245WAT     H1 1686   4.722   1.953   7.838 -0.6178  0.8514 -0.8797
  245WAT     H2 1687   4.667   2.075   7.866 -1.1735  0.1619  1.2100
  245WAT    EPW 1688   4.713   2.015   7.885 -0.3859 -0.1949 -0.5028
  246WAT      O 1689   2.163   5.203   5.893 -0.0142 -0.6118  0.3456
  246WAT     H1 1690   2.085   5.183   5.926  0.0818 -0.8091  0.4583
  246WAT     H2 1691   2.186   5.275   5.937 -1.0456  0.7007 -1.1544
  246WAT    EPW 1692   2.155   5.210   5.904  0.8689  0.4621 -0.6803
  247WAT      O 1693   6.422   4.547   2.119 -0.5437 -0.0628  0.0753
  247WAT     H1 1694   6.375   4.610   2.158 -0.8650  0.1195 -0.5937
  247WAT     H2 1695   6.363   4.486   2.100 -0.3932 -0.1431 -0.1371
  247WAT    EPW 1696   6.406   4.548   2.122  0.5115 -0.0638 -0.5217
  248WAT      O 1697   5.654   4.224   2.960  0.6213  0.4670  0.0442
  248WAT     H1 1698   5.708   4.288   2.936  0.8353  0.8430  1.4386
  248WAT     H2 1699   5.587   4.232   2.905  0.9336  1.4907 -0.2006
  248WAT    EPW 1700   5.652   4.235   2.948 -0.6262 -0.1570  0.0564
  249WAT      O 1701   6.570   2.828   4.582  0.2273  0.2722 -0.1641
  249WAT     H1 1702   6.642   2.809   4.535  1.0046 -1.5121  1.6196
  249WAT     H2 1703   6.505   2.795   4.533  1.0079 -1.5097 -0.0966
  249WAT    EPW 1704   6.571   2.820   4.568  0.4127 -0.0753  0.1682
  250WAT      O 1705   1.562   4.371   4.096 -0.1118 -0.2748  0.1759
  250WAT     H1 1706   1.622   4.406   4.149 -1.7768  2.2874  0.5455
  250WAT     H2 1707   1.490   4.370   4.144 -1.5385  1.5910 -1.7528
  250WAT    EPW 1708   1.560   4.376   4.111  0.0353 -0.3015  0.0826
  251WAT      O 1709   5.511   4.167   6.967 -0.4176  0.2327  0.0973
  251WAT     H1 1710   5.588   4.166   6.927  0.8503  0.7267  2.3836
  251WAT     H2 1711   5.509   4.090   7.009 -1.0400  0.3386  0.2705
  251WAT    EPW 1712   5.522   4.155   6.968  0.1814 -0.4703  0.1589
  252WAT      O 1713   5.323   6.217   7.368  0.1862 -0.4745  0.6863
  252WAT     H1 1714   5.324   6.194   7.283 -0.0785 -0.5662  0.7057
  252WAT     H2 1715   5.367   6.153   7.407  2.0187  0.5460  0.3956
  252WAT    EPW 1716   5.330   6.204   7.361 -0.0200 -0.3643 -0.4549
  253WAT      O 1717   1.145   5.656   8.007 -0.4472 -0.5674 -0.5075
  253WAT     H1 1718   1.220   5.699   7.999 -0.5082 -0.2296  0.6001
  253WAT     H2 1719   1.130   5.655   8.093 -0.6225 -2.4977 -0.5104
  253WAT    EPW 1720   1.154   5.662   8.018 -0.7411 -0.5300 -0.2164
  254WAT      O 1721   4.432   7.269   1.528 -0.5326  0.4521  0.1597
  254WAT     H1 1722   4.480   7.220   1.474 -0.8598  1.9723 -1.6251
  254WAT     H2 1723   4.490   7.324   1.562 -0.3601 -0.3851  1.3010
  254WAT    EPW 1724   4.448   7.270   1.525  0.0770 -0.0473 -0.6199
  255WAT      O 1725   4.259   7.220   3.250 -0.7541 -0.1086 -0.5918
  255WAT     H1 1726   4.185   7.182   3.223  0.0224 -0.6802 -2.0675
  255WAT     H2 1727   4.280   7.176   3.322 -1.8042  0.0279 -0.1875
  255WAT    EPW 1728   4.251   7.208   3.256  0.0796 -0.3836 -0.1192
  256WAT      O 1729   2.718   5.899   5.811  0.1145  0.0360  0.9633
  256WAT     H1 1730   2.650   5.859   5.772 -0.8042  2.4212 -0.0310
  256WAT     H2 1731   2.786   5.847   5.791 -1.1910 -1.7897  0.9848
  256WAT    EPW 1732   2.718   5.885   5.802  0.0779  0.0022 -0.2031
  257WAT      O 1733   5.694   2.922   7.166 -0.0995  0.6536  0.4686
  257WAT     H1 1734   5.610   2.905   7.181 -0.1980  0.6507 -0.0693
  257WAT     H2 1735   5.736   2.871   7.223 -0.4184 -0.5603 -0.3570
  257WAT    EPW 1736   5.687   2.912   7.177 -0.0164 -0.4950  0.2381
  258WAT      O 1737   5.796   5.900   0.622 -0.2480 -0.1541  0.2114
  258WAT     H1 1738   5.710   5.887   0.627 -0.0591 -1.3235  0.5105
  258WAT     H2 1739   5.831   5.822   0.638  0.8738  0.2476 -0.1328
  258WAT    EPW 1740   5.789   5.887   0.625  0.4817 -0.8661 -0.3212
  259WAT      O 1741   7.849   6.126   4.028 -0.5651 -0.2804 -0.3568
  259WAT     H1 1742   7.815   6.055   3.991  1.0247 -0.4008 -1.7119
  259WAT     H2 1743   7.841   6.111   4.114 -1.2164 -1.5840 -0.6265
  259WAT    EPW 1744   7.843   6.114   4.035 -0.4032  0.0882  0.1223
  260WAT      O 1745   1.617   3.148   2.249 -0.2360 -0.4567  0.1028
  260WAT     H1 1746   1.614   3.165   2.164  0.9842 -2.7157 -0.4564
  260WAT     H2 1747   1.663   3.215   2.282  2.7868 -1.4719 -1.6775
  260WAT    EPW 1748   1.623   3.161   2.241  0.5335  0.7253  0.5580
  261WAT      O 1749   6.661   3.675   2.388 -0.3698  0.0055 -0.0087
  261WAT     H1 1750   6.646   3.654   2.305 -2.1417 -1.3718  0.5854
  261WAT     H2 1751   6.581   3.687   2.420  0.3343  2.1696  1.1350
  261WAT    EPW 1752   6.647   3.674   2.380 -0.3336 -0.6799 -0.2959
  262WAT      O 1753   3.183   7.838   7.755  0.2758 -0.0073  0.0725
  262WAT     H1 1754   3.169   7.754   7.735  0.1734 -0.0662  0.3812
  262WAT     H2 1755   3.178   7.839   7.842  2.5449 -0.1081  0.2723
  262WAT    EPW 1756   3.180   7.826   7.765  0.0661 -0.3978 -0.0345
  263WAT      O 1757   6.725   5.665   3.219 -0.2762  0.0167 -0.3934
  263WAT     H1 1758   6.686   5.590   3.241  0.6446 -0.0422  1.2171
  263WAT     H2 1759   6.663   5.725   3.231 -0.2143 -0.1822  1.1813
  263WAT    EPW 1760   6.710   5.663   3.224  0.0149  0.5401 -0.4286
  264WAT      O 1761   6.207   1.265   1.531  0.5628  0.0857 -0.4829
  264WAT     H1 1762   6.144   1.226   1.485 -1.4843  1.4660  0.9864
  264WAT     H2 1763   6.218   1.212   1.600 -2.3206  1.8823  1.5898
  264WAT    EPW 1764   6.199   1.251   1.534  0.1313  0.0371 -0.4352
  265WAT      O 1765   3.938   8.039   6.742  0.0580 -0.3888 -0.0279
  265WAT     H1 1766   3.961   7.962   6.710 -0.8920 -0.5769 -0.2926
  265WAT     H2 1767   3.961   8.035   6.826 -0.0169 -0.9690 -0.0342
  265WAT    EPW 1768   3.945   8.027   6.750 -0.4258  0.2533  0.5124
  266WAT      O 1769   1.728   6.961   3.384 -0.5152  0.3064  0.2015
  266WAT     H1 1770   1.746   6.885   3.424  0.5089  0.4658  0.0758
  266WAT     H2 1771   1.645   6.952   3.360 -0.5624 -0.5712  0.6432
  266WAT    EPW 1772   1.718   6.948   3.386 -0.4445  0.2320 -0.2769
  267WAT      O 1773   0.522   5.082   4.407 -0.6420  0.4103 -0.2046
  267WAT     H1 1774   0.513   5.083   4.494 -2.5264  0.9442 -0.3575
  267WAT     H2 1775   0.517   4.997   4.387  0.3202  0.2384  0.2321
  267WAT    EPW 1776   0.519   5.070   4.417  0.1088 -0.3758  0.0123
  268WAT      O 1777   5.196   7.386   4.457 -0.4377 -0.0879  0.1270
  268WAT     H1 1778   5.121   7.355   4.425  1.0511 -2.3228 -1.5923
  268WAT     H2 1779   5.212   7.335   4.526 -0.3575  0.1703  0.3014
  268WAT    EPW 1780   5.187   7.374   4.462  0.0493  0.5140 -0.2096
  269WAT      O 1781   1.889   6.231   3.948  0.2801  0.1142  0.1157
  269WAT     H1 1782   1.807   6.204   3.930  0.7375 -0.6463 -0.9649
  269WAT     H2 1783   1.881   6.318   3.953 -0.7499 -0.0032  0.9420
  269WAT    EPW 1784   1.875   6.240   3.946 -0.0696 -0.2450  0.0079
  270WAT      O 1785   8.041   0.950   1.653  0.6107 -0.2877  0.0175
  270WAT     H1 1786   8.088   0.897   1.704  0.5404 -1.6381 -1.2690
  270WAT     H2 1787   8.063   1.030   1.682  3.1301 -0.8702 -0.0177
  270WAT    EPW 1788   8.051   0.954   1.665  0.1766  0.2402  0.5818
  271WAT      O 1789   4.957   6.029   2.007  0.2864 -0.1043  0.5122
  271WAT     H1 1790   4.877   6.000   1.988 -0.1304  1.4113 -0.2376
  271WAT     H2 1791   4.982   5.979   2.074 -0.6006 -1.7173 -0.2986
  271WAT    EPW 1792   4.949   6.018   2.014 -0.0123  0.3180 -0.1512
  272WAT      O 1793   1.353   6.525   2.303 -0.2862  0.0133 -0.9158
  272WAT     H1 1794   1.361   6.611   2.295  0.1542 -0.0218 -0.8848
  272WAT     H2 1795   1.408   6.504   2.367  0.8640 -0.4832 -2.0040
  272WAT    EPW 1796   1.362   6.534   2.311  0.3330 -0.0277  0.1624
  273WAT      O 1797   4.423   6.097   3.695  0.5024  0.0315  0.5389
  273WAT     H1 1798   4.399   6.113   3.612  1.6009 -2.2090 -0.2697
  273WAT     H2 1799   4.347   6.098   3.738  0.0303  2.6079 -0.1682
  273WAT    EPW 1800   4.408   6.100   3.689  0.1507  0.1135  0.0761
  274WAT      O 1801   7.784   0.542   1.379 -0.0824  0.1562 -0.7466
  274WAT     H1 1802   7.802   0.545   1.464  0.1665 -1.0904 -0.7413
  274WAT     H2 1803   7.736   0.470   1.370 -0.7819  0.6997 -1.5548
  274WAT    EPW 1804   7.780   0.532   1.390  0.0998  0.5142 -0.9698
  275WAT      O 1805   0.312   7.360   1.144 -0.2327  0.1329 -0.1900
  275WAT     H1 1806   0.281   7.420   1.199  0.6060  1.6724 -1.2940
  275WAT     H2 1807   0.258   7.365   1.076  1.5439  1.9312 -1.5934
  275WAT    EPW 1808   0.300   7.370   1.142 -0.3332 -0.4685 -0.4372
  276WAT      O 1809   0.244   6.435   4.167  0.2796  0.1706  0.0153
  276WAT     H1 1810   0.254   6.518   4.140  0.1896  0.0149 -0.5037
  276WAT     H2 1811   0.175   6.439   4.221 -2.3793 -0.2192 -3.0904
  276WAT    EPW 1812   0.235   6.448   4.171  0.1887  0.0737  0.1940
  277WAT      O 1813   1.600   4.095   4.137  0.1279 -0.8380 -0.8012
  277WAT     H1 1814   1.560   4.046   4.078 -1.2650 -0.1838 -0.4319
  277WAT     H2 1815   1.634   4.160   4.089 -0.4548 -0.6510 -0.9729
  277WAT    EPW 1816   1.599   4.098   4.121 -0.4521  0.6384  0.0662
  278WAT      O 1817   7.298   3.119   3.400 -0.2183 -0.0348  0.1385
  278WAT     H1 1818   7.372   3.081   3.376  0.5676  2.1738 -1.3033
  278WAT     H2 1819   7.320   3.164   3.472 -0.4451 -0.2428  0.3380
  278WAT    EPW 1820   7.312   3.120   3.407 -0.0637 -0.0505  0.3967
  279WAT      O 1821   1.582   7.418   2.969  0.2038 -0.2754  0.1108
  279WAT     H1 1822   1.573   7.332   2.978  0.8840 -0.2552  1.1094
  279WAT     H2 1823   1.501   7.446   2.952  0.0901 -1.1782 -0.9070
  279WAT    EPW 1824   1.569   7.409   2.967  0.5795  0.2333  0.5795
  280WAT      O 1825   4.339   7.028   6.419 -0.0237  0.2092  0.6035
  280WAT     H1 1826   4.309   7.083   6.358  0.4795  0.6723  0.7747
  280WAT     H2 1827   4.342   7.077   6.491  1.4754  0.2670  0.5145
  280WAT    EPW 1828   4.335   7.043   6.421  0.1451 -0.0158  0.1192
  281WAT      O 1829   2.598   0.582   4.600  0.4516 -0.1020 -0.1392
  281WAT     H1 1830   2.520   0.610   4.573 -0.1390  1.1650  2.5863
  281WAT     H2 1831   2.633   0.547   4.528 -2.7431 -1.0639 -1.3984
  281WAT    EPW 1832   2.592   0.581   4.585 -0.0245  0.1108  0.0079
  282WAT      O 1833   4.167   7.099   6.971  0.0360  0.3165 -0.3097
  282WAT     H1 1834   4.209   7.037   7.016 -1.9377 -0.7591  0.1952
  282WAT     H2 1835   4.176   7.170   7.021  1.1228  0.0825 -0.1614
  282WAT    EPW 1836   4.174   7.101   6.985  0.0795  0.4965 -0.0276
  283WAT      O 1837   0.131   5.603   4.283  0.2229  0.2692  0.6472
  283WAT     H1 1838   0.083   5.592   4.355  1.4579 -0.0566  1.4355
  283WAT     H2 1839   0.082   5.656   4.234 -1.1546 -0.4282  1.2180
  283WAT    EPW 1840   0.116   5.609   4.287  0.0128  0.3797 -0.1937
  284WAT      O 1841   4.001   7.152   3.248  0.4587  0.0627  0.9823
  284WAT     H1 1842   3.979   7.161   3.332  1.2297  0.7048  1.1210
  284WAT     H2 1843   4.001   7.065   3.236  1.1182 -0.0753  1.8627
  284WAT    EPW 1844   3.998   7.140   3.259  0.0694  0.0574  0.1863
  285WAT      O 1845   7.848   3.484   0.249  0.0801 -0.1163  0.0028
  285WAT     H1 1846   7.883   3.527   0.317 -1.7133  1.8418 -0.2073
  285WAT     H2 1847   7.909   3.426   0.228  1.0179 -0.3200  2.8289
  285WAT    EPW 1848   7.862   3.482   0.256 -0.1897 -0.0483  0.3165
  286WAT      O 1849   1.586   0.581   3.689  0.0413 -0.6851 -0.0182
  286WAT     H1 1850   1.575   0.617   3.610  0.1675 -0.4600  0.0650
  286WAT     H2 1851   1.508   0.591   3.727 -0.5298 -2.3040 -0.7153
  286WAT    EPW 1852   1.573   0.588   3.683  0.8102  0.1659 -0.4165
  287WAT      O 1853   5.897   6.541   7.879  0.0717 -0.4267  0.1213
  287WAT     H1 1854   5.984   6.539   7.876  0.0965  0.2161  0.2981
  287WAT     H2 1855   5.874   6.563   7.797  0.1220  0.4478  0.3315
  287WAT    EPW 1856   5.906   6.544   7.866 -0.4573  0.2125  0.1684
  288WAT      O 1857   6.357   4.833   2.278  0.0681  0.0035  0.3440
  288WAT     H1 1858   6.323   4.903   2.318 -1.5694  0.2116 -1.2984
  288WAT     H2 1859   6.288   4.783   2.262  0.8338 -0.6390 -1.0945
  288WAT    EPW 1860   6.342   4.836   2.282 -0.1168  0.1280  0.6380
  289WAT      O 1861   0.281   0.836   4.275 -0.3618 -0.1225  0.0686
  289WAT     H1 1862   0.257   0.889   4.210  1.4821  0.1950 -0.4204
  289WAT     H2 1863   0.343   0.881   4.317 -0.2580 -1.0428  0.9535
  289WAT    EPW 1864   0.287   0.851   4.271 -0.3420 -0.1685 -0.3992
  290WAT      O 1865   5.165   5.388   0.423  0.1947 -0.1718 -0.1917
  290WAT     H1 1866   5.222   5.420   0.481 -0.3539  0.8894 -0.2109
  290WAT     H2 1867   5.087   5.408   0.458 -0.1504  0.1437 -1.1009
  290WAT    EPW 1868   5.162   5.396   0.437 -0.2088  0.7549  0.4583
  291WAT      O 1869   8.050   2.361   0.034  0.5750  0.0517 -0.5156
  291WAT     H1 1870   8.096   2.368  -0.040  1.1663 -0.4627 -0.2131
  291WAT     H2 1871   8.071   2.281   0.064  0.5521  0.3496  0.3398
  291WAT    EPW 1872   8.060   2.350   0.028 -0.2586 -0.1731 -0.4892
  292WAT      O 1873   7.947   6.832   3.051  0.7059  0.7030 -0.1512
  292WAT     H1 1874   7.938   6.854   2.967  0.3227  0.5690 -0.1454
  292WAT     H2 1875   7.941   6.908   3.093 -2.1479  0.5027  0.0004
  292WAT    EPW 1876   7.945   6.846   3.045  0.1101  1.2254  0.1248
  293WAT      O 1877   6.240   7.671   2.851  0.2137  0.0986  0.4080
  293WAT     H1 1878   6.280   7.603   2.815 -0.2420 -0.7550  1.4476
  293WAT     H2 1879   6.243   7.733   2.789  1.5906 -0.5044 -0.1548
  293WAT    EPW 1880   6.246   7.670   2.837 -0.3414  0.3853  0.1757
  294WAT      O 1881   1.694   6.652   5.187 -0.5707 -0.1753  0.3532
  294WAT     H1 1882   1.731   6.642   5.109  0.2820  4.1607 -0.0624
  294WAT     H2 1883   1.745   6.605   5.240 -0.3791 -2.1330 -1.4486
  294WAT    EPW 1884   1.707   6.643   5.183 -0.1241  0.0805 -0.3885
  295WAT      O 1885   2.624   5.810   5.091 -0.4537  0.2169  0.3969
  295WAT     H1 1886   2.544   5.781   5.071 -0.2363 -0.3307  0.2880
  295WAT     H2 1887   2.674   5.738   5.086  0.6705  1.0372 -2.7315
  295WAT    EPW 1888   2.620   5.795   5.088 -0.6220  0.0830 -0.0561
  296WAT      O 1889   5.387   5.434   7.537 -0.0699  0.6655 -0.4993
  296WAT     H1 1890   5.354   5.480   7.604  1.6014  2.7048 -0.9869
  296WAT     H2 1891   5.469   5.418   7.562  0.3349  0.7683 -1.7238
  296WAT    EPW 1892   5.394   5.439   7.551 -0.1262  0.1470 -0.0963
  297WAT      O 1893   8.027   7.124   3.516  0.2823 -0.0204 -0.1333
  297WAT     H1 1894   7.984   7.165   3.579 -0.6353  0.4011 -0.9952
  297WAT     H2 1895   7.984   7.048   3.507  0.3410 -0.0336 -0.3177
  297WAT    EPW 1896   8.014   7.118   3.524 -0.0918  0.0485  0.2914
  298WAT      O 1897   7.688   1.564   0.456  0.0355 -0.0042  0.6509
  298WAT     H1 1898   7.766   1.603   0.451 -1.2064  2.5598 -1.7811
  298WAT     H2 1899   7.667   1.550   0.372 -2.6679  0.6854  1.1230
  298WAT    EPW 1900   7.696   1.568   0.443 -0.0241 -0.1332  0.4313
  299WAT      O 1901   6.113   3.131   4.123 -0.2377 -0.1050  0.3485
  299WAT     H1 1902   6.134   3.215   4.111  0.2046  0.0791  2.0623
  299WAT     H2 1903   6.027   3.129   4.107 -1.0378  1.4938  3.5868
  299WAT    EPW 1904   6.103   3.143   4.119  0.1085 -0.1607 -0.2612
  300WAT      O 1905   1.743   1.138   1.111 -0.0990 -0.2258 -0.2425
  300WAT     H1 1906   1.704   1.117   1.036  0.2424 -0.4575 -0.3561
  300WAT     H2 1907   1.677   1.136   1.169 -0.3582 -0.0723 -0.5256
  300WAT    EPW 1908   1.727   1.134   1.109 -0.0191  0.6532 -1.0900
  301WAT      O 1909   4.390   1.382   6.279 -0.3560 -0.3946 -0.0211
  301WAT     H1 1910   4.445   1.328   6.319 -0.8187 -1.2724 -0.5325
  301WAT     H2 1911   4.324   1.391   6.336  0.9451  1.8911  1.2626
  301WAT    EPW 1912   4.388   1.375   6.293 -0.1040 -0.0379  0.4797
  302WAT      O 1913   1.354   0.036   0.681 -0.3595  0.3817 -0.3820
  302WAT     H1 1914   1.328  -0.030   0.631 -0.0951  0.6815 -0.9285
  302WAT     H2 1915   1.317   0.019   0.758 -2.3874  0.8931 -1.1515
  302WAT    EPW 1916   1.344   0.024   0.685 -0.0943  0.0296  0.2410
  303WAT      O 1917   7.198   1.530   4.785  0.3447 -0.6984  0.5975
  303WAT     H1 1918   7.284   1.520   4.790  0.2252 -1.4231  1.2372
  303WAT     H2 1919   7.184   1.603   4.831  0.6194 -0.5485  0.4474
  303WAT    EPW 1920   7.209   1.540   4.792  0.0386 -0.1667 -0.6369
  304WAT      O 1921   6.263   1.695   2.615 -0.3703  0.2246  0.3774
  304WAT     H1 1922   6.307   1.689   2.541  0.1431  2.4732  0.4148
  304WAT     H2 1923   6.316   1.741   2.667 -0.7315 -1.2364  2.1464
  304WAT    EPW 1924   6.277   1.701   2.612  0.0756  0.4256  0.5905
  305WAT      O 1925   0.620   6.652   0.544  0.1835 -0.5980 -0.2501
  305WAT     H1 1926   0.575   6.615   0.610  0.3055 -1.5491 -0.6926
  305WAT     H2 1927   0.559   6.664   0.482  0.4071 -1.2812 -0.6036
  305WAT    EPW 1928   0.604   6.648   0.545 -0.0558 -0.0334  0.0026
  306WAT      O 1929   7.492   0.479   4.095 -0.4694 -0.2704 -0.0557
  306WAT     H1 1930   7.541   0.431   4.041  0.3509 -0.6016  0.9524
  306WAT     H2 1931   7.536   0.554   4.102 -1.1948  0.2293 -0.7831
  306WAT    EPW 1932   7.506   0.483   4.088  0.4709 -0.4106 -0.5743
  307WAT      O 1933   0.263   0.635   3.843  0.0881 -0.2715 -0.6751
  307WAT     H1 1934   0.243   0.668   3.922 -2.1804 -1.9921 -0.4174
  307WAT     H2 1935   0.240   0.551   3.850 -1.5302 -0.1845 -3.5549
  307WAT    EPW 1936   0.257   0.628   3.856  0.2078  0.3711 -0.0667
  308WAT      O 1937   2.083   6.996   6.747  0.0932 -0.0877  0.5754
  308WAT     H1 1938   2.127   6.932   6.706  1.6962  0.6130  1.1385
  308WAT     H2 1939   2.134   7.066   6.737 -1.3242  0.9907  0.5379
  308WAT    EPW 1940   2.097   6.997   6.739  0.0527 -0.1607  0.0829
  309WAT      O 1941   5.440   1.208   2.414 -0.1438 -0.0235  0.2958
  309WAT     H1 1942   5.362   1.246   2.419  0.0776  0.4941 -0.1591
  309WAT     H2 1943   5.495   1.275   2.407  0.4656 -0.3017  1.8629
  309WAT    EPW 1944   5.437   1.223   2.414  0.3104 -0.3415  0.1939
  310WAT      O 1945   0.343   0.494   3.461 -0.7341  0.2918 -0.1930
  310WAT     H1 1946   0.375   0.550   3.520  0.1832 -0.7745  0.3652
  310WAT     H2 1947   0.257   0.500   3.471 -0.5968  0.1315  1.2912
  310WAT    EPW 1948   0.335   0.503   3.471  0.2658 -0.5048  0.1077
  311WAT      O 1949   7.243   1.999   0.786  0.2415  0.5989  0.1857
  311WAT     H1 1950   7.178   1.956   0.826 -1.3208  1.7673 -0.9780
  311WAT     H2 1951   7.265   1.946   0.720  0.4815  0.2131  0.5660
  311WAT    EPW 1952   7.237   1.985   0.783  0.2410 -0.2223 -0.0843
  312WAT      O 1953   2.257   4.223   4.201 -0.1630  0.1798  0.1359
  312WAT     H1 1954   2.280   4.207   4.283 -0.0711 -1.5076 -0.1725
  312WAT     H2 1955   2.266   4.145   4.162 -1.4035  0.6476 -1.1841
  312WAT    EPW 1956   2.262   4.209   4.207  0.0188 -1.0089  0.5086
  313WAT      O 1957   7.850   2.391   4.433 -0.5288  0.1584 -0.3123
  313WAT     H1 1958   7.808   2.315   4.429  1.0729 -0.7980  0.1322
  313WAT     H2 1959   7.828   2.422   4.512  0.4568 -0.8729  0.3884
  313WAT    EPW 1960   7.840   2.384   4.444  0.5727  0.3071 -0.3385
  314WAT      O 1961   8.001   1.987   0.587  0.1744 -0.0133 -0.7081
  314WAT     H1 1962   7.940   1.966   0.527 -0.7728 -0.9939  0.5363
  314WAT     H2 1963   8.042   1.911   0.601  0.0006  0.0653  0.2849
  314WAT    EPW 1964   7.998   1.973   0.580  0.0592  0.6668 -0.4963
  315WAT      O 1965   1.203   4.954   4.160  0.3489 -0.0727  0.1113
  315WAT     H1 1966   1.165   4.913   4.093 -0.6943  0.9670  0.0422
  315WAT     H2 1967   1.137   4.974   4.213  0.9341  0.8181  0.5261
  315WAT    EPW 1968   1.188   4.951   4.158 -0.3906 -0.1720  0.4016
  316WAT      O 1969   7.376   0.250   0.199 -0.6762 -0.1030  0.0140
  316WAT     H1 1970   7.435   0.243   0.135  0.7616  1.2573  1.0858
  316WAT     H2 1971   7.425   0.269   0.269 -2.1886 -1.3982  1.5164
  316WAT    EPW 1972   7.392   0.252   0.200 -0.8065 -0.7999 -0.1651
  317WAT      O 1973   1.119   7.188   1.170  0.3210  0.7003  0.4658
  317WAT     H1 1974   1.152   7.268   1.181 -0.8385  1.2392  0.2169
  317WAT     H2 1975   1.033   7.202   1.168  0.0499 -0.6770  1.3354
  317WAT    EPW 1976   1.111   7.202   1.171 -0.2261 -0.1734 -0.0046
  318WAT      O 1977   1.607   5.123   4.335  0.3538 -0.2530  0.3419
  318WAT     H1 1978   1.612   5.194   4.385  3.4887  0.1702 -0.3843
  318WAT     H2 1979   1.601   5.058   4.393 -0.8827  0.4505  1.0576
  318WAT    EPW 1980   1.607   5.124   4.351 -0.9324 -0.2792 -0.0846
  319WAT      O 1981   1.832   7.208   3.458 -0.5402 -0.5450  0.0446
  319WAT     H1 1982   1.783   7.138   3.443 -4.5800  1.6445  1.5792
  319WAT     H2 1983   1.784   7.274   3.427  1.9077  1.8091  0.8388
  319WAT    EPW 1984   1.818   7.208   3.451 -0.1773 -0.0730 -0.0174
  320WAT      O 1985   1.085   7.000   2.866 -0.1163 -0.2844  0.5735
  320WAT     H1 1986   1.132   6.995   2.792  0.9248  0.1594  1.1891
  320WAT     H2 1987   1.098   6.922   2.904  1.3577  0.3476  1.4470
  320WAT    EPW 1988   1.094   6.988   2.860  0.3007 -0.1573  0.2676
  321WAT      O 1989   3.121   6.188   4.021 -0.6652 -0.3215  0.0317
  321WAT     H1 1990   3.095   6.122   3.970 -0.0311  0.9474 -2.0766
  321WAT     H2 1991   3.147   6.248   3.964  1.0541  0.8374  1.9014
  321WAT    EPW 1992   3.121   6.187   4.005  1.2440  0.1349 -0.2656
  322WAT      O 1993   6.374   7.011   0.536 -0.0946  0.2370 -0.1144
  322WAT     H1 1994   6.459   7.020   0.519 -0.2625  1.7280 -0.2415
  322WAT     H2 1995   6.353   6.937   0.494  1.0291  0.1062 -0.4851
  322WAT    EPW 1996   6.383   7.001   0.527 -0.0123 -0.0246 -0.8122
  323WAT      O 1997   1.259   7.915   3.598 -0.0980  0.0202  0.1159
  323WAT     H1 1998   1.333   7.927   3.642  0.5763 -1.8609 -0.3733
  323WAT     H2 1999   1.275   7.953   3.521 -0.4749  1.4471  0.7108
  323WAT    EPW 2000   1.272   7.922   3.593 -0.4332  0.2699 -0.3905
  324WAT      O 2001   0.275   4.382   1.472  1.1738 -0.1672  0.1349
  324WAT     H1 2002   0.210   4.354   1.421  0.2089  1.0629  0.6184
  324WAT     H2 2003   0.332   4.316   1.472 -0.6529 -1.8464  0.7307
  324WAT    EPW 2004   0.274   4.368   1.464 -0.7053  0.0495  0.5013
  325WAT      O 2005   4.010   0.017   6.996  0.2514 -0.1199 -0.3525
  325WAT     H1 2006   4.020  -0.060   7.036 -0.1547 -0.5359 -1.0316
  325WAT     H2 2007   4.090   0.051   6.995  0.2461  0.0034  0.9903
  325WAT    EPW 2008   4.023   0.011   7.002  0.1586  0.0701  0.3822
  326WAT      O 2009   7.365   4.185   0.921 -0.4920  0.0239 -0.4026
  326WAT     H1 2010   7.299   4.130   0.908 -0.8713  0.3846 -0.0343
  326WAT     H2 2011   7.327   4.263   0.919  0.1299  0.3288 -1.5520
  326WAT    EPW 2012   7.349   4.188   0.918  0.6100  0.6154  1.1492
  327WAT      O 2013   5.756   1.281   3.696 -0.0452  0.2091 -0.3621
  327WAT     H1 2014   5.690   1.237   3.661 -0.6952  1.3592 -0.6220
  327WAT     H2 2015   5.803   1.306   3.627  0.5920 -0.4645 -0.1891
  327WAT    EPW 2016   5.753   1.278   3.681  0.2152  0.7273 -0.1765
  328WAT      O 2017   1.145   7.690   4.671  0.4246  0.0847 -0.5534
  328WAT     H1 2018   1.148   7.613   4.631 -1.0914 -0.2013 -0.1802
  328WAT     H2 2019   1.061   7.714   4.664  0.5122  0.9114  0.7849
  328WAT    EPW 2020   1.133   7.682   4.664 -0.6739 -0.2272  0.5986
  329WAT      O 2021   5.498   5.192   1.932 -0.7151 -0.5580  0.2759
  329WAT     H1 2022   5.516   5.123   1.881 -1.0528 -1.2597  1.0718
  329WAT     H2 2023   5.574   5.210   1.970  0.5363  2.2910 -3.0623
  329WAT    EPW 2024   5.512   5.184   1.930 -0.3352 -0.8414  0.4382
  330WAT      O 2025   4.840   7.515   0.514  0.0649  0.5512  0.0380
  330WAT     H1 2026   4.898   7.462   0.475 -0.3876 -0.2924  0.4884
  330WAT     H2 2027   4.764   7.490   0.480 -0.5172 -1.0990  2.3145
  330WAT    EPW 2028   4.838   7.503   0.503 -0.4757  0.2707 -0.0717
  331WAT      O 2029   5.439   1.356   6.105  0.4239  0.0709 -0.5280
  331WAT     H1 2030   5.405   1.371   6.026 -0.6525 -1.1227 -0.3217
  331WAT     H2 2031   5.405   1.420   6.154 -2.0870 -1.3703 -0.2059
  331WAT    EPW 2032   5.429   1.368   6.101 -0.3081  0.0148  0.3903
  332WAT      O 2033   6.223   5.562   5.309 -0.4359  0.4562 -0.2015
  332WAT     H1 2034   6.261   5.638   5.288 -2.6426  1.3602 -1.2155
  332WAT     H2 2035   6.182   5.539   5.236  0.3157 -1.8603  0.0387
  332WAT    EPW 2036   6.223   5.570   5.295  0.0010 -0.1389  0.1015
  333WAT      O 2037   4.560   4.050   2.433 -0.1858  0.1996  0.2396
  333WAT     H1 2038   4.641   4.077   2.452  0.2264 -1.2483  0.6917
  333WAT     H2 2039   4.546   4.082   2.353  0.7112  0.7294  0.2794
  333WAT    EPW 2040   4.570   4.059   2.424 -0.4837 -0.4475 -0.2626
  334WAT      O 2041   5.265   6.157   0.768 -0.4019 -0.0294  0.3608
  334WAT     H1 2042   5.323   6.181   0.829  0.0292 -0.7886  0.2657
  334WAT     H2 2043   5.285   6.208   0.700 -0.6755  0.5986  0.7430
  334WAT    EPW 2044   5.277   6.168   0.767  0.2399  0.6148 -0.1820
  335WAT      O 2045   1.000   1.208   0.401 -0.0128  0.1131  0.0007
  335WAT     H1 2046   0.974   1.286   0.371  0.6103  0.5445  0.5783
  335WAT     H2 2047   0.949   1.152   0.357 -0.5978  0.8477 -0.2789
  335WAT    EPW 2048   0.989   1.212   0.390  0.4060  0.0315 -0.7616
  336WAT      O 2049   0.640   1.792   1.783 -0.0566  0.7330  0.8763
  336WAT     H1 2050   0.657   1.781   1.868  0.4045 -1.7846  0.5537
  336WAT     H2 2051   0.600   1.718   1.761 -0.1264  1.3072 -1.1115
  336WAT    EPW 2052   0.637   1.779   1.793  0.5826  0.3935  0.2370
  337WAT      O 2053   4.444   7.655   2.723 -0.1428  0.0419 -0.2817
  337WAT     H1 2054   4.360   7.633   2.730 -0.7356  2.2064  0.0663
  337WAT     H2 2055   4.441   7.737   2.693  1.7540  1.1504  2.2164
  337WAT    EPW 2056   4.431   7.664   2.719  0.4785 -0.0393  0.2055
  338WAT      O 2057   6.010   2.271   0.085 -0.0455 -0.5100  0.0574
  338WAT     H1 2058   6.093   2.298   0.089  0.2449 -1.4442  0.7804
  338WAT     H2 2059   6.016   2.186   0.104 -1.4313 -0.0891  2.8699
  338WAT    EPW 2060   6.023   2.262   0.088 -0.3325  0.4554 -0.5752
  339WAT      O 2061   4.654   0.683   7.690 -0.3077 -0.5489 -0.1651
  339WAT     H1 2062   4.669   0.763   7.660  0.6580 -0.6820 -0.0842
  339WAT     H2 2063   4.614   0.696   7.766  1.1418 -0.0829  0.5561
  339WAT    EPW 2064   4.651   0.697   7.696  0.0677  0.0712 -0.2171
  340WAT      O 2065   4.485   0.863   6.032 -0.6687  0.1621  0.3505
  340WAT     H1 2066   4.480   0.913   5.960  0.3645 -0.0938  0.0864
  340WAT     H2 2067   4.402   0.859   6.059 -0.8017  2.0660  0.4140
  340WAT    EPW 2068   4.472   0.870   6.026 -0.2676  0.0023 -0.2987
  341WAT      O 2069   5.973   0.453   6.401 -0.2878 -0.0759 -0.4077
  341WAT     H1 2070   6.049   0.480   6.368 -0.1529  1.1576  0.8054
  341WAT     H2 2071   5.977   0.478   6.485 -1.0408 -2.1226  0.3052
  341WAT    EPW 2072   5.985   0.460   6.409 -0.0796 -0.1894 -0.6773
  342WAT      O 2073   5.378   0.037   3.010  0.1202 -0.1097  0.2370
  342WAT     H1 2074   5.301   0.060   2.976 -0.6020 -0.5198  1.5055
  342WAT     H2 2075   5.372   0.062   3.093  0.1134 -2.8708  1.1729
  342WAT    EPW 2076   5.366   0.044   3.017  0.1622 -0.4035 -0.7771
  343WAT      O 2077   0.764   0.408   2.184  0.5150 -0.5615  0.5410
  343WAT     H1 2078   0.715   0.480   2.171  1.5898  0.2824  1.0351
  343WAT     H2 2079   0.724   0.367   2.249  0.2897 -0.0434  0.7337
  343WAT    EPW 2080   0.751   0.413   2.191  0.0777 -0.2455  0.2458
  344WAT      O 2081   5.465   4.891   6.277  0.2629  0.1388 -0.4028
  344WAT     H1 2082   5.377   4.891   6.279  0.2542  1.3016  1.1894
  344WAT     H2 2083   5.486   4.817   6.318  0.0225 -0.0724 -0.6569
  344WAT    EPW 2084   5.455   4.880   6.283 -0.1964  0.0740 -0.1618
  345WAT      O 2085   1.356   6.036   2.184 -0.4478  0.0853  0.0864
  345WAT     H1 2086   1.279   6.077   2.194 -0.0980  0.8070 -0.1160
  345WAT     H2 2087   1.381   6.058   2.104  0.2186  0.2936  0.3421
  345WAT    EPW 2088   1.348   6.045   2.174 -0.1119 -0.6925  0.0969
  346WAT      O 2089   6.778   7.161   2.484  0.4759  0.3321  0.1035
  346WAT     H1 2090   6.796   7.245   2.473 -0.7765  0.5282 -0.5467
  346WAT     H2 2091   6.723   7.142   2.419 -1.2167 -0.3694  1.6535
  346WAT    EPW 2092   6.773   7.170   2.473  0.2988 -0.6324  0.3443
  347WAT      O 2093   1.379   2.585   4.657 -0.0720  0.1622  0.4739
  347WAT     H1 2094   1.320   2.522   4.672 -2.2330  1.5918 -1.4257
  347WAT     H2 2095   1.444   2.543   4.617  1.0363 -1.7121  3.8007
  347WAT    EPW 2096   1.380   2.569   4.654  0.0389 -0.5834  0.3509
  348WAT      O 2097   3.408   5.834   6.365 -0.0171 -0.2232  0.6109
  348WAT     H1 2098   3.430   5.778   6.301  0.7679  1.4510 -0.6807
  348WAT     H2 2099   3.486   5.855   6.400 -0.3314 -0.1382  1.2694
  348WAT    EPW 2100   3.423   5.828   6.361 -0.5623 -0.2456  0.9425
  349WAT      O 2101   6.882   7.983   8.011 -0.2304  0.1145  0.1462
  349WAT     H1 2102   6.804   7.967   7.976 -0.8116 -1.5023  2.0297
  349WAT     H2 2103   6.863   8.005   8.094  1.3344 -1.8583  1.1084
  349WAT    EPW 2104   6.867   7.984   8.018  0.8422  0.1645 -0.6395
  350WAT      O 2105   5.021   5.261   7.550  0.0485  0.3726  0.0724
  350WAT     H1 2106   5.018   5.340   7.514 -1.2416  0.8156  1.0780
  350WAT     H2 2107   4.958   5.263   7.611  1.1774 -0.7929  1.3777
  350WAT    EPW 2108   5.012   5.273   7.554  0.2853 -0.4546  0.1600
  351WAT      O 2109   5.176   4.313   7.831  0.5514 -0.1884 -0.2248
  351WAT     H1 2110   5.144   4.243   7.872  2.6711 -1.5511 -0.6951
  351WAT     H2 2111   5.115   4.373   7.841 -0.4242 -1.4494  2.1044
  351WAT    EPW 2112   5.163   4.311   7.838 -0.1688  0.6180  0.0455
  352WAT      O 2113   6.423   0.284   0.397  0.0946  0.1360  0.6495
  352WAT     H1 2114   6.395   0.338   0.460  0.5912  0.4980  0.5649
  352WAT     H2 2115   6.478   0.231   0.439  0.9268  0.7904  0.3978
  352WAT    EPW 2116   6.427   0.284   0.413  0.1788  0.4501 -0.0322
  353WAT      O 2117   5.337   5.596   0.510  0.4276  0.0553 -0.3606
  353WAT     H1 2118   5.411   5.586   0.465  0.7066 -0.2132  0.1396
  353WAT     H2 2119   5.363   5.584   0.593  0.0033  0.9499 -0.0947
  353WAT    EPW 2120   5.352   5.593   0.516  0.1171  0.1747 -0.3523
  354WAT      O 2121   4.213   1.982   2.056 -0.3916 -0.2396 -0.0195
  354WAT     H1 2122   4.161   2.015   2.118 -0.0057  1.3826 -0.5165
  354WAT     H2 2123   4.166   1.916   2.023 -1.8105  0.6831  0.0717
  354WAT    EPW 2124   4.198   1.977   2.060 -0.0616 -0.1226  0.1444
  355WAT      O 2125   5.355   2.366   0.130  0.1474 -0.0924  0.0540
  355WAT     H1 2126   5.324   2.323   0.061  0.6870  0.7281 -0.7357
  355WAT     H2 2127   5.407   2.308   0.170 -1.1161 -0.9603  0.4788
  355WAT    EPW 2128   5.358   2.351   0.126 -0.5153  0.1503 -0.3874
  356WAT      O 2129   5.481   1.474   5.323 -0.0893 -0.1699 -0.3152
  356WAT     H1 2130   5.438   1.411   5.365  2.2348 -1.9706 -0.4499
  356WAT     H2 2131   5.454   1.547   5.363 -2.0196 -1.2924  0.5928
  356WAT    EPW 2132   5.470   1.476   5.335  0.2099  0.3509 -0.2290
  357WAT      O 2133   5.194   2.486   3.706  0.3069 -0.2556  0.2360
  357WAT     H1 2134   5.250   2.551   3.689  0.5504 -0.9500 -1.8855
  357WAT     H2 2135   5.126   2.526   3.744  0.5482  1.2107 -0.8198
  357WAT    EPW 2136   5.192   2.501   3.709 -0.2757 -0.1248 -0.1388
  358WAT      O 2137   2.184   0.720   1.033 -0.1520 -0.0266 -0.3902
  358WAT     H1 2138   2.140   0.682   1.097 -1.0249  0.2581 -0.8130
  358WAT     H2 2139   2.268   0.708   1.056 -0.4263 -1.0424  0.1485
  358WAT    EPW 2140   2.190   0.713   1.046 -0.3510 -0.3148  0.0036
  359WAT      O 2141   1.024   6.008   0.054  0.2811 -0.0208 -0.3189
  359WAT     H1 2142   1.104   5.975   0.062  0.3416  0.4239  1.1229
  359WAT     H2 2143   1.037   6.083   0.011  0.4623 -0.5679 -1.2424
  359WAT    EPW 2144   1.038   6.014   0.049 -0.5871 -0.2785  0.0483
  360WAT      O 2145   7.273   5.845   0.646 -0.3753  0.3278  0.7347
  360WAT     H1 2146   7.335   5.904   0.658 -0.5539  0.3191  1.7504
  360WAT     H2 2147   7.209   5.870   0.700 -0.3939 -0.8645  1.2920
  360WAT    EPW 2148   7.273   5.857   0.656 -0.6221 -0.0294 -0.3020
  361WAT      O 2149   6.801   0.033   4.101 -0.3389 -0.0799 -0.6858
  361WAT     H1 2150   6.780   0.041   4.017 -1.4901 -0.3539 -0.4502
  361WAT     H2 2151   6.781  -0.050   4.119 -0.0955 -0.0262 -0.1431
  361WAT    EPW 2152   6.795   0.022   4.091 -0.8512  0.2722 -0.3816
  362WAT      O 2153   4.624   0.554   6.398  0.2335 -0.6131  0.3587
  362WAT     H1 2154   4.650   0.537   6.479 -0.3868 -2.2975  0.2527
  362WAT     H2 2155   4.596   0.637   6.401  2.2689  0.0780  1.2981
  362WAT    EPW 2156   4.623   0.564   6.410  0.0750 -0.5805 -0.1278
  363WAT      O 2157   7.305   3.841   1.920 -0.8324  0.1429 -0.6645
  363WAT     H1 2158   7.254   3.855   1.989  0.7388 -0.5172  0.7276
  363WAT     H2 2159   7.382   3.875   1.944 -0.5329  0.9673 -2.5974
  363WAT    EPW 2160   7.309   3.848   1.934 -0.1350  0.3581 -0.3240
  364WAT      O 2161   0.520   4.260   1.474  0.0494  0.2435 -0.0762
  364WAT     H1 2162   0.524   4.338   1.514 -0.4559  0.2071  0.0450
  364WAT     H2 2163   0.533   4.204   1.540  2.0661  0.2488 -0.3986
  364WAT    EPW 2164   0.523   4.263   1.490  0.0694 -0.0199 -0.6248
  365WAT      O 2165   7.636   3.820   1.055  0.6341 -0.3451 -0.2215
  365WAT     H1 2166   7.710   3.794   1.016 -0.7642 -1.6753 -2.1966
  365WAT     H2 2167   7.618   3.895   1.016  1.6935  0.8380  1.4172
  365WAT    EPW 2168   7.644   3.827   1.043 -0.0377 -0.4831  0.5717
  366WAT      O 2169   5.521   5.938   7.854 -0.5441  0.3277 -0.1722
  366WAT     H1 2170   5.577   6.004   7.844 -1.6819  1.7389  2.1822
  366WAT     H2 2171   5.556   5.875   7.804  1.7608  1.9472 -0.7780
  366WAT    EPW 2172   5.535   5.938   7.845 -0.5109  0.3916  0.3386
  367WAT      O 2173   5.621   5.667   7.307  0.2970 -0.1291  0.1991
  367WAT     H1 2174   5.582   5.675   7.384  1.0327 -0.9105  0.6723
  367WAT     H2 2175   5.596   5.589   7.278 -3.2506  1.6597 -2.3120
  367WAT    EPW 2176   5.612   5.657   7.314 -0.0269 -0.1320 -0.1741
  368WAT      O 2177   6.453   2.772   7.618  0.4198  0.1775 -0.1589
  368WAT     H1 2178   6.519   2.823   7.643  0.2402 -0.2865  1.3098
  368WAT     H2 2179   6.383   2.810   7.652 -0.1604  0.8077 -1.9133
  368WAT    EPW 2180   6.453   2.785   7.626 -0.0959  0.0501 -0.3837
  369WAT      O 2181   7.993   3.164   2.987 -0.0212 -0.2810 -0.0379
  369WAT     H1 2182   8.077   3.181   2.971  0.5667 -1.6141  1.3297
  369WAT     H2 2183   7.953   3.241   2.978  1.5112  0.5675  0.2362
  369WAT    EPW 2184   7.999   3.178   2.983  0.1048 -0.2598  0.3661
  370WAT      O 2185   0.698   2.337   1.321  0.2221  0.1285  0.4849
  370WAT     H1 2186   0.627   2.362   1.366  0.0866  0.7048 -0.0257
  370WAT     H2 2187   0.691   2.250   1.319 -0.1587  0.1406  0.9449
  370WAT    EPW 2188   0.686   2.328   1.327  0.7790  0.3520  0.1481
  371WAT      O 2189   4.785   5.587   1.875 -0.4643 -0.5629 -0.2368
  371WAT     H1 2190   4.775   5.512   1.917  0.0083  0.0366  0.9802
  371WAT     H2 2191   4.864   5.614   1.897 -1.3611  1.2809  1.0284
  371WAT    EPW 2192   4.795   5.580   1.884 -0.6811  0.2621 -0.1812
  372WAT      O 2193   5.528   3.265   7.434  0.2068  0.7417  0.0273
  372WAT     H1 2194   5.607   3.234   7.414  0.2625  0.8796  0.0264
  372WAT     H2 2195   5.480   3.247   7.364  0.1675  0.4193  0.1337
  372WAT    EPW 2196   5.533   3.258   7.421  0.1199  0.0303  0.1556
  373WAT      O 2197   6.884   5.491   1.935  0.5853  0.5098 -0.3342
  373WAT     H1 2198   6.861   5.571   1.907 -1.8461 -0.5890 -1.7273
  373WAT     H2 2199   6.892   5.502   2.021  0.4198  2.2716 -0.4943
  373WAT    EPW 2200   6.882   5.505   1.944 -0.4664 -0.6236 -0.0784
  374WAT      O 2201   7.847   4.414   0.422  0.2949  0.3340  0.1778
  374WAT     H1 2202   7.861   4.422   0.337  1.4019 -1.7790  0.0956
  374WAT     H2 2203   7.825   4.330   0.431 -4.3073  1.3876  1.4509
  374WAT    EPW 2204   7.846   4.403   0.411  0.0683 -0.4333  0.0254
  375WAT      O 2205   4.138   7.052   0.138  0.9949  0.0218  0.1910
  375WAT     H1 2206   4.154   7.101   0.209  1.1772  2.3428 -1.3707
  375WAT     H2 2207   4.059   7.079   0.112  1.1314 -0.4799 -0.7707
  375WAT    EPW 2208   4.129   7.063   0.145  0.5042 -0.3429  0.3278
  376WAT      O 2209   5.435   6.720   6.617  0.0707 -0.8671 -0.2613
  376WAT     H1 2210   5.463   6.802   6.608  1.7450 -1.6277 -3.0801
  376WAT     H2 2211   5.463   6.698   6.696 -0.2563  1.1733  0.4998
  376WAT    EPW 2212   5.443   6.729   6.627 -0.9549 -0.1488 -0.0708
  377WAT      O 2213   0.531   6.582   0.199  0.1382 -0.5529 -0.4192
  377WAT     H1 2214   0.617   6.568   0.197  0.6057  1.6356  0.9801
  377WAT     H2 2215   0.498   6.512   0.159  2.4764 -2.1662  0.2722
  377WAT    EPW 2216   0.539   6.569   0.193  0.2396  0.4004 -0.2095
  378WAT      O 2217   7.989   6.015   1.587 -0.2351  0.2971 -0.2198
  378WAT     H1 2218   7.992   5.933   1.616 -1.1293  0.4180  0.2419
  378WAT     H2 2219   8.017   6.062   1.655 -0.7617  0.4568 -0.1134
  378WAT    EPW 2220   7.994   6.010   1.601 -0.0634  0.4241 -0.5183
  379WAT      O 2221   5.272   7.155   0.642 -0.2263  0.4330  0.6382
  379WAT     H1 2222   5.195   7.162   0.683 -0.1967 -0.2772  0.8225
  379WAT     H2 2223   5.329   7.147   0.708 -0.1605 -0.5495  0.4743
  379WAT    EPW 2224   5.269   7.155   0.658 -0.4574 -0.0029 -0.2033
  380WAT      O 2225   0.180   4.769   0.481 -0.4757 -0.3482  0.1786
  380WAT     H1 2226   0.257   4.793   0.514  0.4503 -2.3328 -0.4243
  380WAT     H2 2227   0.167   4.826   0.416 -0.7182  1.4873  1.7234
  380WAT    EPW 2228   0.189   4.781   0.476  0.0953 -0.2877  0.4902
  381WAT      O 2229   2.104   4.793   7.687 -0.1265  0.0452  0.5672
  381WAT     H1 2230   2.091   4.824   7.606 -1.1388  1.1160  1.1058
  381WAT     H2 2231   2.178   4.748   7.680 -1.6347 -2.3660 -1.6191
  381WAT    EPW 2232   2.113   4.791   7.674 -0.1200  0.1309  0.3468
  382WAT      O 2233   4.887   5.033   2.726 -0.5692 -0.0604 -0.1346
  382WAT     H1 2234   4.810   4.991   2.726  0.5415 -2.2438 -0.3989
  382WAT     H2 2235   4.901   5.048   2.811 -1.6539  1.1948 -0.1351
  382WAT    EPW 2236   4.878   5.029   2.739  0.6448 -0.2567  0.6385
  383WAT      O 2237   0.413   7.017   0.358 -0.2430 -0.5455  0.3972
  383WAT     H1 2238   0.361   7.083   0.334 -1.9209 -1.8478  0.2154
  383WAT     H2 2239   0.425   7.030   0.443 -1.1404 -0.3471  0.5081
  383WAT    EPW 2240   0.407   7.028   0.367  0.1142 -0.0449  0.6315
  384WAT      O 2241   7.010   4.160   1.639 -0.3908  0.1112  0.1840
  384WAT     H1 2242   6.942   4.144   1.692 -2.2932  0.8965 -1.8409
  384WAT     H2 2243   6.987   4.120   1.565  1.6011  0.0679 -0.4627
  384WAT    EPW 2244   6.997   4.152   1.636  1.2114 -0.3973 -0.3638
  385WAT      O 2245   4.749   1.622   3.795 -0.2079 -0.0613  0.2460
  385WAT     H1 2246   4.731   1.683   3.855 -0.1229  0.7237 -0.5031
  385WAT     H2 2247   4.789   1.667   3.732  1.6893 -1.2292  0.5252
  385WAT    EPW 2248   4.753   1.637   3.795 -0.0716 -0.0785  0.4227
  386WAT      O 2249   6.750   7.432   0.705  0.0058  0.2470  0.2278
  386WAT     H1 2250   6.801   7.460   0.770 -0.1497 -0.5063  0.6853
  386WAT     H2 2251   6.669   7.442   0.736 -0.0718 -0.0787  0.1439
  386WAT    EPW 2252   6.745   7.437   0.719  0.4121 -0.1023  0.2247
  387WAT      O 2253   5.852   3.554   2.183 -0.9789 -0.0637 -0.2164
  387WAT     H1 2254   5.797   3.492   2.155 -3.1902  0.9389  1.5703
  387WAT     H2 2255   5.845   3.616   2.122 -4.0257  1.1560  1.1410
  387WAT    EPW 2256   5.842   3.554   2.170  0.0218 -0.4509  0.1096
  388WAT      O 2257   7.353   6.813   1.610 -0.3952 -0.1514  0.6965
  388WAT     H1 2258   7.429   6.846   1.582  0.0601 -2.3079 -0.9063
  388WAT     H2 2259   7.296   6.876   1.595  0.8059  0.9083  0.3729
  388WAT    EPW 2260   7.356   6.827   1.604 -0.5502 -0.6323  0.0889
  389WAT      O 2261   5.679   0.214   7.187  0.0724  0.1476  0.0352
  389WAT     H1 2262   5.741   0.256   7.231  0.4124 -0.0834 -0.2133
  389WAT     H2 2263   5.632   0.174   7.249  1.6525 -1.7162  0.1501
  389WAT    EPW 2264   5.681   0.214   7.202  0.1681 -0.3196 -0.3722
  390WAT      O 2265   5.647   0.870   3.335 -0.1129 -0.0446  0.2009
  390WAT     H1 2266   5.592   0.805   3.314  0.7385 -0.7070 -0.0301
  390WAT     H2 2267   5.603   0.942   3.313 -0.5789 -0.5893 -0.7129
  390WAT    EPW 2268   5.632   0.871   3.329  0.0645 -0.2350 -0.5676
  391WAT      O 2269   6.320   5.342   3.450  0.3031 -0.5094  0.2505
  391WAT     H1 2270   6.290   5.260   3.448  0.2479 -0.5083  0.8140
  391WAT     H2 2271   6.249   5.389   3.468 -0.6061  0.1625 -3.9856
  391WAT    EPW 2272   6.305   5.336   3.452 -0.4215 -0.0509  0.4088
  392WAT      O 2273   5.509   0.077   3.637 -0.4848 -0.1541 -0.3799
  392WAT     H1 2274   5.570   0.062   3.699  0.0074  0.0781 -0.8005
  392WAT     H2 2275   5.451   0.013   3.650 -1.1333  0.6923  1.2294
  392WAT    EPW 2276   5.510   0.065   3.648  0.0552 -0.0104 -0.3148
  393WAT      O 2277   5.434   0.339   0.183 -0.8975 -0.0468  0.1055
  393WAT     H1 2278   5.348   0.349   0.177 -0.8516 -0.2845 -1.3157
  393WAT     H2 2279   5.465   0.417   0.158 -0.6954  0.0120  0.5341
  393WAT    EPW 2280   5.426   0.352   0.179 -1.0711  0.0019 -0.4162
  394WAT      O 2281   0.414   3.160   0.277 -0.0920 -0.3340 -0.5208
  394WAT     H1 2282   0.359   3.127   0.336  0.0149  2.2895  1.2143
  394WAT     H2 2283   0.412   3.246   0.293  0.9719  0.3831 -3.5092
  394WAT    EPW 2284   0.406   3.168   0.288  0.0507 -1.0055  0.1084
  395WAT      O 2285   0.305   5.993   2.078  0.0868  1.3126  0.1456
  395WAT     H1 2286   0.378   5.968   2.037 -0.6186 -0.0260 -0.3229
  395WAT     H2 2287   0.251   6.014   2.013 -0.7826 -0.1112  0.3606
  395WAT    EPW 2288   0.308   5.993   2.062  0.1689  0.6528  0.0268
  396WAT      O 2289   2.286   6.753   7.517 -0.0679  0.0551  0.1043
  396WAT     H1 2290   2.232   6.742   7.448 -0.3362 -3.3386  0.6824
  396WAT     H2 2291   2.247   6.816   7.563 -0.1187  2.1472 -2.5295
  396WAT    EPW 2292   2.272   6.761   7.513 -0.2273  0.1515 -0.4957
  397WAT      O 2293   5.512   3.061   6.098  0.1080 -0.6513  0.7423
  397WAT     H1 2294   5.487   3.043   6.180 -0.0355  1.6473  1.2667
  397WAT     H2 2295   5.580   3.115   6.109 -0.5726  0.5483 -0.6334
  397WAT    EPW 2296   5.518   3.067   6.112  0.3244 -0.3657  0.1431
  398WAT      O 2297   0.559   5.537   2.562  0.2403 -0.0329  0.0200
  398WAT     H1 2298   0.600   5.501   2.495  0.7981 -1.3347  1.0200
  398WAT     H2 2299   0.605   5.510   2.631 -2.3631 -1.7315  1.2271
  398WAT    EPW 2300   0.572   5.528   2.562  0.0555  0.4866  0.2204
  399WAT      O 2301   4.331   1.605   6.585 -0.0045 -0.5476 -0.2026
  399WAT     H1 2302   4.336   1.598   6.672 -0.0598  0.1651 -0.1368
  399WAT     H2 2303   4.261   1.656   6.573  0.3459 -0.1651 -0.6395
  399WAT    EPW 2304   4.321   1.612   6.596  0.6791 -0.6175 -0.4488
  400WAT      O 2305   0.710   2.435   3.396 -0.2109  0.5888  0.2939
  400WAT     H1 2306   0.655   2.397   3.340 -0.9184 -0.2884  1.5320
  400WAT     H2 2307   0.682   2.407   3.474 -1.4811  4.4039  1.4382
  400WAT    EPW 2308   0.697   2.425   3.399 -0.9064  0.6935  0.1179
  401WAT      O 2309   5.573   1.694   6.370 -0.5247 -0.2996  0.3393
  401WAT     H1 2310   5.648   1.655   6.348 -0.7336 -0.7380  0.3881
  401WAT     H2 2311   5.548   1.734   6.297  0.1173  0.4610  0.5142
  401WAT    EPW 2312   5.580   1.694   6.356  0.7596 -0.2256 -0.6218
  402WAT      O 2313   4.097   3.006   2.017  0.6387  0.0292 -0.3698
  402WAT     H1 2314   4.135   3.085   2.014  0.7910 -0.0744 -2.1721
  402WAT     H2 2315   4.125   2.973   2.093  1.0540  1.4689  0.1370
  402WAT    EPW 2316   4.107   3.013   2.028  0.4508 -0.0280  0.4049
  403WAT      O 2317   6.453   4.066   2.493  0.1500  0.0708  0.5515
  403WAT     H1 2318   6.519   4.014   2.516 -1.2146 -1.5946  0.9329
  403WAT     H2 2319   6.409   4.078   2.568 -1.9043 -1.7949 -0.2493
  403WAT    EPW 2320   6.456   4.060   2.508 -0.0049 -0.2984 -0.2809
  404WAT      O 2321   2.238   7.020   0.673 -0.1468 -0.5536 -0.0813
  404WAT     H1 2322   2.212   7.042   0.593 -1.1669 -0.5869  0.2365
  404WAT     H2 2323   2.299   6.959   0.659 -0.0686 -0.3080 -0.8358
  404WAT    EPW 2324   2.243   7.014   0.659  0.1140 -0.0998  0.0831
  405WAT      O 2325   7.885   6.559   0.399 -0.6107 -0.8416  0.0772
  405WAT     H1 2326   7.876   6.475   0.420 -0.2461 -0.6980  0.8250
  405WAT     H2 2327   7.804   6.585   0.384 -0.7852 -1.1895  0.3918
  405WAT    EPW 2328   7.872   6.550   0.400  0.0182  0.2339 -0.2793
  406WAT      O 2329   0.095   7.449   2.763 -0.2343  0.6751  0.3986
  406WAT     H1 2330   0.150   7.504   2.803  1.0608 -0.5435  0.3660
  406WAT     H2 2331   0.130   7.370   2.779 -2.4808 -0.2440  1.1765
  406WAT    EPW 2332   0.108   7.445   2.771 -0.5288 -0.6256 -0.6442
  407WAT      O 2333   6.587   4.555   0.701 -0.2655 -0.1876  0.1059
  407WAT     H1 2334   6.522   4.496   0.692  0.4280 -1.0950  0.8327
  407WAT     H2 2335   6.573   4.610   0.635 -1.4091 -0.7233 -0.1349
  407WAT    EPW 2336   6.575   4.554   0.690  0.0164 -0.7122 -0.4186
  408WAT      O 2337   0.041   5.421   0.278 -0.5286 -0.5596 -0.9863
  408WAT     H1 2338   0.076   5.356   0.325 -0.4544  0.2671  0.1471
  408WAT     H2 2339  -0.037   5.433   0.314  0.2866  1.4008  0.3124
  408WAT    EPW 2340   0.035   5.414   0.290  0.7361 -0.1144 -0.6408
  409WAT      O 2341   0.566   5.928   1.960 -0.2339 -0.1484 -0.1726
  409WAT     H1 2342   0.638   5.919   2.008  0.9432 -1.4282 -2.0425
  409WAT     H2 2343   0.593   5.973   1.890 -0.2330 -3.4993 -2.5875
  409WAT    EPW 2344   0.581   5.933   1.957  0.2827  0.6047  0.0588
  410WAT      O 2345   4.489   5.491   0.263  0.0403 -0.1581 -0.1409
  410WAT     H1 2346   4.497   5.570   0.227  2.1450  0.8040  2.1703
  410WAT     H2 2347   4.525   5.438   0.204  0.2556  0.8495 -0.9464
  410WAT    EPW 2348   4.496   5.495   0.249 -0.4114  0.2264  0.5655
  411WAT      O 2349   4.483   4.407   7.726 -1.0028 -0.2943 -0.1298
  411WAT     H1 2350   4.427   4.406   7.792  0.4187 -2.3494  1.1466
  411WAT     H2 2351   4.552   4.450   7.758 -0.6332 -0.5335 -0.5859
  411WAT    EPW 2352   4.485   4.413   7.741  0.2547  0.2589 -0.1881
  412WAT      O 2353   2.818   7.001   3.168  0.3847 -0.1793 -0.1264
  412WAT     H1 2354   2.744   7.048   3.172 -0.5610 -1.6282  3.1474
  412WAT     H2 2355   2.856   7.016   3.246  2.5004 -1.1043 -0.9024
  412WAT    EPW 2356   2.813   7.010   3.180 -0.7423 -0.5155  0.3658
  413WAT      O 2357   2.412   3.822   8.049  0.1281  0.1170  0.4378
  413WAT     H1 2358   2.369   3.770   7.994 -0.6170 -0.2879  1.3762
  413WAT     H2 2359   2.492   3.826   8.014 -0.2811 -0.2388 -0.5884
  413WAT    EPW 2360   2.418   3.815   8.036  0.0026 -0.4171 -0.2637
  414WAT      O 2361   2.366   3.339   0.860 -0.2575 -0.5445 -0.0968
  414WAT     H1 2362   2.324   3.413   0.842  1.6280  0.2820 -1.4239
  414WAT     H2 2363   2.450   3.361   0.853  0.4310 -2.2716  1.7849
  414WAT    EPW 2364   2.372   3.353   0.857 -0.0127 -0.5856  1.0505
  415WAT      O 2365   4.123   3.328   0.788  0.1909  0.4407 -0.4113
  415WAT     H1 2366   4.193   3.293   0.827  0.6178  0.2875 -1.2886
  415WAT     H2 2367   4.155   3.358   0.713 -0.0444  3.2195  0.5152
  415WAT    EPW 2368   4.138   3.327   0.783 -0.1566 -0.4665  0.0816
  416WAT      O 2369   1.026   7.620   0.827  0.1348 -0.1805 -0.2001
  416WAT     H1 2370   1.077   7.550   0.817 -0.9190 -1.3752  1.9239
  416WAT     H2 2371   1.021   7.630   0.913 -1.5168  1.1643 -0.3854
  416WAT    EPW 2372   1.033   7.611   0.838  0.3632 -0.1288 -0.1618
  417WAT      O 2373   6.324   7.036   3.636 -0.1040  0.6939  0.7395
  417WAT     H1 2374   6.302   7.120   3.636 -0.8608  0.4952  0.9210
  417WAT     H2 2375   6.303   7.009   3.555 -0.1981  0.5900  0.7983
  417WAT    EPW 2376   6.318   7.044   3.624  0.1120  0.3506 -0.3835
  418WAT      O 2377   4.440   5.642   1.313  0.2484  0.8391 -0.5296
  418WAT     H1 2378   4.424   5.676   1.392 -2.1715 -0.3925 -0.3952
  418WAT     H2 2379   4.420   5.707   1.258  0.2257  1.1348 -0.1750
  418WAT    EPW 2380   4.435   5.656   1.316  0.0042 -0.4980  0.0676
  419WAT      O 2381   3.073   5.918   6.863 -0.5628 -0.5886 -0.0038
  419WAT     H1 2382   3.112   5.957   6.795 -0.6177 -0.3685  0.0940
  419WAT     H2 2383   2.995   5.955   6.866 -0.3228 -0.1201  0.6022
  419WAT    EPW 2384   3.067   5.929   6.853  0.2575  0.1436  0.7217
  420WAT      O 2385   1.848   6.254   0.187  0.1519 -0.8713  0.3638
  420WAT     H1 2386   1.924   6.259   0.228 -0.5136  0.1423  1.5263
  420WAT     H2 2387   1.794   6.222   0.247 -0.7214  0.1126  0.1429
  420WAT    EPW 2388   1.851   6.250   0.202 -1.2563  0.0963  0.5049
  421WAT      O 2389   7.806   7.994   0.172  0.5285  0.2265 -0.3232
  421WAT     H1 2390   7.876   7.957   0.135  0.9954  2.1388 -1.5313
  421WAT     H2 2391   7.840   8.048   0.231  0.1152  1.1286 -0.8820
  421WAT    EPW 2392   7.822   7.996   0.175 -0.1190  0.2048 -0.1822
  422WAT      O 2393   6.754   2.424   1.294 -0.1367  0.3067  0.1240
  422WAT     H1 2394   6.701   2.440   1.227 -0.7952  0.6665  0.7131
  422WAT     H2 2395   6.793   2.349   1.273 -0.8552  0.0535 -0.3387
  422WAT    EPW 2396   6.752   2.416   1.281 -0.3728  0.0414 -0.4524
  423WAT      O 2397   5.057   4.166   0.507 -0.3106 -0.1143  0.6567
  423WAT     H1 2398   5.097   4.088   0.515  0.1238  0.1758  1.3773
  423WAT     H2 2399   5.109   4.220   0.551 -0.4567  0.6525 -0.0946
  423WAT    EPW 2400   5.071   4.162   0.515 -0.3741  0.4843  0.6443
  424WAT      O 2401   3.089   4.811   1.937 -0.3134  1.1261  0.1567
  424WAT     H1 2402   3.109   4.884   1.979  1.5402  1.0680 -0.5426
  424WAT     H2 2403   3.057   4.840   1.861 -0.3366  1.2084  0.1977
  424WAT    EPW 2404   3.087   4.826   1.932 -0.2021 -0.1347 -0.5094
  425WAT      O 2405   5.295   4.353   5.641 -0.2748  0.6823  0.4436
  425WAT     H1 2406   5.338   4.416   5.598  1.7674 -1.1237 -0.4056
  425WAT     H2 2407   5.308   4.372   5.725  0.3431  1.3932  0.1985
  425WAT    EPW 2408   5.303   4.365   5.647 -0.2855  0.5748  0.1217
  426WAT      O 2409   3.816   6.571   4.721 -0.6901 -0.0033  0.1538
  426WAT     H1 2410   3.816   6.546   4.637 -1.3486  0.1975  0.0936
  426WAT     H2 2411   3.871   6.638   4.722 -1.6612  0.8258 -0.3761
  426WAT    EPW 2412   3.824   6.577   4.708 -0.2051 -0.4042  0.4525
  427WAT      O 2413   3.513   0.804   5.602  0.1658  0.0348  0.3703
  427WAT     H1 2414   3.464   0.876   5.607 -0.4568 -0.2116 -1.5149
  427WAT     H2 2415   3.459   0.741   5.630 -0.6898 -0.2428 -1.7411
  427WAT    EPW 2416   3.498   0.806   5.607  0.2572 -0.7083  0.1849
  428WAT      O 2417   7.914   3.501   0.529 -0.6514 -0.0101 -0.1360
  428WAT     H1 2418   7.958   3.427   0.543  0.1406  0.5263  0.2359
  428WAT     H2 2419   7.830   3.476   0.536 -0.3765 -0.7064  0.8810
  428WAT    EPW 2420   7.908   3.486   0.532  0.3674 -0.0203 -0.0587
  429WAT      O 2421   5.976   6.030   1.184  0.0943 -0.7648 -0.3166
  429WAT     H1 2422   5.889   6.022   1.184 -0.0899  0.6799 -1.8528
  429WAT     H2 2423   5.999   6.002   1.263 -1.8380 -0.4670  0.4066
  429WAT    EPW 2424   5.966   6.024   1.196  0.2330 -0.1321  0.2984
  430WAT      O 2425   4.773   7.594   7.263 -0.3904  0.9116  0.2027
  430WAT     H1 2426   4.746   7.644   7.329 -2.0818 -0.5414  0.7160
  430WAT     H2 2427   4.808   7.525   7.303 -2.4774 -0.5361 -0.2916
  430WAT    EPW 2428   4.774   7.591   7.279  0.1176 -0.2591 -0.2013
  431WAT      O 2429   7.331   3.073   8.054  0.6666 -0.2787 -0.3351
  431WAT     H1 2430   7.391   3.098   8.111  1.0017  1.4853 -1.4029
  431WAT     H2 2431   7.371   3.080   7.977 -0.2029 -1.2718 -0.9004
  431WAT    EPW 2432   7.345   3.078   8.051  0.1027  0.0424 -0.1596
  432WAT      O 2433   4.399   6.991   5.104 -0.3690 -0.1661 -0.1783
  432WAT     H1 2434   4.437   7.025   5.033 -0.0879  0.3272  0.1999
  432WAT     H2 2435   4.461   6.941   5.139  0.4929  1.7292  1.2130
  432WAT    EPW 2436   4.414   6.989   5.099 -0.4312  0.1190 -0.2040
  433WAT      O 2437   2.233   5.140   4.209  0.1205 -0.0037 -0.0175
  433WAT     H1 2438   2.150   5.140   4.185  0.0872 -3.3886 -0.4444
  433WAT     H2 2439   2.274   5.180   4.143 -0.9739 -0.2215 -0.8503
  433WAT    EPW 2440   2.227   5.146   4.195 -0.1810 -1.0382  0.0982
  434WAT      O 2441   1.796   1.419   7.657  0.1383 -0.1169  0.5093
  434WAT     H1 2442   1.736   1.395   7.716  0.0407  0.7076  0.7661
  434WAT     H2 2443   1.826   1.495   7.689  1.3464 -0.5283  0.3958
  434WAT    EPW 2444   1.791   1.427   7.671 -0.1935  0.5754 -0.1121
  435WAT      O 2445   4.027   2.004   2.879 -0.1257  0.1807 -0.0048
  435WAT     H1 2446   3.976   2.052   2.932  1.4398  1.9685 -0.0137
  435WAT     H2 2447   4.058   1.942   2.932 -0.5719  0.3979  0.5326
  435WAT    EPW 2448   4.024   2.002   2.895  0.0290 -0.0115  0.2125
  436WAT      O 2449   4.589   1.062   6.938  0.0628 -0.3080  0.2494
  436WAT     H1 2450   4.559   1.143   6.926 -0.5412 -0.3704  1.1911
  436WAT     H2 2451   4.675   1.073   6.946 -0.0716  0.3309  0.9541
  436WAT    EPW 2452   4.597   1.075   6.938 -0.3128  0.2354  0.1041
  437WAT      O 2453   5.267   5.535   6.811  0.7123  0.2795  0.2456
  437WAT     H1 2454   5.220   5.608   6.809 -0.2156 -0.3169 -0.8018
  437WAT     H2 2455   5.312   5.536   6.736 -0.4191 -0.9009 -0.4902
  437WAT    EPW 2456   5.267   5.546   6.799 -0.0204 -0.0214 -0.1632
  438WAT      O 2457   0.661   6.247   4.688 -0.4948 -0.0068  0.1560
  438WAT     H1 2458   0.706   6.244   4.613  0.5473  0.2403  0.7481
  438WAT     H2 2459   0.667   6.330   4.712 -1.6373  0.1236  0.0563
  438WAT    EPW 2460   0.669   6.259   4.680 -0.0734 -0.1233  0.3759
  439WAT      O 2461   4.503   2.153   4.157 -0.0214 -0.0784 -0.6196
  439WAT     H1 2462   4.588   2.175   4.156 -0.0228  0.4916  2.2885
  439WAT     H2 2463   4.468   2.204   4.096  1.4341  1.3168 -0.3635
  439WAT    EPW 2464   4.511   2.164   4.148 -0.0337 -0.3577 -0.3051
  440WAT      O 2465   0.516   3.275   0.569 -0.7235  0.5667  0.2082
  440WAT     H1 2466   0.561   3.209   0.533 -1.9066 -1.5030  2.1954
  440WAT     H2 2467   0.529   3.341   0.515  1.5836 -0.9561 -1.2708
  440WAT    EPW 2468   0.524   3.275   0.556  0.1177 -0.8241 -0.1434
  441WAT      O 2469   4.789   2.988   7.049 -0.0822 -0.0688  0.3154
  441WAT     H1 2470   4.733   3.029   7.102 -1.1228 -0.8673 -0.1106
  441WAT     H2 2471   4.862   3.034   7.055 -0.0060 -0.4168  2.8071
  441WAT    EPW 2472   4.791   3.001   7.057 -0.1201 -0.3090 -0.3612
  442WAT      O 2473   5.915   7.832   0.793 -0.2087  0.1689  0.2853
  442WAT     H1 2474   5.882   7.805   0.717  1.5521  1.3109 -0.9516
  442WAT     H2 2475   5.983   7.778   0.807 -1.1772 -0.7634  1.6815
  442WAT    EPW 2476   5.920   7.820   0.784 -0.3758  0.4094  0.2901
  443WAT      O 2477   4.121   2.255   5.436 -0.0232 -0.3568 -0.1814
  443WAT     H1 2478   4.143   2.174   5.460 -0.2928 -0.2667  0.3675
  443WAT     H2 2479   4.196   2.299   5.441  0.0160 -0.4475  0.0404
  443WAT    EPW 2480   4.135   2.250   5.440 -0.6247  0.2303 -0.1864
  444WAT      O 2481   5.492   5.743   4.361  0.3967 -0.3436 -0.9493
  444WAT     H1 2482   5.437   5.777   4.419  1.2532 -1.8122  0.8621
  444WAT     H2 2483   5.514   5.810   4.311  0.0870  1.1898  0.8499
  444WAT    EPW 2484   5.487   5.758   4.362 -0.4217  0.1538  0.4134
  445WAT      O 2485   5.692   2.401   6.235  0.2422  0.8274 -0.3724
  445WAT     H1 2486   5.609   2.383   6.253  0.9619 -1.3559  1.1319
  445WAT     H2 2487   5.689   2.428   6.152 -1.6203 -2.7783 -1.7193
  445WAT    EPW 2488   5.679   2.402   6.225 -0.6993  0.1025  0.2044
  446WAT      O 2489   3.737   4.612   1.130 -0.0405  0.7950  0.6624
  446WAT     H1 2490   3.790   4.618   1.060 -0.4464  0.0079  0.2755
  446WAT     H2 2491   3.782   4.561   1.185 -1.6806 -2.8498 -1.0024
  446WAT    EPW 2492   3.752   4.605   1.128  1.0358  0.3848 -0.9977
  447WAT      O 2493   1.889   7.513   1.114 -0.1738  0.3777  0.3715
  447WAT     H1 2494   1.919   7.499   1.033  0.2164  0.3329  0.5249
  447WAT     H2 2495   1.816   7.464   1.117 -0.3016  0.5361 -0.0183
  447WAT    EPW 2496   1.882   7.503   1.102 -0.3401 -0.4272 -0.0629
  448WAT      O 2497   5.669   3.702   3.962 -0.0348 -0.1839  0.3856
  448WAT     H1 2498   5.601   3.673   3.916  1.1675 -1.1488 -0.9138
  448WAT     H2 2499   5.658   3.788   3.965 -0.6664 -0.2046 -0.8999
  448WAT    EPW 2500   5.658   3.710   3.956  0.0434  0.1122  0.6361
  449WAT      O 2501   7.930   6.594   2.573 -0.3593 -0.0243 -0.2321
  449WAT     H1 2502   7.979   6.642   2.520 -0.6124  2.2070  1.3965
  449WAT     H2 2503   7.895   6.534   2.521  0.1458  1.4372 -2.3670
  449WAT    EPW 2504   7.932   6.592   2.558  0.3985 -0.1401 -0.1662
  450WAT      O 2505   3.356   7.510   3.302 -0.5442  0.1151 -1.1033
  450WAT     H1 2506   3.350   7.439   3.352 -0.6604 -0.6334 -2.1436
  450WAT     H2 2507   3.289   7.502   3.248 -0.9760  1.4032 -0.7849
  450WAT    EPW 2508   3.345   7.498   3.302 -0.2719  0.1063  0.6516
  451WAT      O 2509   4.714   2.585   5.943 -0.2958  0.0963 -0.3391
  451WAT     H1 2510   4.671   2.514   5.917  3.8856 -2.5439 -1.1505
  451WAT     H2 2511   4.745   2.563   6.022  0.6786  1.1599 -0.3921
  451WAT    EPW 2512   4.712   2.571   5.951  0.2607  0.0669 -0.2127
  452WAT      O 2513   3.718   2.563   5.378 -0.6595  0.5972  0.0825
  452WAT     H1 2514   3.669   2.621   5.335 -1.3523 -0.4273 -0.5597
  452WAT     H2 2515   3.724   2.596   5.458 -0.4924  1.8719 -0.4301
  452WAT    EPW 2516   3.712   2.576   5.383  0.5223  0.3543  0.6702
  453WAT      O 2517   5.287   5.507   7.253  0.0807  0.6479 -0.2555
  453WAT     H1 2518   5.280   5.508   7.340  1.6806  1.5420 -0.0892
  453WAT     H2 2519   5.224   5.453   7.228 -0.2436  0.1500  1.4790
  453WAT    EPW 2520   5.277   5.499   7.262 -0.3407  0.8253  0.1802
  454WAT      O 2521   5.083   6.194   4.726 -0.3921  0.4199  0.2271
  454WAT     H1 2522   5.003   6.193   4.760 -1.2896 -0.6517 -1.7500
  454WAT     H2 2523   5.133   6.223   4.792 -2.0034 -1.3161  2.3569
  454WAT    EPW 2524   5.079   6.198   4.741  0.1744 -0.0606 -0.1628
  455WAT      O 2525   0.308   4.278   4.659  0.1401  0.7635 -0.1290
  455WAT     H1 2526   0.264   4.228   4.715  0.2419  1.1709  0.3243
  455WAT     H2 2527   0.359   4.222   4.617  0.2868  0.4894  0.4111
  455WAT    EPW 2528   0.309   4.263   4.661 -0.6736  0.9241 -0.2244
  456WAT      O 2529   6.898   4.802   4.433 -0.5348  0.0921 -0.1227
  456WAT     H1 2530   6.982   4.826   4.436 -0.2638 -0.8009 -0.1838
  456WAT     H2 2531   6.900   4.727   4.388 -1.6032  1.0670 -1.9120
  456WAT    EPW 2532   6.911   4.795   4.427  0.0264 -0.4645  0.2452
  457WAT      O 2533   5.230   7.386   6.818  0.0099 -0.1467  0.2783
  457WAT     H1 2534   5.160   7.336   6.829  0.0901 -0.1856  0.6107
  457WAT     H2 2535   5.251   7.411   6.899  0.0090  0.3729  0.1234
  457WAT    EPW 2536   5.223   7.382   6.831 -0.1138 -0.1248 -0.3720
  458WAT      O 2537   6.670   2.350   0.032  0.0097 -0.2507 -0.0075
  458WAT     H1 2538   6.648   2.429   0.001  1.3725 -0.1450 -0.7494
  458WAT     H2 2539   6.621   2.343   0.104 -0.0310  1.3444  0.1623
  458WAT    EPW 2540   6.659   2.361   0.038 -0.5686 -0.4774 -0.1775
  459WAT      O 2541   5.150   7.527   7.624 -0.3454 -0.2832 -0.4410
  459WAT     H1 2542   5.131   7.604   7.587 -0.8107 -1.1713 -2.1691
  459WAT     H2 2543   5.085   7.514   7.680  0.1217  0.8885  0.4191
  459WAT    EPW 2544   5.138   7.536   7.627 -0.7713  0.3621 -0.0881
  460WAT      O 2545   4.327   7.134   4.429  1.2307 -0.4441 -0.5221
  460WAT     H1 2546   4.328   7.079   4.362  1.9316  0.3648 -1.1937
  460WAT     H2 2547   4.328   7.213   4.391 -0.9678  0.0881  0.3840
  460WAT    EPW 2548   4.327   7.137   4.414  0.0575 -0.3090  0.1190
  461WAT      O 2549   4.190   6.059   3.849  0.0371  0.1046  0.1465
  461WAT     H1 2550   4.138   5.998   3.815 -0.9522  1.3155 -0.5971
  461WAT     H2 2551   4.189   6.041   3.935 -1.5333  0.0373  0.1403
  461WAT    EPW 2552   4.182   6.047   3.857 -0.5126  0.3906  0.1685
  462WAT      O 2553   7.184   7.032   1.604  0.0676 -0.4617 -0.2853
  462WAT     H1 2554   7.202   7.116   1.619  2.4474 -0.5130 -2.2166
  462WAT     H2 2555   7.122   7.014   1.663  0.1209  2.3638  0.8263
  462WAT    EPW 2556   7.178   7.042   1.615  0.7617  0.2854  0.4608
  463WAT      O 2557   4.807   7.479   5.710  0.3469 -0.5950  0.1722
  463WAT     H1 2558   4.796   7.473   5.624 -0.2043  1.1411  0.0975
  463WAT     H2 2559   4.894   7.482   5.719  0.3920  0.5719 -0.4532
  463WAT    EPW 2560   4.819   7.478   5.699 -0.0759  0.1955 -0.8318
  464WAT      O 2561   2.358   0.075   5.360 -0.0574 -0.1465  0.5016
  464WAT     H1 2562   2.398   0.127   5.418 -0.2251 -1.2868  1.6948
  464WAT     H2 2563   2.290   0.123   5.334 -0.3170  0.1818  1.7038
  464WAT    EPW 2564   2.354   0.090   5.365  0.1899 -0.6094 -0.0476
  465WAT      O 2565   7.100   0.657   2.243 -0.1869 -0.0261 -0.1727
  465WAT     H1 2566   7.103   0.588   2.189  0.4205 -0.5794  0.5491
  465WAT     H2 2567   7.184   0.673   2.260 -0.3727 -1.6763  2.8662
  465WAT    EPW 2568   7.113   0.649   2.237  0.0374 -0.3136 -0.3583
  466WAT      O 2569   2.682   1.525   5.526  0.3248  0.8069  0.1362
  466WAT     H1 2570   2.738   1.466   5.558 -1.1042 -1.0269 -0.5536
  466WAT     H2 2571   2.734   1.589   5.499  1.8115  1.1332  3.2769
  466WAT    EPW 2572   2.698   1.525   5.527 -0.1659 -0.0444  0.3091
  467WAT      O 2573   1.437   1.482   4.931  0.1021  0.0001  0.1610
  467WAT     H1 2574   1.399   1.465   4.855  0.1114 -0.7740  0.3272
  467WAT     H2 2575   1.376   1.462   4.990  0.0407  0.7376  0.3580
  467WAT    EPW 2576   1.422   1.477   4.929  0.0296  0.2998 -0.2353
  468WAT      O 2577   6.624   4.725   1.450 -0.0484  0.0682 -0.1878
  468WAT     H1 2578   6.695   4.674   1.460 -1.1670 -1.2959  1.3988
  468WAT     H2 2579   6.641   4.793   1.502  0.3694  0.0767 -0.3266
  468WAT    EPW 2580   6.637   4.728   1.459 -0.6502  0.5545  0.3777
  469WAT      O 2581   5.843   5.179   3.732  0.3721  0.1226  0.2750
  469WAT     H1 2582   5.763   5.145   3.738  0.5875 -0.4945 -0.2452
  469WAT     H2 2583   5.880   5.157   3.807 -0.1295  0.9236  0.7747
  469WAT    EPW 2584   5.837   5.171   3.744  0.3868  0.0865  0.8569
  470WAT      O 2585   6.234   3.329   2.879  0.5098 -0.3375  0.1122
  470WAT     H1 2586   6.289   3.379   2.924 -1.5190  0.1388  2.2430
  470WAT     H2 2587   6.163   3.380   2.870  0.3560 -0.8733 -2.6509
  470WAT    EPW 2588   6.232   3.344   2.884 -0.2180 -0.4250  0.1186
  471WAT      O 2589   1.499   7.103   7.357 -0.1988 -0.4944  0.3027
  471WAT     H1 2590   1.428   7.120   7.405 -0.1755  0.7738 -0.0788
  471WAT     H2 2591   1.469   7.051   7.293 -0.6811 -0.3740  0.4326
  471WAT    EPW 2592   1.484   7.098   7.354 -0.2281  0.4686 -0.0842
  472WAT      O 2593   6.800   1.265   1.917 -0.6047 -0.0275 -0.3878
  472WAT     H1 2594   6.824   1.214   1.851  1.4898 -1.4682  1.3589
  472WAT     H2 2595   6.835   1.226   1.987  0.1135  3.1658  1.2122
  472WAT    EPW 2596   6.809   1.252   1.918 -0.4079 -0.1029  0.5342
  473WAT      O 2597   4.487   5.934   5.437 -0.0656 -0.1517  0.0732
  473WAT     H1 2598   4.504   5.853   5.408  0.3842  0.1359 -0.4893
  473WAT     H2 2599   4.547   5.983   5.396 -1.7846  0.8160 -1.4335
  473WAT    EPW 2600   4.498   5.929   5.426  0.0385  0.1504  0.0608
  474WAT      O 2601   5.297   5.191   3.651 -0.2521  0.3201  0.5225
  474WAT     H1 2602   5.318   5.235   3.723  0.6567  0.2936  0.2837
  474WAT     H2 2603   5.374   5.176   3.613 -0.7276  0.4421 -0.5201
  474WAT    EPW 2604   5.311   5.195   3.656 -0.4936  0.0467  0.0023
  475WAT      O 2605   0.223   7.233   0.346  0.1619  0.0288 -0.0755
  475WAT     H1 2606   0.172   7.265   0.409 -0.6007 -0.6000 -0.3558
  475WAT     H2 2607   0.219   7.293   0.283  0.5341  0.4254  0.2724
  475WAT    EPW 2608   0.215   7.247   0.346  0.3462 -0.3115 -0.4651
  476WAT      O 2609   2.355   7.269   1.472  0.2464  0.4576  0.3244
  476WAT     H1 2610   2.291   7.221   1.438  1.0475  0.6409 -1.5505
  476WAT     H2 2611   2.324   7.293   1.550 -2.0612  0.7307 -0.6087
  476WAT    EPW 2612   2.341   7.265   1.479 -0.1504  0.2361 -0.1514
  477WAT      O 2613   4.657   6.757   3.416 -0.1960  0.4606 -0.4884
  477WAT     H1 2614   4.680   6.808   3.350 -0.1085 -0.3075 -1.0688
  477WAT     H2 2615   4.622   6.687   3.377  0.3367 -0.2422  0.2410
  477WAT    EPW 2616   4.655   6.754   3.401 -0.2405 -0.4961 -0.0437
  478WAT      O 2617   7.638   6.296   1.498 -0.3124 -0.1966 -0.1042
  478WAT     H1 2618   7.558   6.290   1.463  0.2959  2.0183 -2.1826
  478WAT     H2 2619   7.675   6.219   1.479 -0.8608  0.0125 -2.2536
  478WAT    EPW 2620   7.632   6.284   1.490 -0.1418  1.0251 -0.4366
  479WAT      O 2621   4.344   2.441   5.484  0.7414 -0.2119  0.1690
  479WAT     H1 2622   4.374   2.436   5.402  3.0957  0.6760  0.8690
  479WAT     H2 2623   4.417   2.438   5.532 -0.5524 -0.4289  2.2283
  479WAT    EPW 2624   4.359   2.440   5.479 -0.1587  0.3059 -0.3810
  480WAT      O 2625   4.868   7.328   6.743 -0.2713 -0.4457  0.1783
  480WAT     H1 2626   4.809   7.383   6.777  1.6915  0.6124  2.2013
  480WAT     H2 2627   4.914   7.378   6.689 -2.5712 -1.8411 -3.4344
  480WAT    EPW 2628   4.866   7.343   6.740  0.3510 -0.1109  0.4029
  481WAT      O 2629   4.857   5.140   5.944  0.0357 -0.0168 -0.2796
  481WAT     H1 2630   4.920   5.187   5.908  0.6354 -0.6559 -0.1002
  481WAT     H2 2631   4.850   5.172   6.025 -0.0619  0.2352 -0.3879
  481WAT    EPW 2632   4.865   5.151   5.951 -0.1401 -0.4786 -0.4529
  482WAT      O 2633   4.879   1.933   3.108 -0.4458  0.6538 -0.1240
  482WAT     H1 2634   4.921   1.996   3.151 -0.7376  0.5744  0.2766
  482WAT     H2 2635   4.944   1.881   3.080 -0.3474 -0.8380  2.5660
  482WAT    EPW 2636   4.895   1.935   3.110 -0.2126  0.0151  0.4856
  483WAT      O 2637   8.024   4.962   1.874  0.0549 -0.5905  0.2708
  483WAT     H1 2638   8.046   4.899   1.818  1.3694 -0.5450  0.6943
  483WAT     H2 2639   8.077   5.028   1.852 -1.6370  0.5856 -0.4974
  483WAT    EPW 2640   8.035   4.962   1.863  0.5151  0.3100 -0.0551
  484WAT      O 2641   7.446   6.630   3.518  0.2762 -0.1632  0.2813
  484WAT     H1 2642   7.528   6.656   3.530  0.6044  0.1790 -2.1708
  484WAT     H2 2643   7.399   6.702   3.530  0.6142  0.2478 -0.7359
  484WAT    EPW 2644   7.451   6.644   3.522 -0.3101 -0.4084  0.2248
  485WAT      O 2645   3.112   7.152   0.458  0.1680 -0.2287  0.8733
  485WAT     H1 2646   3.029   7.141   0.483  0.9059 -0.8424  3.3656
  485WAT     H2 2647   3.124   7.091   0.397 -1.3235  0.1787  0.1376
  485WAT    EPW 2648   3.102   7.141   0.453 -0.1163  0.0060 -0.1993
  486WAT      O 2649   5.135   5.108   5.515 -0.6245 -0.8345  0.6019
  486WAT     H1 2650   5.119   5.062   5.588 -1.4415  0.2401  1.1299
  486WAT     H2 2651   5.127   5.049   5.451 -1.1827 -1.5187  1.2884
  486WAT    EPW 2652   5.132   5.092   5.516  0.7978  0.3800  0.8668
  487WAT      O 2653   5.795   0.374   4.450 -0.4435  0.4025 -0.1212
  487WAT     H1 2654   5.768   0.405   4.527 -1.3590  0.0131 -0.2844
  487WAT     H2 2655   5.726   0.332   4.419 -0.4409  1.4713 -1.6558
  487WAT    EPW 2656   5.781   0.373   4.457 -0.0440 -0.2459 -0.6028
  488WAT      O 2657   5.179   3.784   4.467  0.4132 -0.1271  0.2657
  488WAT     H1 2658   5.157   3.701   4.480 -0.6817  0.0660 -0.2395
  488WAT     H2 2659   5.123   3.828   4.518 -0.4583  0.3795 -1.0534
  488WAT    EPW 2660   5.167   3.778   4.476 -0.1744  0.3991  0.1881
  489WAT      O 2661   4.690   6.929   5.134  0.3036  0.0298 -0.6439
  489WAT     H1 2662   4.651   6.851   5.135 -0.4104  0.3600 -1.9706
  489WAT     H2 2663   4.765   6.914   5.178 -1.2030 -0.6172  1.9249
  489WAT    EPW 2664   4.695   6.915   5.141  0.0054  0.0801  0.2290
  490WAT      O 2665   7.734   4.812   3.136 -0.0526  0.1971  0.2608
  490WAT     H1 2666   7.675   4.750   3.156 -0.1186  0.2962  0.3744
  490WAT     H2 2667   7.794   4.768   3.091 -0.9059  0.3469 -1.0890
  490WAT    EPW 2668   7.734   4.796   3.132  0.4475  0.4062 -0.1115
  491WAT      O 2669   6.126   6.088   0.780 -0.0313  0.0471 -0.0319
  491WAT     H1 2670   6.202   6.106   0.820  0.1527 -2.0282  0.6416
  491WAT     H2 2671   6.093   6.167   0.764  2.7175  1.0661 -1.2924
  491WAT    EPW 2672   6.133   6.103   0.784 -0.0345  0.0155  0.5942
  492WAT      O 2673   5.240   6.282   3.766  0.1015 -0.1357 -0.5198
  492WAT     H1 2674   5.170   6.230   3.773  0.6912 -0.9331 -0.4220
  492WAT     H2 2675   5.220   6.335   3.700 -0.5967 -0.3459 -0.4852
  492WAT    EPW 2676   5.226   6.282   3.757 -0.1315  0.1739  0.4441
  493WAT      O 2677   4.385   6.276   6.386 -0.2509 -0.5018 -0.1480
  493WAT     H1 2678   4.469   6.259   6.371 -0.0980 -0.0112  0.1457
  493WAT     H2 2679   4.353   6.198   6.408  0.2776 -0.5715  0.4074
  493WAT    EPW 2680   4.393   6.262   6.387  0.2967 -0.0593 -0.3498
  494WAT      O 2681   5.462   7.793   5.612 -0.2441 -0.0581  0.3739
  494WAT     H1 2682   5.387   7.778   5.569 -0.8775  1.4215  0.8898
  494WAT     H2 2683   5.510   7.722   5.596 -1.9443 -1.2744  0.4207
  494WAT    EPW 2684   5.458   7.780   5.603 -0.4015  0.7136  0.3313
  495WAT      O 2685   6.667   5.212   3.527 -0.2477  0.3204 -0.1554
  495WAT     H1 2686   6.595   5.259   3.538 -0.5865 -0.1661 -0.2745
  495WAT     H2 2687   6.645   5.154   3.465  0.6416  0.9762 -1.1154
  495WAT    EPW 2688   6.653   5.210   3.519  0.4354  0.0251  0.2744
  496WAT      O 2689   3.380   1.070   2.729 -0.2821  0.0547 -0.1552
  496WAT     H1 2690   3.315   1.043   2.780  0.2423 -0.9654  0.0061
  496WAT     H2 2691   3.388   1.155   2.748 -2.3231  0.5087 -1.0473
  496WAT    EPW 2692   3.372   1.078   2.739 -0.1504  0.0658  0.4545
  497WAT      O 2693   2.678   6.375   0.783 -0.3071  0.3225 -0.0774
  497WAT     H1 2694   2.639   6.342   0.854 -1.5218 -0.7954 -1.1885
  497WAT     H2 2695   2.763   6.364   0.799 -0.5754 -0.4507  0.9466
  497WAT    EPW 2696   2.684   6.369   0.796 -0.1122 -0.2709  0.0771
  498WAT      O 2697   4.299   5.485   2.946 -1.1299 -0.0218 -0.8445
  498WAT     H1 2698   4.212   5.486   2.947 -1.1625  1.4060 -2.0076
  498WAT     H2 2699   4.320   5.451   3.023 -2.7065  1.1618  0.1701
  498WAT    EPW 2700   4.289   5.480   2.957  0.9217  0.4717 -0.5356
  499WAT      O 2701   4.283   3.092   7.212  0.0074 -0.2234  0.6212
  499WAT     H1 2702   4.322   3.033   7.160 -0.6304  0.4553 -0.6759
  499WAT     H2 2703   4.198   3.079   7.198 -0.1645  0.3859  1.0441
  499WAT    EPW 2704   4.276   3.081   7.202 -0.3958 -0.0396  0.1423
  500WAT      O 2705   0.477   5.992   1.493  0.1336 -0.4358 -0.1269
  500WAT     H1 2706   0.395   5.982   1.464 -1.2558  0.6836  2.9578
  500WAT     H2 2707   0.506   6.060   1.448 -1.6395  0.8124  0.4865
  500WAT    EPW 2708   0.469   6.000   1.482 -0.3074  0.3211 -0.2962
  501WAT      O 2709   3.963   7.344   4.634 -0.3745 -0.0289  0.1498
  501WAT     H1 2710   3.902   7.398   4.664  0.2481  0.1013  1.2398
  501WAT     H2 2711   4.031   7.359   4.686  1.1923  1.0593 -2.0059
  501WAT    EPW 2712   3.964   7.354   4.646 -0.2960 -0.0687  0.5151
  502WAT      O 2713   4.922   7.722   5.103 -0.5440 -0.1752  0.7016
  502WAT     H1 2714   5.005   7.700   5.085 -0.8623 -0.5998 -0.3336
  502WAT     H2 2715   4.927   7.808   5.119  0.1538 -0.2729  1.0407
  502WAT    EPW 2716   4.935   7.732   5.103 -1.0154  0.4876 -0.0873
  503WAT      O 2717   7.171   4.232   2.791  0.4249 -0.7710 -0.5738
  503WAT     H1 2718   7.131   4.264   2.862  1.3392  1.4435 -0.9809
  503WAT     H2 2719   7.238   4.188   2.824  0.3577 -0.4836 -0.0283
  503WAT    EPW 2720   7.175   4.231   2.806  0.4828  0.3678  0.5710
  504WAT      O 2721   2.684   2.029   6.800 -0.2904 -0.8443  0.2234
  504WAT     H1 2722   2.635   2.076   6.854  0.8457  1.0746 -0.3275
  504WAT     H2 2723   2.626   1.997   6.742 -1.1142 -0.2540  0.7031
  504WAT    EPW 2724   2.668   2.031   6.799  0.1001  0.5298  0.1431
  505WAT      O 2725   4.657   5.089   3.225  0.2040  0.0681  0.0193
  505WAT     H1 2726   4.585   5.066   3.182  1.1740 -0.8543 -1.1736
  505WAT     H2 2727   4.634   5.077   3.309 -1.4655  1.1849 -0.2187
  505WAT    EPW 2728   4.643   5.084   3.231  0.2152 -0.2602 -0.3060
  506WAT      O 2729   5.555   6.120   6.314 -0.1460  0.1249  0.1427
  506WAT     H1 2730   5.594   6.110   6.237  1.7324  1.4199  0.8421
  506WAT     H2 2731   5.610   6.083   6.371  0.0379  1.8110  1.1448
  506WAT    EPW 2732   5.569   6.113   6.311 -0.0869 -0.2115 -0.2171
  507WAT      O 2733   4.026   1.816   6.050 -0.0494  0.0406  0.8599
  507WAT     H1 2734   4.108   1.844   6.035 -0.1935 -0.1849 -0.5537
  507WAT     H2 2735   4.025   1.801   6.135  1.1069  0.9385  1.0651
  507WAT    EPW 2736   4.038   1.818   6.060  0.1982 -0.1883  0.3399
  508WAT      O 2737   3.910   5.413   0.218  0.6415 -0.8068  0.4758
  508WAT     H1 2738   3.950   5.411   0.141  2.6040 -0.2315  1.4248
  508WAT     H2 2739   3.974   5.397   0.275 -0.7138 -1.0154  2.0193
  508WAT    EPW 2740   3.925   5.410   0.215 -0.1939  0.2046 -0.2253
  509WAT      O 2741   0.780   3.016   1.047 -0.2127 -0.7302  0.3785
  509WAT     H1 2742   0.775   2.955   1.109  0.1309 -0.4760  0.6625
  509WAT     H2 2743   0.856   2.999   1.007  0.9827  0.7776  1.8434
  509WAT    EPW 2744   0.791   3.004   1.050  0.4176 -0.1535 -0.2517
  510WAT      O 2745   5.941   1.044   1.049 -0.3489  0.2359 -0.0947
  510WAT     H1 2746   6.015   1.001   1.033 -0.7204 -0.9627  1.2404
  510WAT     H2 2747   5.960   1.093   1.119 -0.9207 -0.4363  0.5521
  510WAT    EPW 2748   5.955   1.045   1.057 -0.5832 -0.5529  0.5727
  511WAT      O 2749   4.915   0.580   1.254  0.2103  0.2515 -0.4750
  511WAT     H1 2750   4.964   0.516   1.287 -1.0782 -0.8551 -0.6169
  511WAT     H2 2751   4.970   0.647   1.246  1.7308 -0.9959 -0.7987
  511WAT    EPW 2752   4.930   0.581   1.258  0.1324  0.1284 -0.0606
  512WAT      O 2753   2.404   0.123   7.598  0.2043  0.6551  0.2626
  512WAT     H1 2754   2.423   0.052   7.644  3.0149  1.4158  0.5011
  512WAT     H2 2755   2.375   0.091   7.522  2.5445 -0.8672 -0.1101
  512WAT    EPW 2756   2.403   0.108   7.594 -0.1140 -0.3436  0.0237
  513WAT      O 2757   5.089   4.367   4.128  0.3785  0.3246  0.0906
  513WAT     H1 2758   5.061   4.347   4.208  1.8932  0.6244  0.7253
  513WAT     H2 2759   5.030   4.424   4.099 -1.5317 -1.5410  0.0099
  513WAT    EPW 2760   5.076   4.372   4.135  0.5661  0.6910 -0.0401
  514WAT      O 2761   3.890   5.749   5.486 -0.1519  0.5424 -0.1551
  514WAT     H1 2762   3.900   5.691   5.551  1.6389 -1.2522 -1.8801
  514WAT     H2 2763   3.966   5.791   5.484 -0.7939  1.7342 -0.0933
  514WAT    EPW 2764   3.903   5.746   5.496  1.0959  0.4971  0.1565
  515WAT      O 2765   7.010   6.809   0.761 -0.0784 -0.2032  0.4094
  515WAT     H1 2766   7.053   6.877   0.728 -0.1917 -0.6577 -0.7222
  515WAT     H2 2767   7.061   6.782   0.827 -0.1132  1.0550  0.9990
  515WAT    EPW 2768   7.024   6.815   0.766 -0.1491  0.1495 -1.6589
  516WAT      O 2769   3.080   4.260   7.673 -0.5233 -0.3566  0.1463
  516WAT     H1 2770   3.072   4.324   7.731  0.7446  0.2365 -0.2866
  516WAT     H2 2771   3.166   4.255   7.659 -0.5510 -2.2818  0.2819
  516WAT    EPW 2772   3.092   4.268   7.679  0.1189 -0.0785  0.5369
  517WAT      O 2773   7.313   5.590   0.660 -0.2789  0.1262  0.0405
  517WAT     H1 2774   7.386   5.579   0.706  0.3679 -1.9644 -1.3690
  517WAT     H2 2775   7.307   5.677   0.653  2.5513  0.3738 -0.4946
  517WAT    EPW 2776   7.323   5.601   0.666 -0.7290  0.2085 -0.3235
  518WAT      O 2777   3.675   3.893   6.177  0.0630 -0.1716  0.0463
  518WAT     H1 2778   3.677   3.816   6.219  1.1203  0.7619  1.8195
  518WAT     H2 2779   3.754   3.927   6.193 -0.5403  1.4888 -0.3115
  518WAT    EPW 2780   3.687   3.887   6.186  0.0506  0.5465 -0.0348
  519WAT      O 2781   7.987   0.403   1.081  0.5939  0.2282  0.0918
  519WAT     H1 2782   8.007   0.355   1.011  0.9407 -0.9956  0.9890
  519WAT     H2 2783   7.913   0.443   1.058  0.2526 -0.8004 -0.6893
  519WAT    EPW 2784   7.979   0.402   1.068  0.3819  0.9222  0.0282
  520WAT      O 2785   6.378   7.443   3.995  0.0676 -1.0394  0.2161
  520WAT     H1 2786   6.394   7.465   3.912 -0.5064 -1.4501 -0.0091
  520WAT     H2 2787   6.336   7.513   4.026  1.0168 -0.5357  0.4134
  520WAT    EPW 2788   6.374   7.457   3.987  0.1220 -0.4060  0.4476
  521WAT      O 2789   4.569   6.414   1.639  0.2773 -0.1380 -0.1460
  521WAT     H1 2790   4.506   6.406   1.580 -0.4388  0.5042  0.5101
  521WAT     H2 2791   4.527   6.412   1.715  1.2410 -1.4885  0.3767
  521WAT    EPW 2792   4.553   6.413   1.642 -0.5216  0.4596 -0.2169
  522WAT      O 2793   5.846   2.626   6.540  0.3725 -0.0980  0.1440
  522WAT     H1 2794   5.916   2.604   6.494  0.5435 -0.8556  0.7432
  522WAT     H2 2795   5.868   2.607   6.622 -0.0507  0.8934  0.5116
  522WAT    EPW 2796   5.860   2.620   6.546 -0.2575  0.3317 -0.4005
  523WAT      O 2797   6.852   0.719   2.718  0.6545 -0.0384  0.2193
  523WAT     H1 2798   6.885   0.761   2.649 -1.5045  1.7660  0.1789
  523WAT     H2 2799   6.851   0.780   2.780 -3.4005  0.4380 -0.0639
  523WAT    EPW 2800   6.857   0.734   2.717  0.7042  0.5732 -0.0304
  524WAT      O 2801   4.233   7.321   2.749 -0.4690  0.5224  0.2423
  524WAT     H1 2802   4.148   7.312   2.767 -0.3603 -1.3882  0.0512
  524WAT     H2 2803   4.272   7.280   2.815  0.2824  0.7957 -0.0226
  524WAT    EPW 2804   4.226   7.313   2.762  0.4151  0.1282 -0.3504
  525WAT      O 2805   6.711   5.273   2.323 -0.4901  0.4145 -0.0446
  525WAT     H1 2806   6.663   5.342   2.299 -2.0338 -0.9089 -0.9711
  525WAT     H2 2807   6.699   5.216   2.258 -0.0614 -1.1024  1.1375
  525WAT    EPW 2808   6.702   5.275   2.310  0.9703  0.4085 -0.0613
  526WAT      O 2809   3.632   7.554   5.702  0.0836  0.2256 -0.1192
  526WAT     H1 2810   3.686   7.553   5.634  2.7390 -1.6422  1.8272
  526WAT     H2 2811   3.571   7.494   5.680  1.1213 -0.6523 -0.7102
  526WAT    EPW 2812   3.631   7.545   5.688 -0.5901  0.0476 -0.3980
  527WAT      O 2813   4.927   7.374   6.338  0.4926 -0.1774  0.1051
  527WAT     H1 2814   4.977   7.309   6.370 -0.6909 -0.9111  0.5186
  527WAT     H2 2815   4.940   7.439   6.395  2.6290  0.4316 -0.9651
  527WAT    EPW 2816   4.937   7.374   6.351 -0.4223  0.5122 -0.6037
  528WAT      O 2817   6.085   1.447   3.273  0.2156 -0.4672  0.5256
  528WAT     H1 2818   6.018   1.459   3.219  2.0991  0.2032 -1.8090
  528WAT     H2 2819   6.114   1.367   3.254  0.1951 -0.7010  1.4230
  528WAT    EPW 2820   6.080   1.437   3.263 -0.4379  0.0826 -0.2187
  529WAT      O 2821   6.151   4.219   5.055  0.5562 -0.0614 -0.7282
  529WAT     H1 2822   6.221   4.167   5.049 -0.5962 -1.9416  0.9774
  529WAT     H2 2823   6.146   4.237   5.140 -0.0564  1.5451 -1.0678
  529WAT    EPW 2824   6.161   4.214   5.066 -0.3304 -0.0117 -0.3770
  530WAT      O 2825   4.078   3.731   2.119  0.0479  0.1555  0.0979
  530WAT     H1 2826   4.085   3.707   2.035 -0.5980  0.6639 -0.1097
  530WAT     H2 2827   4.042   3.810   2.114 -0.1292  0.1255  0.8655
  530WAT    EPW 2828   4.074   3.739   2.106 -0.1166 -0.0321 -0.4567
  531WAT      O 2829   3.909   1.154   7.190 -0.1413  0.1202 -0.8797
  531WAT     H1 2830   3.914   1.216   7.128 -1.4805 -1.4073 -2.6529
  531WAT     H2 2831   3.905   1.080   7.144 -0.1197 -1.1868  1.1101
  531WAT    EPW 2832   3.909   1.152   7.174 -0.2574 -0.1207  0.1618
  532WAT      O 2833   0.986   8.001   1.314  0.0439 -0.2413  0.4421
  532WAT     H1 2834   1.052   8.054   1.291  0.1341 -0.6997 -0.3929
  532WAT     H2 2835   0.952   8.040   1.384  0.7976  0.3434  0.4962
  532WAT    EPW 2836   0.991   8.015   1.321  0.2764 -0.1766  0.0596
  533WAT      O 2837   6.473   6.453   1.828 -0.2446 -0.3279 -0.2949
  533WAT     H1 2838   6.424   6.457   1.756 -1.1820 -0.2056  0.3301
  533WAT     H2 2839   6.516   6.529   1.827  1.0164 -0.9990 -1.5618
  533WAT    EPW 2840   6.472   6.465   1.817 -0.2703  0.1671  0.0704
  534WAT      O 2841   4.993   5.057   3.007 -0.8309 -0.2193 -0.4810
  534WAT     H1 2842   4.992   4.977   3.040  0.4357 -0.1477 -0.2209
  534WAT     H2 2843   5.077   5.070   2.988 -0.8436  1.4011  0.3984
  534WAT    EPW 2844   5.005   5.047   3.009 -0.2285  0.3678  0.2812
  535WAT      O 2845   2.592   0.739   3.524  0.6944  0.0103 -0.2350
  535WAT     H1 2846   2.512   0.758   3.494 -0.1022 -2.0138  0.4297
  535WAT     H2 2847   2.578   0.712   3.605  1.7480 -2.3545 -0.7663
  535WAT    EPW 2848   2.578   0.738   3.531 -0.5097  0.1553  0.0095
  536WAT      O 2849   4.616   0.136   7.064  0.4078  0.1388  0.2285
  536WAT     H1 2850   4.550   0.080   7.053  1.4286 -0.7438 -1.9968
  536WAT     H2 2851   4.587   0.190   7.126 -1.5806 -1.3987  0.7350
  536WAT    EPW 2852   4.602   0.136   7.072 -0.7211  0.1618 -0.0563
  537WAT      O 2853   6.573   4.333   3.965  0.5713 -0.5771 -0.2966
  537WAT     H1 2854   6.568   4.376   3.890 -0.0555  0.2328  0.1855
  537WAT     H2 2855   6.489   4.326   3.990  0.8233  0.2639  0.9040
  537WAT    EPW 2856   6.560   4.339   3.958 -0.1803  0.2468  0.0269
  538WAT      O 2857   6.367   6.915   0.802  0.5863 -0.2999 -0.6099
  538WAT     H1 2858   6.411   6.981   0.838  0.5044 -0.0265 -1.0084
  538WAT     H2 2859   6.357   6.940   0.719  2.6230 -1.8260 -1.3973
  538WAT    EPW 2860   6.372   6.928   0.795 -0.2183  0.3695  0.2001
  539WAT      O 2861   5.980   0.061   7.304 -0.1280  0.8781 -0.4296
  539WAT     H1 2862   5.919   0.002   7.322  0.2374  1.0298  1.5123
  539WAT     H2 2863   6.023   0.026   7.237  0.2892 -1.2330  0.8653
  539WAT    EPW 2864   5.977   0.047   7.297  0.6825 -0.0562 -0.4068
  540WAT      O 2865   4.602   5.211   3.699  0.5374 -0.1815  0.1653
  540WAT     H1 2866   4.600   5.142   3.645  2.4001  0.1777 -0.4289
  540WAT     H2 2867   4.621   5.176   3.776 -1.6847 -0.6462  0.5642
  540WAT    EPW 2868   4.605   5.196   3.702 -0.0891 -0.1001 -0.1760
  541WAT      O 2869   3.826   7.235   4.099 -0.6922 -0.6664  0.1060
  541WAT     H1 2870   3.882   7.176   4.066 -0.1825 -1.0878  1.6456
  541WAT     H2 2871   3.878   7.289   4.144 -1.2681  0.4101 -0.4796
  541WAT    EPW 2872   3.842   7.234   4.101  0.2718  0.3284 -0.0259
  542WAT      O 2873   5.652   6.185   2.139  0.1363  0.2208 -0.2829
  542WAT     H1 2874   5.596   6.249   2.122  1.0825  1.5263  1.2962
  542WAT     H2 2875   5.692   6.210   2.212 -0.1607 -2.6431  1.0223
  542WAT    EPW 2876   5.650   6.198   2.147  0.8243  0.0368  0.2609
  543WAT      O 2877   0.973   7.814   2.576  0.2985 -0.3138 -0.3776
  543WAT     H1 2878   0.907   7.828   2.632  0.3181 -1.2347 -0.1095
  543WAT     H2 2879   0.934   7.786   2.504  0.1494  2.2728 -1.3879
  543WAT    EPW 2880   0.958   7.812   2.574 -0.5931  0.1971 -0.1234
  544WAT      O 2881   7.108   7.990   2.494 -0.2566 -1.3357  0.1065
  544WAT     H1 2882   7.186   8.028   2.493 -0.0947 -1.6284 -1.7341
  544WAT     H2 2883   7.119   7.919   2.444 -1.4672 -1.8891  0.5726
  544WAT    EPW 2884   7.121   7.985   2.486  0.1852  0.4901  0.1419
  545WAT      O 2885   2.308   3.076   4.775 -0.4943 -0.1048  0.2108
  545WAT     H1 2886   2.323   3.106   4.695 -2.0224  2.0254  0.6317
  545WAT     H2 2887   2.222   3.067   4.778 -0.6883  1.5894  2.1048
  545WAT    EPW 2888   2.298   3.079   4.764  0.1756 -0.5725  0.0062
  546WAT      O 2889   7.435   6.325   1.023  0.3214  0.2835  0.3949
  546WAT     H1 2890   7.517   6.303   1.002  0.1545 -1.1226  1.0920
  546WAT     H2 2891   7.434   6.411   1.014  2.0966  0.4200  1.1098
  546WAT    EPW 2892   7.447   6.334   1.018 -0.3753  0.1510 -0.2734
  547WAT      O 2893   7.313   2.687   2.091 -0.5334  0.2723  0.1580
  547WAT     H1 2894   7.310   2.774   2.086 -0.7408  0.4027  1.8937
  547WAT     H2 2895   7.271   2.670   2.165 -2.2159 -1.4694 -1.1157
  547WAT    EPW 2896   7.306   2.698   2.101  0.3023  0.0987 -0.6800
  548WAT      O 2897   3.385   2.108   0.228  0.8786 -0.0039 -0.4238
  548WAT     H1 2898   3.402   2.181   0.184  0.4431  0.8237  0.7129
  548WAT     H2 2899   3.302   2.118   0.254  1.4926  0.2062  1.7021
  548WAT    EPW 2900   3.375   2.120   0.226 -0.0363 -0.3623 -0.2735
  549WAT      O 2901   4.535   5.492   6.410 -0.4697  0.2635  0.1399
  549WAT     H1 2902   4.458   5.526   6.431 -0.0457  1.0201  0.5096
  549WAT     H2 2903   4.528   5.408   6.433 -0.8054  0.5624  1.1563
  549WAT    EPW 2904   4.522   5.485   6.416 -0.0296 -0.1145  0.3589
  550WAT      O 2905   0.878   0.829   3.697  0.2956 -0.0530  0.1554
  550WAT     H1 2906   0.849   0.794   3.771  0.3791  0.0507  0.2366
  550WAT     H2 2907   0.896   0.912   3.717 -2.2781  0.7845 -0.6520
  550WAT    EPW 2908   0.876   0.836   3.711  0.2007 -0.2714 -0.5048
  551WAT      O 2909   4.682   5.950   4.051  0.6193  0.2103  0.3863
  551WAT     H1 2910   4.682   5.952   4.138 -0.7456 -1.5954  0.4938
  551WAT     H2 2911   4.603   5.981   4.029  0.7842  0.2523 -0.1732
  551WAT    EPW 2912   4.670   5.955   4.060  0.0552  0.4366 -0.9521
  552WAT      O 2913   7.577   0.708   4.482  0.3543  0.1744 -0.5076
  552WAT     H1 2914   7.568   0.779   4.532  1.6844  1.0432 -1.4247
  552WAT     H2 2915   7.519   0.652   4.515  1.8222  0.2888  2.6807
  552WAT    EPW 2916   7.567   0.710   4.495 -0.2618 -0.3354  0.7079
  553WAT      O 2917   5.907   4.271   3.148  0.2359 -0.2270 -0.2338
  553WAT     H1 2918   5.873   4.213   3.204 -0.5302 -0.1611 -0.6099
  553WAT     H2 2919   5.982   4.234   3.123  0.2944 -0.5338  0.3800
  553WAT    EPW 2920   5.913   4.257   3.153  0.3119 -0.4277 -0.1000
  554WAT      O 2921   4.572   4.309   3.744 -0.5636 -0.0719 -0.3604
  554WAT     H1 2922   4.537   4.241   3.702 -2.2884  0.5515 -0.0080
  554WAT     H2 2923   4.519   4.375   3.723  1.7873  1.5190 -1.7679
  554WAT    EPW 2924   4.559   4.309   3.735  0.2593 -0.2427  0.0616
  555WAT      O 2925   4.832   7.744   1.886  0.1647  0.0517  0.0297
  555WAT     H1 2926   4.873   7.746   1.809  1.7308 -0.6785  0.7976
  555WAT     H2 2927   4.875   7.804   1.933 -1.2799  1.0641  0.1426
  555WAT    EPW 2928   4.844   7.753   1.882 -0.3711  0.8328  0.0293
  556WAT      O 2929   0.340   4.743   1.696 -0.1896  0.5689  0.0053
  556WAT     H1 2930   0.368   4.704   1.623 -1.6062  2.0311 -1.4067
  556WAT     H2 2931   0.258   4.716   1.704  0.1978 -0.2561  1.6125
  556WAT    EPW 2932   0.332   4.734   1.686 -0.2617  0.0788 -0.4339
  557WAT      O 2933   4.398   5.180   2.894  0.4076 -0.2187 -0.1721
  557WAT     H1 2934   4.361   5.215   2.823  1.5532 -1.7010 -1.5667
  557WAT     H2 2935   4.368   5.230   2.959 -0.8908  1.0389 -1.6460
  557WAT    EPW 2936   4.388   5.193   2.893 -0.1661  0.3629  0.1918
  558WAT      O 2937   6.248   3.638   3.198 -0.2839 -0.1311  0.0903
  558WAT     H1 2938   6.179   3.613   3.152 -1.2681 -1.3095  2.0912
  558WAT     H2 2939   6.244   3.589   3.270  2.3751  0.1177  0.5015
  558WAT    EPW 2940   6.237   3.627   3.202 -0.1256  0.1044  0.3810
  559WAT      O 2941   6.390   7.427   3.096  0.2246  0.5027  0.0708
  559WAT     H1 2942   6.430   7.405   3.170  0.2440  0.9575  0.1983
  559WAT     H2 2943   6.409   7.361   3.042  0.3334  0.2434  0.4254
  559WAT    EPW 2944   6.399   7.414   3.099  0.0910  0.3149 -0.0787
  560WAT      O 2945   7.990   7.052   1.541 -0.6419  0.5914 -0.2438
  560WAT     H1 2946   7.950   7.008   1.476  0.1280 -0.0929 -0.2669
  560WAT     H2 2947   7.952   7.020   1.612 -1.0111  0.8496 -0.3220
  560WAT    EPW 2948   7.978   7.041   1.542  0.3962 -0.4686  0.0827
  561WAT      O 2949   4.121   2.025   6.368  0.2968 -0.0492 -0.1114
  561WAT     H1 2950   4.168   2.058   6.303 -0.6683  1.7872  0.0437
  561WAT     H2 2951   4.039   2.046   6.347 -0.1525 -0.5193  1.0764
  561WAT    EPW 2952   4.116   2.033   6.355  0.2861 -0.0827 -0.0021
  562WAT      O 2953   6.692   7.689   3.461  0.6380 -0.2836 -0.1016
  562WAT     H1 2954   6.680   7.726   3.539 -1.6040 -0.0771 -0.4748
  562WAT     H2 2955   6.713   7.757   3.410  0.8321 -0.2052  0.0836
  562WAT    EPW 2956   6.693   7.705   3.465  0.5186  0.5651  0.1411
  563WAT      O 2957   3.884   0.856   0.813  0.0635  0.6712 -0.1650
  563WAT     H1 2958   3.856   0.777   0.789  1.5274 -0.0984  0.5007
  563WAT     H2 2959   3.863   0.859   0.898  2.1209 -0.0425  0.4185
  563WAT    EPW 2960   3.877   0.844   0.822  0.0461  0.0338  0.1757
  564WAT      O 2961   5.188   6.423   5.458 -0.4261 -0.0507 -0.2579
  564WAT     H1 2962   5.247   6.402   5.518 -1.1764 -0.8055  0.2446
  564WAT     H2 2963   5.204   6.367   5.393  1.0651  1.4473 -1.2616
  564WAT    EPW 2964   5.199   6.412   5.457  0.1184 -0.2738  0.8623
  565WAT      O 2965   4.461   5.441   4.438 -0.0581 -0.0907  0.5190
  565WAT     H1 2966   4.434   5.371   4.393  3.7676 -0.4912 -1.5770
  565WAT     H2 2967   4.505   5.406   4.505  1.0030  0.2892  0.0390
  565WAT    EPW 2968   4.464   5.425   4.441  0.0047 -0.2710  0.1539
  566WAT      O 2969   2.322   7.637   1.026 -0.1411 -0.2104  0.5174
  566WAT     H1 2970   2.397   7.678   1.041 -0.4015  1.0626 -1.2593
  566WAT     H2 2971   2.275   7.696   0.982 -0.9884 -1.9807 -1.1261
  566WAT    EPW 2972   2.326   7.651   1.022 -0.1638  0.2963 -0.1839
  567WAT      O 2973   5.980   5.537   7.132  0.5759  0.3152  0.2701
  567WAT     H1 2974   6.035   5.568   7.072 -0.4910  1.2333 -0.2617
  567WAT     H2 2975   5.969   5.454   7.108  0.9811  0.3836 -0.1760
  567WAT    EPW 2976   5.986   5.529   7.119 -0.1755  0.0737  0.1603
  568WAT      O 2977   5.311   6.310   5.229  0.1890  0.5657 -0.1367
  568WAT     H1 2978   5.382   6.362   5.231  0.2302  0.5047  0.2323
  568WAT     H2 2979   5.339   6.236   5.266  0.1680  0.2278 -0.7917
  568WAT    EPW 2980   5.326   6.307   5.235 -0.2118  0.3220  0.1642
  569WAT      O 2981   1.010   1.152   2.375 -0.5070 -0.1629 -0.2338
  569WAT     H1 2982   0.933   1.130   2.340 -2.0992  1.8453  1.6715
  569WAT     H2 2983   0.996   1.144   2.461  1.7694 -0.6371  0.1614
  569WAT    EPW 2984   0.997   1.148   2.382  0.4080  0.6484  0.2774
  570WAT      O 2985   6.762   1.199   4.905 -0.1428 -0.5688  0.4775
  570WAT     H1 2986   6.816   1.133   4.924 -1.0829 -1.7382 -0.7170
  570WAT     H2 2987   6.794   1.266   4.952  1.9044 -1.3858  0.3481
  570WAT    EPW 2988   6.774   1.199   4.915  0.3664 -0.3451  0.3676
  571WAT      O 2989   4.738   7.183   2.673 -0.1959 -0.2968  0.3679
  571WAT     H1 2990   4.816   7.181   2.712  0.1539 -1.4766 -0.3203
  571WAT     H2 2991   4.699   7.253   2.707  1.0392  0.1287  0.9660
  571WAT    EPW 2992   4.744   7.193   2.684 -0.2374 -1.1863  0.8540
  572WAT      O 2993   5.132   7.860   7.385 -0.0629 -0.2564  0.0472
  572WAT     H1 2994   5.134   7.814   7.311 -0.3838  1.6594 -1.2321
  572WAT     H2 2995   5.214   7.888   7.395 -0.1812  0.1316 -0.0366
  572WAT    EPW 2996   5.144   7.857   7.376 -0.2737  0.4689 -0.1808
  573WAT      O 2997   1.102   2.415   0.462 -0.0628 -0.5752 -0.1124
  573WAT     H1 2998   1.150   2.477   0.501  1.6274 -2.0985  0.3637
  573WAT     H2 2999   1.049   2.388   0.526 -1.7538  1.1890 -0.6699
  573WAT    EPW 3000   1.101   2.420   0.477  0.5579 -0.3796  0.3028
  574WAT      O 3001   5.054   3.608   5.540 -0.3628  0.0189  0.1290
  574WAT     H1 3002   5.057   3.695   5.550  1.3111  0.0058  0.1056
  574WAT     H2 3003   5.088   3.578   5.614  0.9030 -0.5182 -0.6333
  574WAT    EPW 3004   5.060   3.616   5.552 -0.5955  0.2154  0.0793
  575WAT      O 3005   5.699   7.042   5.400  0.5525 -0.0296  0.0496
  575WAT     H1 3006   5.718   7.108   5.348 -0.9136 -0.4349 -1.0655
  575WAT     H2 3007   5.680   6.977   5.345 -0.5314 -0.6221  1.0607
  575WAT    EPW 3008   5.699   7.042   5.384 -0.9077  0.2882  0.0247
  576WAT      O 3009   6.235   4.568   4.677  0.5570  0.0145  0.8889
  576WAT     H1 3010   6.304   4.616   4.702  1.1616  0.2257 -1.0504
  576WAT     H2 3011   6.200   4.615   4.612 -0.1223 -1.1322  0.4000
  576WAT    EPW 3012   6.240   4.582   4.671  0.2270  0.1717 -0.4955
  577WAT      O 3013   2.521   3.377   2.584 -0.3544 -0.1318  0.6338
  577WAT     H1 3014   2.457   3.400   2.638 -1.1137 -0.6037 -0.0584
  577WAT     H2 3015   2.482   3.325   2.526  1.0163 -2.0926  1.3746
  577WAT    EPW 3016   2.506   3.373   2.584 -0.2846 -0.6658  0.3250
  578WAT      O 3017   3.910   7.718   4.245  0.0906 -0.0133 -0.1260
  578WAT     H1 3018   3.895   7.760   4.320 -0.3009 -1.1223  0.4336
  578WAT     H2 3019   3.860   7.761   4.188 -0.6598  0.0058  0.5269
  578WAT    EPW 3020   3.900   7.731   4.248 -0.6918  0.8182  0.6631
  579WAT      O 3021   4.025   1.334   6.020 -0.0998 -0.0130 -0.3007
  579WAT     H1 3022   3.966   1.296   6.072 -0.2008  0.6584  0.0856
  579WAT     H2 3023   3.983   1.343   5.944  0.5731 -2.4907 -1.0389
  579WAT    EPW 3024   4.010   1.330   6.016 -0.1825 -0.6974 -0.6098
  580WAT      O 3025   1.777   5.966   1.982  0.0196  0.3204 -0.4139
  580WAT     H1 3026   1.734   5.893   2.000  0.7080  0.2347  1.0604
  580WAT     H2 3027   1.857   5.952   2.015 -0.0110  1.9250  0.4594
  580WAT    EPW 3028   1.783   5.953   1.990  0.4710 -0.3311  0.0343
  581WAT      O 3029   5.830   3.978   0.819 -0.2040  0.1754  0.4498
  581WAT     H1 3030   5.851   3.912   0.872 -0.2669  0.3048  0.6369
  581WAT     H2 3031   5.824   3.940   0.741  1.0368  0.1908  0.3312
  581WAT    EPW 3032   5.832   3.963   0.815  0.1865  0.3648 -0.5793
  582WAT      O 3033   5.418   4.829   2.239  0.5592  0.0866  0.3349
  582WAT     H1 3034   5.397   4.913   2.233  0.5105  0.0512  0.0156
  582WAT     H2 3035   5.350   4.794   2.282 -0.3027 -0.1153 -1.1190
  582WAT    EPW 3036   5.405   4.836   2.244 -0.3432  0.0552  0.7339
  583WAT      O 3037   5.378   0.118   5.040  0.6485  0.2779  0.4878
  583WAT     H1 3038   5.367   0.058   5.101  1.4541  0.1612  0.5311
  583WAT     H2 3039   5.330   0.185   5.067 -1.4365 -0.8152 -0.2782
  583WAT    EPW 3040   5.370   0.119   5.053 -0.2810 -0.5170  0.6597
  584WAT      O 3041   6.713   0.013   4.824 -0.0065 -0.1438  0.4986
  584WAT     H1 3042   6.749  -0.004   4.746 -0.9934  0.9798 -0.2545
  584WAT     H2 3043   6.770   0.068   4.861 -0.4893  0.9773 -0.3429
  584WAT    EPW 3044   6.727   0.019   4.818 -0.0705 -0.2156  0.1382
  585WAT      O 3045   1.499   3.033   3.485  0.0348 -0.3949 -0.0580
  585WAT     H1 3046   1.515   3.100   3.538  0.1032  0.6146 -1.2958
  585WAT     H2 3047   1.499   3.070   3.406  2.0750 -2.1555 -0.9845
  585WAT    EPW 3048   1.501   3.048   3.481  0.1817  1.0881  0.6247
  586WAT      O 3049   5.716   6.148   7.773  0.3875  0.0933  0.7152
  586WAT     H1 3050   5.764   6.196   7.828  0.8642 -0.5479  0.8743
  586WAT     H2 3051   5.686   6.206   7.716  0.0483  0.7423  1.5378
  586WAT    EPW 3052   5.719   6.163   7.773  0.2422  0.3220  0.0970
  587WAT      O 3053   6.455   7.765   5.048  0.0397 -0.5178  0.1233
  587WAT     H1 3054   6.523   7.802   5.088 -0.2750  1.2205 -0.8886
  587WAT     H2 3055   6.389   7.819   5.065 -0.6320 -1.0573 -0.6881
  587WAT    EPW 3056   6.455   7.778   5.056 -0.0109  0.1533  0.0701
  588WAT      O 3057   0.835   4.904   2.598  0.3383 -0.0827  0.1114
  588WAT     H1 3058   0.783   4.851   2.553 -0.5903  0.0656  0.9595
  588WAT     H2 3059   0.825   4.877   2.680  2.0556 -0.4082  0.2305
  588WAT    EPW 3060   0.826   4.892   2.604  0.7819  0.9188  0.2075
  589WAT      O 3061   7.408   4.495   0.537 -0.2887 -0.4083 -0.2067
  589WAT     H1 3062   7.488   4.519   0.513  0.0981 -1.7158 -0.3317
  589WAT     H2 3063   7.387   4.552   0.599  0.6441  0.0994 -0.3407
  589WAT    EPW 3064   7.417   4.507   0.543  0.0866 -0.1646 -0.2543
  590WAT      O 3065   7.226   6.796   3.839 -0.1017 -0.3052  0.0092
  590WAT     H1 3066   7.223   6.722   3.793  2.2238 -0.4631  0.0155
  590WAT     H2 3067   7.202   6.857   3.781  1.3235 -0.6844 -1.0302
  590WAT    EPW 3068   7.222   6.794   3.824 -0.1231 -0.4985  0.4457
  591WAT      O 3069   6.180   1.582   4.636 -0.5595 -0.1055 -0.3743
  591WAT     H1 3070   6.121   1.582   4.571  0.4741 -0.3613 -1.3452
  591WAT     H2 3071   6.237   1.644   4.612 -0.2802 -0.0402  0.4179
  591WAT    EPW 3072   6.180   1.591   4.623  0.2763  0.2671  0.5339
  592WAT      O 3073   5.611   3.955   3.497 -0.4581 -0.5528 -0.1811
  592WAT     H1 3074   5.693   3.965   3.524 -0.6717  0.5181  0.1272
  592WAT     H2 3075   5.564   3.964   3.570 -0.9119  0.1002 -0.5401
  592WAT    EPW 3076   5.616   3.958   3.512 -0.4925 -0.4075 -0.2970
  593WAT      O 3077   0.205   6.134   1.158  0.3377  0.2176 -0.1521
  593WAT     H1 3078   0.148   6.157   1.219  0.6969 -3.1790  1.7205
  593WAT     H2 3079   0.155   6.121   1.087 -0.2319  3.1750 -0.4047
  593WAT    EPW 3080   0.189   6.135   1.156 -0.1350  0.3571 -0.4649
  594WAT      O 3081   1.695   5.872   0.384 -0.0390 -0.1290 -0.1918
  594WAT     H1 3082   1.751   5.875   0.451  0.0970  0.1600 -0.3197
  594WAT     H2 3083   1.629   5.825   0.416 -0.2157  0.4545  0.3301
  594WAT    EPW 3084   1.694   5.865   0.399  0.2435 -0.5968  0.1956
  595WAT      O 3085  -0.018   4.172   3.979 -0.4596  0.1720  0.3687
  595WAT     H1 3086   0.022   4.223   4.037  0.2583 -1.2185  1.1569
  595WAT     H2 3087   0.030   4.180   3.907  0.2256 -0.1225  0.7824
  595WAT    EPW 3088  -0.005   4.180   3.977  0.5572  0.1883  0.3383
  596WAT      O 3089   4.292   0.674   4.484  0.2246  0.2391 -0.1945
  596WAT     H1 3090   4.214   0.707   4.462 -0.8905 -2.3967 -0.5377
  596WAT     H2 3091   4.301   0.605   4.432  1.7942 -0.7885  1.3118
  596WAT    EPW 3092   4.282   0.669   4.473 -0.0451 -0.3469  0.1968
  597WAT      O 3093   1.656   4.570   5.992 -0.0097 -0.2976  0.5178
  597WAT     H1 3094   1.730   4.523   5.992  0.4804  0.4196  1.5096
  597WAT     H2 3095   1.607   4.532   5.931  1.4515 -0.3545 -0.6610
  597WAT    EPW 3096   1.660   4.558   5.983 -0.3986  0.3298 -0.0950
  598WAT      O 3097   7.191   0.296   2.217  0.3349  0.1987  0.2815
  598WAT     H1 3098   7.142   0.224   2.211 -0.4733  0.7650 -0.1526
  598WAT     H2 3099   7.201   0.306   2.303  1.1223 -0.8493  0.3400
  598WAT    EPW 3100   7.185   0.287   2.229 -0.0671  0.0107  1.0778
  599WAT      O 3101   2.657   7.521   2.781  0.1410  0.0644  0.4908
  599WAT     H1 3102   2.710   7.457   2.807 -0.3444  0.3607  2.4090
  599WAT     H2 3103   2.652   7.510   2.695  1.4747 -1.3692  0.5467
  599WAT    EPW 3104   2.664   7.510   2.772 -0.4380  0.5001  0.2291
  600WAT      O 3105   1.491   0.147   1.115  0.6338  0.0887  0.2699
  600WAT     H1 3106   1.500   0.232   1.097 -2.2479  0.3444 -0.5574
  600WAT     H2 3107   1.572   0.116   1.109  1.4979  2.3731 -1.5741
  600WAT    EPW 3108   1.504   0.155   1.112  1.0541 -0.1433 -0.5222
  601WAT      O 3109   5.873   3.765   2.913 -0.2590  0.4544 -0.3491
  601WAT     H1 3110   5.881   3.753   2.999  1.2359 -0.2426 -0.5646
  601WAT     H2 3111   5.878   3.852   2.904 -0.3911  0.5303  0.2492
  601WAT    EPW 3112   5.875   3.776   2.924 -0.3452 -0.1410 -0.1784
  602WAT      O 3113   5.318   6.532   6.950  0.1711 -0.2018  0.0989
  602WAT     H1 3114   5.315   6.502   6.868  1.2587  1.3445 -0.5644
  602WAT     H2 3115   5.393   6.577   6.951  0.4743 -0.6829  2.1345
  602WAT    EPW 3116   5.329   6.534   6.938 -0.1526 -0.5498 -0.5638
  603WAT      O 3117   4.238   1.117   6.929  0.6851 -0.1802  0.6880
  603WAT     H1 3118   4.305   1.068   6.902  1.0325 -0.1606  1.4989
  603WAT     H2 3119   4.254   1.129   7.014 -0.0899  0.2374  0.7827
  603WAT    EPW 3120   4.250   1.111   6.938  0.2878 -0.4579 -0.0598
  604WAT      O 3121   5.282   5.394   2.308 -0.3380 -0.2308 -0.0068
  604WAT     H1 3122   5.365   5.418   2.301  0.1072 -1.3617  0.9468
  604WAT     H2 3123   5.244   5.463   2.346  0.0056  0.5408 -1.0152
  604WAT    EPW 3124   5.289   5.408   2.313  0.5929 -0.0489  0.1134
  605WAT      O 3125   5.390   5.735   2.834  0.6676 -0.2590  0.0198
  605WAT     H1 3126   5.462   5.689   2.850  0.5521  0.1193  1.7725
  605WAT     H2 3127   5.364   5.762   2.913 -0.2496  1.3382 -0.7752
  605WAT    EPW 3128   5.397   5.733   2.848 -0.4813  0.0343 -0.7607
  606WAT      O 3129   6.831   6.878   4.218 -0.0063  0.6135 -0.0707
  606WAT     H1 3130   6.765   6.920   4.180 -1.7080  0.0523  2.0680
  606WAT     H2 3131   6.841   6.807   4.167 -0.7189  0.9421 -0.6988
  606WAT    EPW 3132   6.823   6.874   4.205  0.0707  0.2009  0.1923
  607WAT      O 3133   6.623   4.764   0.520 -0.0667 -0.5575 -0.2686
  607WAT     H1 3134   6.584   4.841   0.527 -1.7434 -1.1002 -2.4086
  607WAT     H2 3135   6.601   4.738   0.439  2.5274 -2.1593 -0.5526
  607WAT    EPW 3136   6.614   4.771   0.509  0.5312 -0.2168 -0.0229
  608WAT      O 3137   6.426   3.893   4.443 -0.0999 -0.4393 -0.2193
  608WAT     H1 3138   6.485   3.931   4.496  0.5019  0.1510 -1.2867
  608WAT     H2 3139   6.366   3.862   4.498  0.1001  0.8641  0.7634
  608WAT    EPW 3140   6.426   3.894   4.459  0.0375  0.0233 -0.2499
  609WAT      O 3141   7.836   6.313   1.107 -0.2197 -0.0840 -0.3221
  609WAT     H1 3142   7.787   6.324   1.036  1.5729 -0.1822 -1.6419
  609WAT     H2 3143   7.818   6.231   1.132  0.1698 -0.5787 -1.5599
  609WAT    EPW 3144   7.826   6.303   1.100 -0.1539  0.1378 -0.0079
  610WAT      O 3145   7.082   6.716   1.939  0.0056 -0.0894 -0.2594
  610WAT     H1 3146   7.086   6.711   2.026  1.7906  0.8476 -0.2603
  610WAT     H2 3147   7.060   6.799   1.924 -0.4435 -0.2852 -0.7232
  610WAT    EPW 3148   7.079   6.727   1.950 -0.1427  0.1696 -0.1082
  611WAT      O 3149   3.517   4.246   2.121  0.2110 -0.1969 -0.2921
  611WAT     H1 3150   3.461   4.312   2.122 -0.9532 -1.1529 -0.5152
  611WAT     H2 3151   3.586   4.278   2.078 -0.8931  0.4335 -1.6650
  611WAT    EPW 3152   3.519   4.261   2.115 -0.2229  0.5120 -0.3641
  612WAT      O 3153   4.984   6.178   3.105 -0.4608  0.3744  0.1895
  612WAT     H1 3154   5.024   6.249   3.073  0.5427 -0.0579  0.4263
  612WAT     H2 3155   5.051   6.127   3.130 -1.1826 -0.1740  1.0518
  612WAT    EPW 3156   5.000   6.181   3.104  0.1914  0.2907  0.1121
  613WAT      O 3157   4.256   7.580   0.147  0.3854  0.0807  0.7044
  613WAT     H1 3158   4.212   7.524   0.096 -0.5149  0.5475  0.9424
  613WAT     H2 3159   4.329   7.595   0.103  0.5177 -1.0570  0.5006
  613WAT    EPW 3160   4.260   7.574   0.133  0.3375 -0.0334 -0.1374
  614WAT      O 3161   4.198   6.731   0.373  0.5749 -0.2128 -0.2053
  614WAT     H1 3162   4.218   6.676   0.309  0.6537  1.2982 -1.5610
  614WAT     H2 3163   4.126   6.770   0.345 -0.3428 -0.6577  1.4166
  614WAT    EPW 3164   4.191   6.729   0.360 -0.2524  0.1771  0.3673
  615WAT      O 3165   7.202   0.405   3.355  0.1415  0.2171  0.7122
  615WAT     H1 3166   7.154   0.420   3.426 -0.8596  1.9455 -0.2641
  615WAT     H2 3167   7.259   0.471   3.355 -0.8414  1.1235 -0.8404
  615WAT    EPW 3168   7.203   0.417   3.366 -0.2167 -0.0744 -0.5684
  616WAT      O 3169   7.619   7.694   1.925  0.1509 -0.3000  0.2812
  616WAT     H1 3170   7.610   7.768   1.969 -0.5656 -0.5744  0.6216
  616WAT     H2 3171   7.645   7.719   1.846  0.2842  0.2823  0.5084
  616WAT    EPW 3172   7.622   7.708   1.920 -0.6071 -0.2373 -0.3113
  617WAT      O 3173   4.366   4.505   7.459  0.0250  0.2631  0.3885
  617WAT     H1 3174   4.405   4.461   7.524 -0.8414 -2.1910 -0.6181
  617WAT     H2 3175   4.298   4.543   7.499  1.0548  1.1553  1.3818
  617WAT    EPW 3176   4.361   4.504   7.475 -0.0303 -0.6247 -0.0850
  618WAT      O 3177   6.752   5.233   4.033  0.9034 -0.4086 -0.0019
  618WAT     H1 3178   6.789   5.165   3.993 -1.8486 -1.4590 -0.9480
  618WAT     H2 3179   6.771   5.220   4.117  0.9292 -2.0332 -0.2347
  618WAT    EPW 3180   6.760   5.221   4.039  0.2851 -0.0656 -0.9210
  619WAT      O 3181   4.858   4.789   4.799  0.3097  0.3697  0.0032
  619WAT     H1 3182   4.782   4.756   4.773  1.6039 -3.2415  0.1985
  619WAT     H2 3183   4.866   4.758   4.880  1.7694  1.0954  0.1592
  619WAT    EPW 3184   4.848   4.780   4.807  0.1228 -1.1886 -0.1219
  620WAT      O 3185   6.438   6.247   5.212 -0.8872 -0.0516 -0.0397
  620WAT     H1 3186   6.518   6.262   5.180 -0.7377 -1.0505 -0.1687
  620WAT     H2 3187   6.389   6.308   5.174 -0.1163  0.8826  0.4002
  620WAT    EPW 3188   6.443   6.258   5.202 -0.0482  0.1038 -0.2044
  621WAT      O 3189   7.288   0.740   4.337 -0.1074  0.3893 -0.0603
  621WAT     H1 3190   7.283   0.733   4.250  0.8326  0.6873 -0.1512
  621WAT     H2 3191   7.239   0.810   4.355 -1.5620 -0.5623 -0.1680
  621WAT    EPW 3192   7.280   0.749   4.327 -1.1926 -0.1416 -0.3083
  622WAT      O 3193   1.440   0.875   5.413  0.0242  0.2300 -0.0703
  622WAT     H1 3194   1.502   0.877   5.352 -0.1177 -0.4164 -0.2417
  622WAT     H2 3195   1.399   0.951   5.402  1.1588  0.9560  0.4524
  622WAT    EPW 3196   1.443   0.886   5.402 -0.4611  0.1411 -0.3942
  623WAT      O 3197   1.416   5.618   4.705  0.5365 -0.0494  0.4184
  623WAT     H1 3198   1.338   5.656   4.695  0.6325 -0.0434 -0.3675
  623WAT     H2 3199   1.407   5.542   4.663  2.3253  1.7942 -3.8935
  623WAT    EPW 3200   1.403   5.612   4.698 -0.4612 -0.3098 -0.1299
  624WAT      O 3201   2.937   8.057   5.804  0.1830 -0.1581  0.8787
  624WAT     H1 3202   2.876   7.996   5.817  0.5758 -1.0888 -1.1854
  624WAT     H2 3203   2.990   8.021   5.745  0.2896  2.2674 -0.6686
  624WAT    EPW 3204   2.936   8.043   5.797 -0.7347  0.3484 -0.5565
  625WAT      O 3205   5.131   4.523   6.511  0.7652 -0.6031 -0.1571
  625WAT     H1 3206   5.048   4.534   6.488  0.7586  1.6907  0.7078
  625WAT     H2 3207   5.136   4.437   6.529 -1.6169 -0.6738  0.5407
  625WAT    EPW 3208   5.120   4.512   6.510 -0.6424 -0.7087 -0.0751
  626WAT      O 3209   4.807   4.652   0.339 -0.5158 -0.4636  0.2659
  626WAT     H1 3210   4.846   4.576   0.318  0.4552 -0.5165  2.0768
  626WAT     H2 3211   4.722   4.632   0.334 -0.3250 -1.0367 -1.3905
  626WAT    EPW 3212   4.800   4.638   0.335 -0.1992  0.5074  0.1374
  627WAT      O 3213   0.229   1.095   4.710 -0.1172  0.1371  0.2009
  627WAT     H1 3214   0.284   1.028   4.724 -1.0209 -1.0083 -1.4236
  627WAT     H2 3215   0.150   1.059   4.716 -0.6693  1.3511  0.5407
  627WAT    EPW 3216   0.226   1.079   4.713 -0.2925  0.0449 -0.1323
  628WAT      O 3217   6.281   7.058   1.904  0.1170  0.1581 -0.0228
  628WAT     H1 3218   6.239   7.124   1.943 -0.5784  0.4566 -1.2178
  628WAT     H2 3219   6.253   7.063   1.821  0.4254 -1.3452 -0.2331
  628WAT    EPW 3220   6.271   7.069   1.898  0.3984 -0.3850 -0.1103
  629WAT      O 3221   6.160   1.360   2.231  0.1542 -0.0353  0.4581
  629WAT     H1 3222   6.076   1.361   2.210  0.5790 -2.5986 -1.9060
  629WAT     H2 3223   6.193   1.427   2.185 -0.1175 -1.0981 -1.3637
  629WAT    EPW 3224   6.153   1.370   2.221 -0.0778  0.3652  1.0221
  630WAT      O 3225   5.611   4.351   4.995 -0.0862 -0.0861  0.0739
  630WAT     H1 3226   5.658   4.377   4.926  2.1241 -3.4578  0.0531
  630WAT     H2 3227   5.662   4.370   5.063 -0.4701 -0.2935  0.4266
  630WAT    EPW 3228   5.625   4.358   4.995  0.1443  0.6232  0.0802
  631WAT      O 3229   5.465   0.916   6.100 -0.5339 -0.5219  0.6940
  631WAT     H1 3230   5.541   0.887   6.132 -0.5427 -0.2417  0.9740
  631WAT     H2 3231   5.435   0.967   6.163 -2.0299 -2.3738  1.5912
  631WAT    EPW 3232   5.472   0.919   6.114 -0.1915 -0.2486 -0.6447
  632WAT      O 3233   2.924   6.275   5.754 -0.6879 -0.1006  0.0633
  632WAT     H1 3234   2.912   6.225   5.825 -2.1934  0.8283  0.5152
  632WAT     H2 3235   2.948   6.218   5.693 -0.7085 -1.1295  0.9747
  632WAT    EPW 3236   2.926   6.259   5.755 -0.2852 -0.0438 -0.2469
  633WAT      O 3237   3.507   4.114   6.677  0.2010  0.3777  0.0368
  633WAT     H1 3238   3.437   4.118   6.624  0.2978 -0.9853 -0.2366
  633WAT     H2 3239   3.573   4.138   6.625  0.2251 -0.4605 -0.3369
  633WAT    EPW 3240   3.506   4.118   6.661 -0.1597  0.2634  0.3522
  634WAT      O 3241   2.201   5.127   3.637 -0.3809  0.1184 -0.0677
  634WAT     H1 3242   2.252   5.084   3.581 -0.6394  0.0476 -0.2492
  634WAT     H2 3243   2.134   5.154   3.588 -1.0018 -0.5943  0.3489
  634WAT    EPW 3244   2.198   5.125   3.622 -0.3905 -0.5434  0.2968
  635WAT      O 3245   0.637   6.342   3.949 -0.3704 -0.0543  0.2502
  635WAT     H1 3246   0.702   6.376   3.902 -0.3170  2.1068  1.7156
  635WAT     H2 3247   0.565   6.378   3.914 -0.4975 -0.0187  0.5394
  635WAT    EPW 3248   0.636   6.352   3.937  0.1969 -0.1899 -1.0088
  636WAT      O 3249   2.467   6.086   5.830 -0.2326  0.7368  0.0491
  636WAT     H1 3250   2.508   6.152   5.867  0.1071  1.9947 -2.3473
  636WAT     H2 3251   2.383   6.112   5.827 -1.0088 -0.9551  3.0981
  636WAT    EPW 3252   2.460   6.100   5.835  0.1854 -0.6692 -0.1267
  637WAT      O 3253   5.701   6.164   0.148  0.2956 -0.0414  0.6075
  637WAT     H1 3254   5.736   6.180   0.069 -0.5226 -0.0149  0.2360
  637WAT     H2 3255   5.678   6.080   0.143 -1.0853  0.3304  0.2648
  637WAT    EPW 3256   5.703   6.154   0.135  0.3823 -0.0950 -0.2998
  638WAT      O 3257   6.511   5.523   0.573 -0.6044 -0.0231  0.2110
  638WAT     H1 3258   6.548   5.600   0.555  0.0669  0.0378  1.7416
  638WAT     H2 3259   6.449   5.516   0.513 -1.0767  1.9894  0.4027
  638WAT    EPW 3260   6.508   5.533   0.561  0.0998  0.1007 -0.2451
  639WAT      O 3261   4.473   0.505   2.514  0.1514  0.1388  0.3064
  639WAT     H1 3262   4.481   0.452   2.583 -0.2248 -1.6792 -0.9662
  639WAT     H2 3263   4.548   0.494   2.471 -0.7901 -1.1740 -1.1206
  639WAT    EPW 3264   4.485   0.495   2.518 -0.0019  0.3682 -0.0311
  640WAT      O 3265   6.926   5.749   3.882  0.0100 -0.4987  0.1438
  640WAT     H1 3266   6.900   5.666   3.894 -2.1519 -0.1741 -1.5678
  640WAT     H2 3267   6.862   5.783   3.833  1.7785  1.6616 -0.8249
  640WAT    EPW 3268   6.913   5.742   3.876 -0.2707 -0.3734  0.2466
  641WAT      O 3269   5.844   1.515   3.921 -0.0471  0.1935  0.3055
  641WAT     H1 3270   5.759   1.511   3.900 -0.0759  0.3873  0.3777
  641WAT     H2 3271   5.852   1.595   3.954  0.0893  0.0439  0.6325
  641WAT    EPW 3272   5.833   1.526   3.923 -0.2313 -0.5751  0.2501
  642WAT      O 3273   6.287   5.316   2.660  0.3854 -0.8020  0.1924
  642WAT     H1 3274   6.287   5.330   2.574  1.1261 -1.5652  0.0495
  642WAT     H2 3275   6.203   5.305   2.679 -0.0194  1.5313 -0.0301
  642WAT    EPW 3276   6.275   5.316   2.651 -0.0909 -0.1285 -0.4149
  643WAT      O 3277   1.739   2.934   2.702  0.9780  0.1241 -0.6656
  643WAT     H1 3278   1.815   2.910   2.738  1.1398 -0.7279 -1.5201
  643WAT     H2 3279   1.750   2.914   2.617 -0.4609 -0.7459 -0.6862
  643WAT    EPW 3280   1.752   2.927   2.695 -0.5697 -0.5050 -0.2480
  644WAT      O 3281   3.758   6.127   3.492 -0.0016 -0.2202  0.0075
  644WAT     H1 3282   3.768   6.051   3.534  1.3069 -1.1891 -1.8721
  644WAT     H2 3283   3.824   6.176   3.521 -0.3479 -0.0946  0.5979
  644WAT    EPW 3284   3.769   6.123   3.503 -0.0533  0.2860 -0.5694
  645WAT      O 3285   0.644   5.617   4.163 -0.3148 -0.0325 -0.1897
  645WAT     H1 3286   0.706   5.556   4.168 -1.1529 -0.7974  1.9273
  645WAT     H2 3287   0.669   5.677   4.222  0.3134  1.5873 -1.9809
  645WAT    EPW 3288   0.657   5.617   4.173 -0.7146 -0.5812  0.4962
  646WAT      O 3289   5.044   5.416   1.156  0.1518  0.0902 -0.4717
  646WAT     H1 3290   5.093   5.407   1.084  0.5346 -1.0090 -0.1006
  646WAT     H2 3291   5.094   5.464   1.209  0.4298 -0.2079 -0.4583
  646WAT    EPW 3292   5.058   5.422   1.153 -0.0682  0.4385 -0.2638
  647WAT      O 3293   0.391   0.472   2.547 -0.5370  0.2073  0.0870
  647WAT     H1 3294   0.429   0.399   2.517  0.5330  0.8980 -0.2725
  647WAT     H2 3295   0.443   0.496   2.612 -2.4046 -0.8428  2.0999
  647WAT    EPW 3296   0.404   0.465   2.552 -0.1538 -0.0586 -0.0344
  648WAT      O 3297   7.416   6.153   1.223 -0.0276 -0.5089  0.1372
  648WAT     H1 3298   7.391   6.184   1.301  1.3226 -1.2662  0.8984
  648WAT     H2 3299   7.404   6.221   1.169  0.0065  0.3581  1.1960
  648WAT    EPW 3300   7.410   6.168   1.226 -0.6364  0.1789 -0.5134
  649WAT      O 3301   0.991   2.389   5.054 -0.1977 -0.6888 -0.7837
  649WAT     H1 3302   1.050   2.418   5.111 -0.5777  1.2053 -1.3098
  649WAT     H2 3303   0.967   2.312   5.088  0.1167  0.0400  1.2209
  649WAT    EPW 3304   0.996   2.382   5.068  0.2972 -0.2253  0.3516
  650WAT      O 3305   0.388   2.982   2.624 -0.2385  0.1992  0.1281
  650WAT     H1 3306   0.370   3.036   2.558  0.4213  0.9126  0.5223
  650WAT     H2 3307   0.474   2.989   2.634 -0.1138 -1.0242  0.1190
  650WAT    EPW 3308   0.398   2.991   2.616  0.0508  0.0033  0.2410
  651WAT      O 3309   4.071   2.250   0.983 -0.0656 -0.8025 -0.2638
  651WAT     H1 3310   4.030   2.262   1.059  0.6018  0.3865 -0.0795
  651WAT     H2 3311   4.017   2.197   0.939 -1.0296 -0.5420  0.5802
  651WAT    EPW 3312   4.057   2.244   0.987  0.3018  0.1371  0.0524
  652WAT      O 3313   1.142   2.344   3.088  0.5522  0.5043 -0.4116
  652WAT     H1 3314   1.096   2.272   3.103  0.8973  0.6141  1.3655
  652WAT     H2 3315   1.225   2.318   3.100  0.8216  0.7889 -1.5407
  652WAT    EPW 3316   1.148   2.330   3.092  0.3710 -0.0029  0.0246
  653WAT      O 3317   3.209   6.348   2.474 -0.4423  0.4011  0.5467
  653WAT     H1 3318   3.201   6.404   2.540 -0.7887  0.5829  0.3503
  653WAT     H2 3319   3.272   6.383   2.425 -0.8561  0.7667  0.2744
  653WAT    EPW 3320   3.217   6.361   2.476 -0.0666  0.5899  0.1046
  654WAT      O 3321   1.440   2.151   2.824  0.7158 -0.0738  0.0345
  654WAT     H1 3322   1.435   2.065   2.810 -0.9290 -0.2387  1.3867
  654WAT     H2 3323   1.500   2.158   2.887  1.1063 -0.1799 -0.3194
  654WAT    EPW 3324   1.448   2.140   2.831  0.6934  0.8162 -1.0121
  655WAT      O 3325   1.089   0.324   2.557  0.0204 -0.7324  0.3656
  655WAT     H1 3326   1.130   0.386   2.602 -0.6386  0.2648 -0.3555
  655WAT     H2 3327   1.097   0.349   2.474  0.2386 -1.9321 -0.0029
  655WAT    EPW 3328   1.096   0.337   2.551 -0.6033  0.6553 -0.0394
  656WAT      O 3329   0.078   5.992   2.524  0.1349  0.0767 -0.4489
  656WAT     H1 3330   0.008   6.041   2.504 -0.1051  0.2689  0.8020
  656WAT     H2 3331   0.044   5.923   2.566  0.6246 -0.3304 -0.6990
  656WAT    EPW 3332   0.062   5.989   2.527 -0.1215  0.0268 -0.3020
  657WAT      O 3333   1.875   0.238   4.262  0.3133  0.5680  0.4826
  657WAT     H1 3334   1.915   0.162   4.273 -0.6216 -0.1276 -0.6273
  657WAT     H2 3335   1.936   0.297   4.284  0.9808 -0.4842  1.5600
  657WAT    EPW 3336   1.890   0.236   4.267 -0.0621  0.0445 -0.1917
  658WAT      O 3337   5.008   5.185   3.261 -0.0585 -0.4473 -0.1392
  658WAT     H1 3338   5.005   5.173   3.175 -2.7875  0.9640 -0.3319
  658WAT     H2 3339   4.956   5.122   3.293  1.1874 -1.1693  0.5681
  658WAT    EPW 3340   5.000   5.174   3.253  0.8247  0.6144  0.2900
  659WAT      O 3341   6.856   3.024   4.285  0.1389  0.3725  0.3801
  659WAT     H1 3342   6.918   3.055   4.232 -0.4243 -0.7455 -0.9882
  659WAT     H2 3343   6.855   3.081   4.351 -0.3110  2.8263 -1.5969
  659WAT    EPW 3344   6.865   3.037   4.287 -0.2837 -0.7129 -0.5411
  660WAT      O 3345   2.664   7.955   0.357 -0.5989 -0.5037  0.2674
  660WAT     H1 3346   2.623   7.884   0.387 -0.7617 -0.6857 -0.3826
  660WAT     H2 3347   2.599   8.002   0.322 -0.3555 -0.4605 -0.1225
  660WAT    EPW 3348   2.648   7.951   0.357 -0.2144 -0.5719  0.3131
  661WAT      O 3349   5.968   4.686   2.563  0.2927 -0.3352 -0.2004
  661WAT     H1 3350   5.884   4.706   2.551 -0.2150 -2.0337  0.2567
  661WAT     H2 3351   5.969   4.653   2.644  1.4526 -0.1398 -0.1239
  661WAT    EPW 3352   5.955   4.684   2.573  0.2131 -0.8256  0.0482
  662WAT      O 3353   6.305   4.337   4.061 -0.1594 -0.8390  0.0398
  662WAT     H1 3354   6.312   4.378   4.138  0.6839  0.2932 -0.5973
  662WAT     H2 3355   6.231   4.293   4.068  0.1624 -1.1938  1.6970
  662WAT    EPW 3356   6.295   4.337   4.074 -0.0024  0.2408 -0.4344
  663WAT      O 3357   0.230   3.753   1.204  0.6864 -0.2597 -0.4184
  663WAT     H1 3358   0.252   3.752   1.289  2.6947 -0.7997 -0.9011
  663WAT     H2 3359   0.143   3.751   1.206  0.6301  1.0659  1.6371
  663WAT    EPW 3360   0.220   3.753   1.217  0.0982  0.0004 -0.4046
  664WAT      O 3361   0.926   7.210   2.598 -0.4304 -0.0047  0.4285
  664WAT     H1 3362   0.936   7.193   2.513  0.4637 -0.1177  0.5371
  664WAT     H2 3363   1.000   7.252   2.619  0.2644 -1.6717  1.5454
  664WAT    EPW 3364   0.939   7.214   2.589  0.1240 -0.0482  0.0384
  665WAT      O 3365   2.914   4.048   0.240  0.1394  0.5065 -0.3614
  665WAT     H1 3366   2.867   3.977   0.219  0.2677  0.1396  0.5853
  665WAT     H2 3367   2.863   4.114   0.212  0.7098  0.0644 -2.7041
  665WAT    EPW 3368   2.899   4.047   0.233 -0.0495 -0.3492 -0.3490
  666WAT      O 3369   5.152   7.685   0.708  0.6651  0.2695  0.0674
  666WAT     H1 3370   5.230   7.688   0.668  1.1592  1.2043  1.0442
  666WAT     H2 3371   5.095   7.697   0.643  1.3284 -0.4393 -0.6706
  666WAT    EPW 3372   5.155   7.687   0.692 -0.0434  0.7089 -0.6174
  667WAT      O 3373   2.164   7.811   5.045 -0.2651  0.0713 -0.2528
  667WAT     H1 3374   2.245   7.825   5.018  0.3058 -1.0754  0.7460
  667WAT     H2 3375   2.174   7.751   5.109 -1.7916  0.5389  0.4740
  667WAT    EPW 3376   2.177   7.804   5.051 -0.1534 -0.9138 -0.3444
  668WAT      O 3377   4.987   6.042   3.464  0.3558 -0.0335 -0.7676
  668WAT     H1 3378   4.960   5.992   3.398  1.2347 -0.9179 -0.4802
  668WAT     H2 3379   5.001   5.985   3.529  0.6889  0.6662 -0.2082
  668WAT    EPW 3380   4.985   6.026   3.464  0.0714 -0.1552 -0.1987
  669WAT      O 3381   5.346   6.020   4.394  0.2979 -0.5114  0.8500
  669WAT     H1 3382   5.321   5.950   4.440  0.5282 -1.0541  0.1715
  669WAT     H2 3383   5.315   6.087   4.440  0.1019 -1.0603  1.5314
  669WAT    EPW 3384   5.337   6.020   4.407  0.6203  0.2643 -0.2314
  670WAT      O 3385   7.020   5.475   2.700  0.7091 -0.0313  0.6773
  670WAT     H1 3386   7.022   5.555   2.665 -1.1182 -0.0039  0.5097
  670WAT     H2 3387   6.986   5.426   2.637  0.2203 -0.5852  1.3534
  670WAT    EPW 3388   7.015   5.480   2.686 -0.2567  0.2391 -0.4251
  671WAT      O 3389   1.074   0.099   7.586 -0.4465  0.5490 -0.3496
  671WAT     H1 3390   1.108   0.019   7.577 -1.2556  0.3271 -1.8009
  671WAT     H2 3391   1.126   0.137   7.644 -0.3970 -1.2254  0.8522
  671WAT    EPW 3392   1.086   0.092   7.593 -0.0147 -0.6105  0.0394
  672WAT      O 3393   6.583   0.902   4.694  0.3018  0.1617 -0.2498
  672WAT     H1 3394   6.651   0.957   4.689  0.5558 -0.1366 -0.1220
  672WAT     H2 3395   6.555   0.897   4.612  1.0168 -0.4341 -0.4679
  672WAT    EPW 3396   6.589   0.909   4.681 -0.5539 -0.3392  0.6269
  673WAT      O 3397   3.269   7.590   0.038  0.0262 -0.1935  0.2538
  673WAT     H1 3398   3.257   7.525  -0.018 -1.7562 -2.5671  3.0968
  673WAT     H2 3399   3.224   7.656   0.003 -2.9346 -2.2468 -0.1737
  673WAT    EPW 3400   3.261   7.590   0.025  0.1159 -0.4543  0.0634
  674WAT      O 3401   7.859   5.013   1.393 -0.2439  0.0602  0.5167
  674WAT     H1 3402   7.859   5.053   1.316  0.2530  0.1555  0.5655
  674WAT     H2 3403   7.812   5.066   1.444  0.0829  0.3896  0.4809
  674WAT    EPW 3404   7.852   5.026   1.389  0.6566 -0.2632 -0.0973
  675WAT      O 3405   0.951   6.581   2.381  0.2782 -0.7976  0.4827
  675WAT     H1 3406   0.871   6.609   2.401 -0.0344 -1.0517 -0.3594
  675WAT     H2 3407   1.003   6.631   2.430 -0.4244 -1.3512  1.8274
  675WAT    EPW 3408   0.947   6.593   2.391 -0.5227 -0.1746 -0.3912
  676WAT      O 3409   7.445   7.379   3.338  0.3194  0.2333 -0.5389
  676WAT     H1 3410   7.517   7.426   3.328  0.1361  0.1799 -2.4518
  676WAT     H2 3411   7.387   7.436   3.368  0.3395  1.0755 -2.0055
  676WAT    EPW 3412   7.447   7.394   3.341  0.3551  0.3586 -0.2793
  677WAT      O 3413   2.569   2.780   3.930  0.9523  0.2137  0.2382
  677WAT     H1 3414   2.501   2.835   3.929 -0.2200 -1.1622 -0.6428
  677WAT     H2 3415   2.623   2.816   3.987 -0.3351  1.5906  0.6768
  677WAT    EPW 3416   2.567   2.794   3.938  0.3328 -0.4634 -0.6412
  678WAT      O 3417   1.312   0.220   1.849 -0.3797  0.2105  0.3797
  678WAT     H1 3418   1.313   0.192   1.932 -1.2522 -0.4813  0.1567
  678WAT     H2 3419   1.284   0.303   1.857  0.4417  0.4603  0.8537
  678WAT    EPW 3420   1.308   0.228   1.863  0.1847 -0.4339  0.1280
  679WAT      O 3421   7.953   4.010   1.138 -0.4139 -0.1233  0.0630
  679WAT     H1 3422   7.939   4.012   1.051  0.3157  0.5110 -0.0495
  679WAT     H2 3423   7.874   4.030   1.171 -0.8348 -0.9034 -0.4277
  679WAT    EPW 3424   7.939   4.013   1.130 -0.3086 -0.1030  0.2263
  680WAT      O 3425   1.582   1.005   1.803 -0.0144 -0.0405 -0.0628
  680WAT     H1 3426   1.639   1.030   1.741 -0.4451  3.3102  0.7026
  680WAT     H2 3427   1.631   0.959   1.858  1.5569  1.0865 -0.4433
  680WAT    EPW 3428   1.598   1.002   1.802  0.2219 -0.2472 -0.1841
  681WAT      O 3429   6.016   4.755   1.378  0.0786 -0.5835 -0.2780
  681WAT     H1 3430   6.095   4.792   1.372 -0.2341  1.0988  3.2440
  681WAT     H2 3431   5.970   4.795   1.315  1.5428 -0.2036 -1.1495
  681WAT    EPW 3432   6.021   4.767   1.368  0.3782  0.1243  0.0650
  682WAT      O 3433   7.183   3.673   3.087  0.0712 -0.6309 -0.1153
  682WAT     H1 3434   7.173   3.758   3.072 -0.2652 -0.7669 -0.7190
  682WAT     H2 3435   7.188   3.667   3.174 -0.3784 -0.0454 -0.0461
  682WAT    EPW 3436   7.182   3.685   3.097 -0.3003  0.5309  0.0300
  683WAT      O 3437   1.126   5.674   0.231  0.6026 -0.4839  0.5976
  683WAT     H1 3438   1.168   5.629   0.292 -0.5810 -1.5266  0.6674
  683WAT     H2 3439   1.091   5.741   0.275 -0.0289 -1.0881  1.0279
  683WAT    EPW 3440   1.127   5.678   0.247  0.6913 -0.0058 -0.4078
  684WAT      O 3441   6.929   5.551   4.670 -0.3725  0.0874 -0.0625
  684WAT     H1 3442   6.974   5.625   4.666  1.8416 -1.0884  1.1553
  684WAT     H2 3443   6.867   5.568   4.729  0.4039  0.8505  0.5644
  684WAT    EPW 3444   6.926   5.564   4.678  0.5880 -0.0451  0.3443
  685WAT      O 3445   6.043   2.943   0.631 -0.6254  0.4289 -1.1991
  685WAT     H1 3446   6.005   3.007   0.676 -1.6117 -0.2639 -1.0071
  685WAT     H2 3447   6.045   2.876   0.688  1.6111  0.6498 -0.9391
  685WAT    EPW 3448   6.038   2.942   0.646  0.0244 -0.0354 -0.1890
  686WAT      O 3449   5.748   1.414   0.492  0.4151  0.4986  0.7743
  686WAT     H1 3450   5.765   1.476   0.434  0.0220 -1.0902 -1.1513
  686WAT     H2 3451   5.674   1.441   0.531 -0.4888  0.6420 -0.9532
  686WAT    EPW 3452   5.740   1.427   0.489  0.5799 -0.2498 -0.1637
  687WAT      O 3453   2.645   0.889   3.842 -0.2963 -0.1012 -1.3476
  687WAT     H1 3454   2.617   0.808   3.826  1.7840 -1.4299  1.0308
  687WAT     H2 3455   2.621   0.903   3.925  1.6508  0.6291 -0.8570
  687WAT    EPW 3456   2.638   0.879   3.852 -0.1365 -0.8806 -0.5887
  688WAT      O 3457   6.346   4.344   0.706  0.0057  0.2354 -0.0822
  688WAT     H1 3458   6.384   4.274   0.743 -0.6533  0.4134  0.9750
  688WAT     H2 3459   6.338   4.321   0.623  0.6854 -0.5621  0.0588
  688WAT    EPW 3460   6.350   4.330   0.699  0.9837  0.5636 -1.0384
  689WAT      O 3461   1.462   0.043   4.442  0.0394  0.5405 -0.0244
  689WAT     H1 3462   1.432   0.125   4.439  0.2290  0.6190  0.2675
  689WAT     H2 3463   1.439   0.011   4.364  2.6605  1.8090 -1.4620
  689WAT    EPW 3464   1.454   0.051   4.430 -0.1868 -0.1647 -0.3601
  690WAT      O 3465   2.433   5.536   5.627  0.5338 -0.0709  0.1261
  690WAT     H1 3466   2.377   5.531   5.694 -0.2429  1.0716 -0.3921
  690WAT     H2 3467   2.460   5.619   5.629  1.4941 -0.3645 -0.2119
  690WAT    EPW 3468   2.428   5.547   5.637 -0.3763  0.6435 -0.4007
  691WAT      O 3469   3.446   7.206   1.766 -0.0026 -0.6953  0.0177
  691WAT     H1 3470   3.526   7.233   1.746  0.4676 -2.6712 -1.0431
  691WAT     H2 3471   3.455   7.120   1.778 -1.3679 -0.5586  3.2179
  691WAT    EPW 3472   3.459   7.197   1.765  0.1494  0.0035  0.0120
  692WAT      O 3473   0.503   2.936   3.683  0.4730 -0.4119  0.0652
  692WAT     H1 3474   0.463   2.861   3.705  2.4794 -1.8552 -0.9474
  692WAT     H2 3475   0.520   2.973   3.760 -0.8091 -0.8065  0.5733
  692WAT    EPW 3476   0.499   2.931   3.698 -0.2930  0.0051  0.4836
  693WAT      O 3477   7.890   5.218   3.324  0.1880  0.0344  0.3519
  693WAT     H1 3478   7.885   5.136   3.353 -1.2170 -0.3830 -0.9942
  693WAT     H2 3479   7.819   5.228   3.276 -0.2956  2.4466  1.4083
  693WAT    EPW 3480   7.879   5.208   3.321  0.3969 -0.0538 -0.1991
  694WAT      O 3481   1.144   3.758   1.015 -0.1575 -0.1294  0.2995
  694WAT     H1 3482   1.068   3.772   1.055 -0.2773 -1.4230  0.5380
  694WAT     H2 3483   1.152   3.828   0.963 -1.8045 -0.2477 -0.1746
  694WAT    EPW 3484   1.134   3.771   1.013  0.1740  0.5819 -0.5649
  695WAT      O 3485   2.328   0.079   0.665  0.1024  0.2840  0.2796
  695WAT     H1 3486   2.388   0.015   0.665 -2.6374 -2.8408 -3.8234
  695WAT     H2 3487   2.294   0.076   0.745  2.9997 -0.1213  1.6469
  695WAT    EPW 3488   2.332   0.069   0.676  0.0147  0.3838 -0.3432
  696WAT      O 3489   3.315   1.622   6.766 -0.5729 -0.5880 -0.6068
  696WAT     H1 3490   3.291   1.623   6.682  0.7951 -0.0930 -1.0228
  696WAT     H2 3491   3.400   1.602   6.762 -0.1788  0.7298  0.5693
  696WAT    EPW 3492   3.324   1.619   6.753  0.0415 -0.5486 -0.7646
  697WAT      O 3493   5.476   1.458   1.499  0.2648  0.3702 -0.0884
  697WAT     H1 3494   5.458   1.465   1.414 -0.0556  0.7400  0.0051
  697WAT     H2 3495   5.494   1.374   1.510  2.4272  0.6402 -0.9324
  697WAT    EPW 3496   5.476   1.447   1.488  0.4681  0.3201  0.5213
  698WAT      O 3497   2.007   5.113   4.831  0.4053 -0.6299 -0.2140
  698WAT     H1 3498   2.002   5.026   4.823  0.4603 -0.5379 -1.3581
  698WAT     H2 3499   1.939   5.142   4.786  1.5148 -0.0171 -1.5643
  698WAT    EPW 3500   1.996   5.105   4.824  0.7076  0.6165  0.1901
  699WAT      O 3501   1.370   5.651   4.047 -0.7710  1.2618  0.4223
  699WAT     H1 3502   1.328   5.668   4.122  1.8022 -1.6442  2.8237
  699WAT     H2 3503   1.373   5.728   4.007 -2.6199  2.9241  3.1292
  699WAT    EPW 3504   1.364   5.665   4.052  0.2055  0.1349  0.5776
  700WAT      O 3505   3.593   2.037   5.509 -0.0000  0.0250 -0.1958
  700WAT     H1 3506   3.622   2.108   5.467  1.2305 -0.6542 -0.5376
  700WAT     H2 3507   3.534   2.069   5.565 -1.0154  1.0719 -1.7767
  700WAT    EPW 3508   3.589   2.052   5.511  0.1717  0.0968 -0.4004
  701WAT      O 3509   5.778   1.041   6.592  0.0116 -0.1863 -0.1766
  701WAT     H1 3510   5.730   0.973   6.618 -1.8283  0.3503 -1.9006
  701WAT     H2 3511   5.803   1.078   6.667 -2.3605 -0.4999  0.8653
  701WAT    EPW 3512   5.774   1.037   6.607  0.2465  0.5142 -0.3068
  702WAT      O 3513   6.228   5.341   1.958 -0.1278 -0.3750 -0.2017
  702WAT     H1 3514   6.207   5.270   2.004  2.5179 -1.7345 -0.8741
  702WAT     H2 3515   6.246   5.309   1.878  1.3316  0.9521 -0.4623
  702WAT    EPW 3516   6.228   5.326   1.953  0.1058 -0.1154  0.1895
  703WAT      O 3517   0.015   0.820   2.706 -0.2379 -0.3476 -0.0448
  703WAT     H1 3518   0.096   0.853   2.707 -0.0191 -0.5648 -2.8045
  703WAT     H2 3519   0.026   0.741   2.669 -1.7502 -0.1969 -0.8794
  703WAT    EPW 3520   0.029   0.813   2.701  0.7149 -0.8919  0.2738
  704WAT      O 3521   6.077   3.570   2.832 -0.7091  0.0786  0.2386
  704WAT     H1 3522   6.017   3.629   2.853 -1.5935 -0.3503 -0.9449
  704WAT     H2 3523   6.051   3.541   2.754  1.8530  0.9209 -1.0495
  704WAT    EPW 3524   6.065   3.574   2.823  0.3715 -0.1473 -0.4204
  705WAT      O 3525   1.396   7.930   4.229 -0.6025 -0.5915 -0.0630
  705WAT     H1 3526   1.359   7.872   4.281  0.0850 -0.8046  0.1972
  705WAT     H2 3527   1.332   7.954   4.175 -1.0625 -1.0773  0.2701
  705WAT    EPW 3528   1.381   7.925   4.228  0.1285  0.1257  0.6199
  706WAT      O 3529   1.847   3.569   1.892  0.1268 -0.5150  0.2017
  706WAT     H1 3530   1.831   3.483   1.898  0.1874 -0.5069  0.5017
  706WAT     H2 3531   1.907   3.574   1.829  0.8010 -0.7850  0.8042
  706WAT    EPW 3532   1.853   3.557   1.883  0.1793  0.1106 -0.0219
  707WAT      O 3533   0.375   3.686   2.625 -0.3109  0.7222 -0.0212
  707WAT     H1 3534   0.455   3.676   2.593 -0.1629  2.4404 -0.2936
  707WAT     H2 3535   0.342   3.605   2.624  1.0444  0.1473 -0.8840
  707WAT    EPW 3536   0.382   3.673   2.620  0.1279  0.4350 -0.2951
  708WAT      O 3537   6.618   5.002   2.526 -0.1749 -0.1612 -0.0673
  708WAT     H1 3538   6.671   4.946   2.568 -0.2903 -0.7015 -0.6278
  708WAT     H2 3539   6.609   5.068   2.583  0.0741 -0.6499  0.5548
  708WAT    EPW 3540   6.624   5.003   2.541 -0.1543 -0.3575  0.0006
  709WAT      O 3541   6.432   4.826   4.450 -0.1670 -0.2591  0.6767
  709WAT     H1 3542   6.485   4.760   4.432 -0.2319 -0.0763 -0.2410
  709WAT     H2 3543   6.353   4.791   4.446 -0.3635  0.3184 -2.1812
  709WAT    EPW 3544   6.428   4.811   4.447  0.3072 -0.1756 -0.1215
  710WAT      O 3545   4.039   7.693   5.612 -0.2244  0.6258  0.2892
  710WAT     H1 3546   4.005   7.708   5.533  1.2127 -0.1532 -0.5177
  710WAT     H2 3547   4.118   7.730   5.607 -0.0658  0.4451  1.3206
  710WAT    EPW 3548   4.046   7.701   5.600  0.0628  0.2527 -0.4159
  711WAT      O 3549   1.541   4.085   2.533  0.4047 -0.0242  0.5249
  711WAT     H1 3550   1.553   3.999   2.532 -1.4982 -0.3480  0.9317
  711WAT     H2 3551   1.599   4.115   2.475 -0.3005 -1.7895 -1.1919
  711WAT    EPW 3552   1.551   4.077   2.524  0.5400 -0.4210 -0.4811
  712WAT      O 3553   0.971   0.383   2.935  0.0099 -0.0165  0.6593
  712WAT     H1 3554   0.901   0.368   2.884  0.9360 -1.9237 -0.1625
  712WAT     H2 3555   0.945   0.448   2.986 -3.2183 -2.0145  1.9014
  712WAT    EPW 3556   0.957   0.390   2.935  0.1405  0.0070  0.2835
  713WAT      O 3557   1.924   5.681   4.041 -0.2698 -0.2174 -0.5010
  713WAT     H1 3558   1.872   5.673   4.110 -0.7124  0.6305 -0.7159
  713WAT     H2 3559   1.872   5.717   3.981  0.2857 -0.3334 -1.0572
  713WAT    EPW 3560   1.909   5.685   4.042  0.0106 -0.0674  0.3344
  714WAT      O 3561   6.467   5.572   0.916  0.5609  0.0111 -0.1457
  714WAT     H1 3562   6.524   5.635   0.894 -0.0566  1.5383  2.2117
  714WAT     H2 3563   6.513   5.520   0.968  0.9720 -1.4231 -1.8271
  714WAT    EPW 3564   6.482   5.574   0.920  0.3670  0.4177 -0.0845
  715WAT      O 3565   3.546   5.385   0.627 -0.3169  0.2058  0.5575
  715WAT     H1 3566   3.468   5.368   0.662 -1.1462  0.8453 -0.8919
  715WAT     H2 3567   3.599   5.328   0.667 -1.4826 -0.1414  1.6769
  715WAT    EPW 3568   3.543   5.374   0.638  0.5248  0.0295  0.6409
  716WAT      O 3569   1.597   0.733   2.237 -0.4076  0.1004 -0.3060
  716WAT     H1 3570   1.613   0.654   2.202 -0.2768 -0.4487  0.9507
  716WAT     H2 3571   1.612   0.788   2.171  1.8934 -0.7410 -0.5812
  716WAT    EPW 3572   1.602   0.729   2.222  0.0466  0.0886 -0.5397
  717WAT      O 3573   7.971   1.265   0.423  0.1665 -0.1851  0.6235
  717WAT     H1 3574   7.895   1.251   0.463 -0.7186  1.6034 -0.3164
  717WAT     H2 3575   8.029   1.225   0.474 -1.5623 -3.4750  0.3000
  717WAT    EPW 3576   7.969   1.257   0.436 -0.1831  0.0623  0.1353
  718WAT      O 3577   4.673   0.504   3.590  0.1541 -0.0050 -0.5947
  718WAT     H1 3578   4.600   0.549   3.604 -0.3884 -1.2741  0.9695
  718WAT     H2 3579   4.647   0.437   3.540  0.4996  0.1409 -0.9837
  718WAT    EPW 3580   4.659   0.501   3.584 -0.4903  0.1897 -0.1876
  719WAT      O 3581   0.621   4.797   5.055 -0.6396 -0.1060  0.7857
  719WAT     H1 3582   0.693   4.794   5.005 -0.6375 -0.4389  0.8097
  719WAT     H2 3583   0.637   4.865   5.109 -0.8355  0.5353  0.0471
  719WAT    EPW 3584   0.634   4.807   5.056 -0.5095  0.1051  0.1336
  720WAT      O 3585   5.809   5.111   1.794  0.3783 -0.5382  0.5521
  720WAT     H1 3586   5.889   5.083   1.774  0.4553  0.1124 -0.0890
  720WAT     H2 3587   5.780   5.145   1.719 -0.6579 -1.1181  0.6705
  720WAT    EPW 3588   5.817   5.112   1.780 -0.1263 -0.0740  0.6275
  721WAT      O 3589   5.932   3.927   6.701 -0.6092 -0.1633  0.5228
  721WAT     H1 3590   6.018   3.933   6.718 -0.4043 -1.6481  0.2255
  721WAT     H2 3591   5.927   3.942   6.616 -0.0325 -3.7432 -0.3319
  721WAT    EPW 3592   5.944   3.930   6.691 -0.2280  0.2343 -0.1232
  722WAT      O 3593   6.331   4.979   0.358  0.0323  0.4031 -0.0018
  722WAT     H1 3594   6.367   4.995   0.280  0.1941  0.7566  0.1443
  722WAT     H2 3595   6.265   5.036   0.362  0.4546  0.8624  0.4157
  722WAT    EPW 3596   6.327   4.990   0.347 -0.1808 -0.3363  0.1193
  723WAT      O 3597   5.656   7.286   5.249 -0.1275 -0.5281  0.4355
  723WAT     H1 3598   5.633   7.325   5.175  1.3021 -2.1424 -0.9518
  723WAT     H2 3599   5.581   7.281   5.294 -0.9943  0.6330 -0.8034
  723WAT    EPW 3600   5.642   7.291   5.245 -0.4848  0.0157 -0.3602
  724WAT      O 3601   4.426   7.333   7.418 -0.3188 -0.3058 -0.3720
  724WAT     H1 3602   4.460   7.365   7.344 -0.9665 -1.6700 -1.3139
  724WAT     H2 3603   4.342   7.357   7.415  0.1748  1.9236  1.2949
  724WAT    EPW 3604   4.418   7.341   7.407  0.7695 -0.4146 -0.2165
  725WAT      O 3605   5.110   7.814   3.794 -0.0018 -0.7466  0.1567
  725WAT     H1 3606   5.084   7.732   3.810 -1.3148 -0.3095  0.4201
  725WAT     H2 3607   5.129   7.846   3.873 -0.7450 -0.4210  0.2188
  725WAT    EPW 3608   5.109   7.807   3.808  0.1993 -0.0925 -0.0727
  726WAT      O 3609   2.437   5.355   4.777  0.2365 -0.3526  0.0658
  726WAT     H1 3610   2.371   5.411   4.786 -0.4303 -1.0368 -0.5076
  726WAT     H2 3611   2.400   5.277   4.787  0.9153 -0.7587 -0.4905
  726WAT    EPW 3612   2.422   5.351   4.780  0.1641  0.1417 -0.6252
  727WAT      O 3613   4.955   2.421   4.692  0.4540  0.3135 -0.9272
  727WAT     H1 3614   4.897   2.468   4.736 -0.1763  1.4512 -2.8735
  727WAT     H2 3615   4.929   2.339   4.705 -0.0415  0.6515  0.3276
  727WAT    EPW 3616   4.943   2.416   4.700  0.1364  0.6281  0.3271
  728WAT      O 3617   0.084   1.313   3.905 -0.3543 -0.5137  0.4584
  728WAT     H1 3618   0.124   1.369   3.851  0.8574 -0.2400  1.5849
  728WAT     H2 3619   0.010   1.354   3.926 -0.5789 -0.3770 -0.5118
  728WAT    EPW 3620   0.079   1.327   3.900 -0.0675 -0.0704  0.2324
  729WAT      O 3621   3.604   5.720   4.515 -0.2418 -0.3694  0.2329
  729WAT     H1 3622   3.582   5.664   4.578 -0.4884  0.5930  1.0347
  729WAT     H2 3623   3.561   5.691   4.445 -1.0133 -0.7131  0.8355
  729WAT    EPW 3624   3.595   5.707   4.514  0.2096  0.4508  1.1233
  730WAT      O 3625   1.369   2.982   5.279  0.3457  0.4749 -0.1033
  730WAT     H1 3626   1.301   3.002   5.330  2.2784  0.3511  2.7820
  730WAT     H2 3627   1.391   3.059   5.243  1.8487  1.8176  3.2589
  730WAT    EPW 3628   1.363   2.997   5.281  0.3378 -0.7857  0.3747
  731WAT      O 3629   7.446   4.465   3.873 -0.0391 -0.0174 -0.3902
  731WAT     H1 3630   7.431   4.512   3.801 -1.2552  0.7592  0.3426
  731WAT     H2 3631   7.386   4.402   3.869 -1.3480  1.0981  0.8310
  731WAT    EPW 3632   7.435   4.463   3.862 -0.4367  0.6096 -0.1547
  732WAT      O 3633   1.952   3.619   0.593 -0.2215  0.0663 -0.1641
  732WAT     H1 3634   2.038   3.632   0.593  0.1702 -2.0586  0.6786
  732WAT     H2 3635   1.920   3.689   0.634  1.0830  0.8773 -0.4800
  732WAT    EPW 3636   1.960   3.631   0.599  0.3101 -0.5405 -0.2165
  733WAT      O 3637   5.833   3.073   1.493  0.1406  0.0845  0.4937
  733WAT     H1 3638   5.746   3.064   1.499  0.2780 -0.4490  2.2528
  733WAT     H2 3639   5.850   3.143   1.541  0.6115  0.7335 -0.6042
  733WAT    EPW 3640   5.822   3.082   1.501 -0.2584  0.0731  0.0591
  734WAT      O 3641   1.435   7.411   0.587 -0.3782  0.3113 -0.2059
  734WAT     H1 3642   1.419   7.354   0.651  0.0019  0.2516 -0.1563
  734WAT     H2 3643   1.371   7.469   0.594 -1.9329 -1.1540 -1.5089
  734WAT    EPW 3644   1.423   7.411   0.598  0.0438 -0.1813 -0.0428
  735WAT      O 3645   2.510   6.021   2.108  0.2666  0.7248 -0.4921
  735WAT     H1 3646   2.576   5.984   2.065 -0.5235 -0.1367 -0.9859
  735WAT     H2 3647   2.443   5.967   2.095 -0.4626  1.4004  0.2889
  735WAT    EPW 3648   2.510   6.008   2.100 -0.0483  0.2029  0.0106
  736WAT      O 3649   5.767   4.150   6.882 -0.3182 -0.0351 -0.4344
  736WAT     H1 3650   5.816   4.089   6.845 -0.8932 -0.0795 -1.1570
  736WAT     H2 3651   5.825   4.209   6.911  0.1836 -0.4057 -0.6784
  736WAT    EPW 3652   5.783   4.150   6.881  0.2786  0.2237 -0.8122
  737WAT      O 3653   1.666   5.367   4.449 -0.1093  0.0238  0.8289
  737WAT     H1 3654   1.714   5.379   4.378  1.2171  1.6922  1.9420
  737WAT     H2 3655   1.680   5.439   4.496 -1.8390 -0.5136  2.2854
  737WAT    EPW 3656   1.675   5.379   4.446  0.0938 -0.2426 -0.8957
  738WAT      O 3657   5.984   3.498   3.167  0.3437  0.5068 -0.4434
  738WAT     H1 3658   5.939   3.517   3.238  1.4206 -1.0438  0.7367
  738WAT     H2 3659   5.923   3.479   3.108 -0.6578  3.9782 -0.7446
  738WAT    EPW 3660   5.968   3.498   3.168  0.2762 -0.2812 -0.1588
  739WAT      O 3661   7.423   6.065   3.698 -0.1035 -0.0163  0.0503
  739WAT     H1 3662   7.337   6.061   3.682  0.0708  1.0295 -1.3751
  739WAT     H2 3663   7.450   6.132   3.649  1.0642  1.6895  2.7992
  739WAT    EPW 3664   7.414   6.074   3.688 -0.0677 -0.7028  0.4954
  740WAT      O 3665   6.145   4.234   1.050  0.4504  0.1968 -0.5282
  740WAT     H1 3666   6.184   4.159   1.025 -1.1900 -1.1894  0.7872
  740WAT     H2 3667   6.072   4.235   1.003  0.8533  1.4463 -1.1436
  740WAT    EPW 3668   6.140   4.223   1.039 -0.1918 -0.0867 -0.3880
  741WAT      O 3669   7.234   0.282   4.014  0.3538  0.8328  0.5737
  741WAT     H1 3670   7.166   0.332   3.994 -0.3736  0.2060  1.4243
  741WAT     H2 3671   7.256   0.307   4.094  1.1753  1.0707  0.2850
  741WAT    EPW 3672   7.227   0.293   4.023 -0.0689  0.2038 -0.0283
  742WAT      O 3673   0.865   6.002   0.643  0.4123  0.0759  0.4037
  742WAT     H1 3674   0.836   6.070   0.598  0.5334  1.0913  1.8094
  742WAT     H2 3675   0.829   6.012   0.722  1.0633 -1.0423  0.8711
  742WAT    EPW 3676   0.855   6.013   0.648  0.6229 -0.0666 -0.1134
  743WAT      O 3677   6.762   6.683   2.052  0.7043  0.4795  0.4052
  743WAT     H1 3678   6.783   6.605   2.082  0.2961  0.0187 -0.4566
  743WAT     H2 3679   6.764   6.734   2.122  1.7001 -0.1518  0.8454
  743WAT    EPW 3680   6.765   6.679   2.067 -0.2441 -0.4360  0.0353
  744WAT      O 3681   7.049   6.737   1.388  0.1546 -0.7027 -0.3236
  744WAT     H1 3682   6.974   6.731   1.432 -1.0585  0.4875 -2.0612
  744WAT     H2 3683   7.069   6.822   1.393  1.0168 -0.8930 -0.4414
  744WAT    EPW 3684   7.041   6.749   1.395 -0.3684  0.0706  0.1390
  745WAT      O 3685   5.384   4.021   2.985 -0.2326  0.5917  0.1776
  745WAT     H1 3686   5.316   4.074   2.977  1.1362  2.2496 -1.6154
  745WAT     H2 3687   5.385   3.978   2.909  1.8453  2.1775 -0.8085
  745WAT    EPW 3688   5.374   4.023   2.972 -0.8788 -0.2852 -0.1891
  746WAT      O 3689   5.195   1.828   3.911  0.4400  0.0893  0.2823
  746WAT     H1 3690   5.166   1.753   3.946 -0.5009  0.7595  0.9767
  746WAT     H2 3691   5.198   1.811   3.826 -1.0405 -0.3378  0.2978
  746WAT    EPW 3692   5.191   1.814   3.904  0.2236  0.0578  0.4906
  747WAT      O 3693   2.115   6.766   3.128 -0.5093  0.0425  0.3725
  747WAT     H1 3694   2.056   6.821   3.160  0.2795  1.1050  0.0699
  747WAT     H2 3695   2.103   6.693   3.174 -0.1980  1.1377  2.2975
  747WAT    EPW 3696   2.105   6.764   3.140 -0.6783  0.1177 -0.1771
  748WAT      O 3697   0.232   5.680   0.784  0.1099  0.1701  0.4069
  748WAT     H1 3698   0.299   5.624   0.779  0.0063  0.1662 -1.7152
  748WAT     H2 3699   0.204   5.686   0.702 -1.3562  1.5739  0.9628
  748WAT    EPW 3700   0.238   5.673   0.771 -0.4248  0.9233 -0.6057
  749WAT      O 3701   1.596   1.569   2.103 -0.2264  0.1675  0.2389
  749WAT     H1 3702   1.580   1.506   2.045 -0.6996 -0.0738  0.6173
  749WAT     H2 3703   1.528   1.563   2.158 -0.8011  1.6566 -0.2697
  749WAT    EPW 3704   1.584   1.559   2.103 -0.6710 -0.2893 -0.7517
  750WAT      O 3705   3.843   7.088   7.332  0.2432 -0.7416 -0.6852
  750WAT     H1 3706   3.865   7.087   7.248 -1.2984 -0.9578 -1.1222
  750WAT     H2 3707   3.838   7.173   7.351 -1.0320 -0.6419 -1.3127
  750WAT    EPW 3708   3.845   7.100   7.323  0.0360  0.0230 -0.3042
  751WAT      O 3709   1.711   2.378   0.557 -0.1998  0.3857 -0.1834
  751WAT     H1 3710   1.797   2.365   0.557 -0.2139  0.2471 -1.1790
  751WAT     H2 3711   1.694   2.412   0.479 -0.9187  1.4257  0.3885
  751WAT    EPW 3712   1.721   2.381   0.546  0.4066  0.2759  0.0112
  752WAT      O 3713   6.986   0.409   0.373 -0.0171  0.0730 -0.5775
  752WAT     H1 3714   6.902   0.386   0.383  0.4442 -1.2372  0.8112
  752WAT     H2 3715   7.015   0.354   0.311  0.0516 -0.1822 -0.3223
  752WAT    EPW 3716   6.978   0.397   0.365 -0.2447 -0.5804  0.4500
  753WAT      O 3717   7.958   7.567   1.890  0.2582 -0.6254 -0.2547
  753WAT     H1 3718   7.945   7.513   1.958  0.4577  0.3090  0.5532
  753WAT     H2 3719   7.978   7.643   1.928 -1.2310  0.3601 -1.3364
  753WAT    EPW 3720   7.959   7.570   1.906  0.8889  0.2895  0.3078
  754WAT      O 3721   7.323   5.352   0.485 -0.1580 -0.1232  0.4086
  754WAT     H1 3722   7.331   5.294   0.550 -1.4211 -0.2861  0.4487
  754WAT     H2 3723   7.309   5.428   0.526 -1.1125 -0.2516  0.3573
  754WAT    EPW 3724   7.322   5.354   0.501 -0.7622  0.0228  0.0123
  755WAT      O 3725   5.434   0.544   3.596  0.3573 -0.0885 -0.3345
  755WAT     H1 3726   5.486   0.497   3.648  0.8795 -0.6133 -1.2939
  755WAT     H2 3727   5.465   0.625   3.604  0.8449 -0.2733 -0.3295
  755WAT    EPW 3728   5.446   0.549   3.605  0.0115 -0.4619 -0.4956
  756WAT      O 3729   1.881   0.690   6.369  0.5147 -0.1511  0.3144
  756WAT     H1 3730   1.885   0.686   6.456  0.2448  0.1323  0.3376
  756WAT     H2 3731   1.801   0.660   6.351  0.0732  1.0158  0.2415
  756WAT    EPW 3732   1.870   0.685   6.379 -0.3358  0.1633 -0.1261
  757WAT      O 3733   7.408   4.121   1.190 -0.0376 -0.0877 -0.2231
  757WAT     H1 3734   7.358   4.058   1.222 -0.9873  0.9333  0.3676
  757WAT     H2 3735   7.385   4.126   1.106  2.9839 -3.2791 -1.4860
  757WAT    EPW 3736   7.397   4.113   1.182 -0.4729  1.0175  0.0405
  758WAT      O 3737   6.794   7.331   4.011  0.2201 -0.2652  0.4341
  758WAT     H1 3738   6.720   7.354   4.050  0.1325 -0.0582  0.1562
  758WAT     H2 3739   6.853   7.330   4.075  0.3486  1.3236  0.3784
  758WAT    EPW 3740   6.792   7.334   4.026 -0.3032  0.4667  0.5044
  759WAT      O 3741   5.423   6.156   3.049  0.9895 -0.2693 -0.3131
  759WAT     H1 3742   5.493   6.114   3.079  0.0570 -1.2863  0.5012
  759WAT     H2 3743   5.411   6.122   2.970  0.4712 -1.2938  0.1882
  759WAT    EPW 3744   5.431   6.145   3.042  0.7538 -0.1299  0.3579
  760WAT      O 3745   1.343   4.451   2.902  0.2538  0.2717  0.9730
  760WAT     H1 3746   1.275   4.401   2.921  1.0297 -1.0078  0.5139
  760WAT     H2 3747   1.395   4.442   2.971  1.3342 -1.2836  0.0223
  760WAT    EPW 3748   1.341   4.442   2.915 -0.4660 -0.2320 -0.3024
  761WAT      O 3749   1.273   1.736   3.977  0.4313 -0.2648  0.1141
  761WAT     H1 3750   1.194   1.775   3.979  0.1306 -0.8615  1.6622
  761WAT     H2 3751   1.325   1.794   4.015  0.0886 -1.0401  1.9164
  761WAT    EPW 3752   1.269   1.750   3.983  0.0544  0.3077 -0.0206
  762WAT      O 3753   4.190   7.939   2.421 -0.5521  0.0024 -0.2094
  762WAT     H1 3754   4.183   7.996   2.487 -0.3190  0.5555 -0.6480
  762WAT     H2 3755   4.147   7.869   2.450 -1.4533  0.6477  0.0664
  762WAT    EPW 3756   4.183   7.937   2.435 -0.3979  0.3278 -0.6496
  763WAT      O 3757   7.959   3.185   3.254  0.1018  0.2455  0.3568
  763WAT     H1 3758   7.984   3.167   3.172 -0.0165  1.1744  0.1091
  763WAT     H2 3759   7.894   3.242   3.244 -1.2923 -1.1436  1.0357
  763WAT    EPW 3760   7.953   3.190   3.240 -0.1756 -0.1772  0.5414
  764WAT      O 3761   1.748   7.382   0.617  0.5220  0.1009  0.5891
  764WAT     H1 3762   1.702   7.360   0.547  0.6267 -1.4186  0.9622
  764WAT     H2 3763   1.831   7.374   0.590  0.6790  3.3526 -0.2481
  764WAT    EPW 3764   1.754   7.378   0.602 -0.3253 -0.8134 -0.0750
  765WAT      O 3765   2.282   5.204   4.463  0.3153  0.3929 -0.1294
  765WAT     H1 3766   2.267   5.170   4.384  0.2507  1.0578 -0.4114
  765WAT     H2 3767   2.367   5.219   4.463 -0.0874  3.3661 -1.3415
  765WAT    EPW 3768   2.292   5.201   4.451  0.1757  1.0378  0.4711
  766WAT      O 3769   1.073   5.403   1.161  0.0566  0.1719  0.1793
  766WAT     H1 3770   1.030   5.355   1.220  1.5357 -1.8622 -0.2883
  766WAT     H2 3771   1.092   5.476   1.205 -2.7928  0.6794  0.7323
  766WAT    EPW 3772   1.069   5.407   1.176  0.3172 -1.0315 -0.0126
  767WAT      O 3773   5.871   7.108   5.717  1.0109 -0.1698  0.4915
  767WAT     H1 3774   5.872   7.059   5.790 -0.7515 -0.7601  0.1608
  767WAT     H2 3775   5.868   7.049   5.653  1.3551  0.3652 -0.0314
  767WAT    EPW 3776   5.871   7.092   5.719  0.1185  0.3285 -0.0324
  768WAT      O 3777   2.440   5.948   2.372 -0.5314 -0.1715  0.2687
  768WAT     H1 3778   2.414   6.025   2.402  0.0113 -0.0490  0.4309
  768WAT     H2 3779   2.459   5.963   2.289 -1.6660 -0.4261 -0.0537
  768WAT    EPW 3780   2.439   5.961   2.364  0.4029  0.2482 -0.1775
  769WAT      O 3781   1.539   2.100   3.512  0.2971  0.4178  0.0888
  769WAT     H1 3782   1.603   2.058   3.470 -0.4628 -1.1017  0.3883
  769WAT     H2 3783   1.559   2.088   3.596 -0.0403  0.4884  0.1792
  769WAT    EPW 3784   1.551   2.092   3.518  0.0899 -0.3352  0.1754
  770WAT      O 3785   1.662   0.682   7.362  0.0755 -0.5664  0.3143
  770WAT     H1 3786   1.746   0.684   7.339  0.7459 -0.5451  2.4869
  770WAT     H2 3787   1.659   0.618   7.421 -1.2956 -0.1424  0.7428
  770WAT    EPW 3788   1.674   0.673   7.367 -0.8680 -0.5232 -0.5883
  771WAT      O 3789   7.807   3.700   4.366  0.0976 -0.2165 -0.2079
  771WAT     H1 3790   7.781   3.670   4.444 -0.6125  1.1464  0.1275
  771WAT     H2 3791   7.882   3.741   4.384  0.3688 -0.6268 -0.4016
  771WAT    EPW 3792   7.814   3.702   4.380  0.5767  0.2493  0.0207
  772WAT      O 3793   5.860   1.844   7.884  0.4919 -0.2675  0.0247
  772WAT     H1 3794   5.787   1.874   7.847  0.8061 -1.6126 -1.8319
  772WAT     H2 3795   5.832   1.786   7.942  0.0570  0.2404  0.3303
  772WAT    EPW 3796   5.845   1.840   7.887 -0.0833  0.0039  0.0125
  773WAT      O 3797   6.723   3.835   0.576 -0.2056  0.0774 -0.0204
  773WAT     H1 3798   6.728   3.921   0.560  0.3887  0.1869  0.6947
  773WAT     H2 3799   6.729   3.799   0.497 -0.9117  0.7018 -0.3756
  773WAT    EPW 3800   6.725   3.843   0.562  0.7065 -0.2241 -0.2968
  774WAT      O 3801   4.303   6.963   0.475  0.0280  0.2915  0.6707
  774WAT     H1 3802   4.263   7.028   0.433  2.8182  1.0939 -1.0131
  774WAT     H2 3803   4.259   6.892   0.451 -2.0983  1.3309  1.2497
  774WAT    EPW 3804   4.291   6.962   0.466 -0.6808 -0.2376  0.6499
  775WAT      O 3805   5.275   6.898   6.402 -0.3831 -0.5757  0.1408
  775WAT     H1 3806   5.250   6.979   6.422  0.0777 -0.1534 -0.8877
  775WAT     H2 3807   5.281   6.858   6.479 -1.7363  0.0292  0.5894
  775WAT    EPW 3808   5.272   6.904   6.416  0.4461  0.0182  0.0759
  776WAT      O 3809   0.016   2.054   3.253 -0.2883  0.7299  0.0406
  776WAT     H1 3810   0.002   2.132   3.291  0.7382  0.4305  1.0729
  776WAT     H2 3811   0.093   2.064   3.214 -0.5896  0.5059 -0.6386
  776WAT    EPW 3812   0.025   2.067   3.253 -0.3377  1.0120 -0.2729
  777WAT      O 3813   6.152   1.535   7.955  0.3262  0.4910 -0.1539
  777WAT     H1 3814   6.205   1.468   7.939  0.4909  0.6278 -0.1892
  777WAT     H2 3815   6.112   1.513   8.030  0.2935  0.3030 -0.2276
  777WAT    EPW 3816   6.154   1.522   7.964 -0.0097  0.3446 -0.0398
  778WAT      O 3817   5.299   5.646   5.486  0.4154 -0.7399  0.3877
  778WAT     H1 3818   5.385   5.658   5.482  0.0850  2.2422 -0.2412
  778WAT     H2 3819   5.282   5.595   5.418  1.5503 -0.1287 -0.3826
  778WAT    EPW 3820   5.309   5.640   5.476  0.4755  0.0761 -0.1734
  779WAT      O 3821   4.373   6.616   7.323  0.3249  0.1444  0.5183
  779WAT     H1 3822   4.446   6.600   7.368  1.0704  0.5920 -0.4896
  779WAT     H2 3823   4.390   6.584   7.244 -0.7691 -0.1866  0.4026
  779WAT    EPW 3824   4.386   6.609   7.318 -0.0432  0.2035 -0.3988
  780WAT      O 3825   7.616   0.071   2.554 -0.4628  0.1289  0.0416
  780WAT     H1 3826   7.635  -0.013   2.542 -0.0188 -0.1466  2.1816
  780WAT     H2 3827   7.654   0.111   2.487  1.3918 -1.1575  0.2524
  780WAT    EPW 3828   7.624   0.064   2.543  0.5901 -0.4133 -0.3577
  781WAT      O 3829   7.392   6.957   0.928  0.3347  0.3404  0.6982
  781WAT     H1 3830   7.455   6.950   0.989  1.7327  0.5055 -0.6664
  781WAT     H2 3831   7.389   6.877   0.893 -1.1249 -0.0153  1.5675
  781WAT    EPW 3832   7.401   6.944   0.932  0.6963 -0.9923 -0.9247
  782WAT      O 3833   7.279   6.485   2.348 -0.3771  0.5183  0.1963
  782WAT     H1 3834   7.268   6.411   2.303  0.9584  1.1736 -1.3083
  782WAT     H2 3835   7.229   6.543   2.305  0.1349  0.9324  0.1515
  782WAT    EPW 3836   7.270   6.483   2.335 -0.2385 -0.5628  0.1052
  783WAT      O 3837   3.195   4.819   2.679 -0.0343  0.2950  0.2594
  783WAT     H1 3838   3.150   4.811   2.604 -1.4472  0.6003  1.0406
  783WAT     H2 3839   3.133   4.823   2.740  1.1115 -1.4163  1.6273
  783WAT    EPW 3840   3.179   4.818   2.677 -0.0891 -0.4708 -0.6735
  784WAT      O 3841   2.264   7.809   3.868 -0.3163 -0.2534 -0.5264
  784WAT     H1 3842   2.324   7.850   3.916  1.4726 -1.9710 -1.1325
  784WAT     H2 3843   2.258   7.858   3.796  0.0694  0.1556 -0.2865
  784WAT    EPW 3844   2.272   7.822   3.864 -0.2367 -0.1121 -0.2090
  785WAT      O 3845   5.571   0.652   1.045 -0.5728  0.1551  0.3197
  785WAT     H1 3846   5.608   0.625   0.971 -1.1647  2.7433 -1.0384
  785WAT     H2 3847   5.514   0.588   1.063 -0.7753 -0.3368 -1.7701
  785WAT    EPW 3848   5.568   0.639   1.037 -0.3775  0.0218 -0.3841
  786WAT      O 3849   0.215   3.213   2.435 -0.0161  0.2649  0.3761
  786WAT     H1 3850   0.149   3.156   2.427  1.7769 -1.8098 -0.7131
  786WAT     H2 3851   0.280   3.175   2.392  2.2564  1.6854  2.3188
  786WAT    EPW 3852   0.215   3.199   2.428 -0.2141 -0.0020  0.1991
  787WAT      O 3853   5.763   6.739   7.706 -0.3069 -0.2722  0.2896
  787WAT     H1 3854   5.687   6.696   7.705 -0.2047 -0.5894  2.2887
  787WAT     H2 3855   5.763   6.778   7.784  1.6251 -0.3612  0.3725
  787WAT    EPW 3856   5.752   6.739   7.717 -0.4726  0.9811 -0.4816
  788WAT      O 3857   6.082   3.048   2.611 -0.0147 -0.7887 -0.3177
  788WAT     H1 3858   6.067   3.108   2.549  1.6179  0.0669  0.0561
  788WAT     H2 3859   6.133   2.990   2.570  0.9711 -0.2803  0.1386
  788WAT    EPW 3860   6.087   3.049   2.596 -0.2170  0.1038 -0.1774
  789WAT      O 3861   5.799   6.444   1.642 -0.2938  0.9502 -0.0444
  789WAT     H1 3862   5.750   6.410   1.705  0.4022 -0.5469 -0.2624
  789WAT     H2 3863   5.742   6.487   1.592 -1.0247  1.1318  0.9183
  789WAT    EPW 3864   5.784   6.445   1.644  0.0744 -0.0996 -0.6019
  790WAT      O 3865   0.669   4.861   0.857  0.2771  0.5711  0.5989
  790WAT     H1 3866   0.732   4.915   0.830 -0.3769  0.9795 -0.1562
  790WAT     H2 3867   0.653   4.811   0.787 -0.4422  0.6767  0.6772
  790WAT    EPW 3868   0.676   4.862   0.843  0.1122  0.2215 -0.1108
  791WAT      O 3869   6.815   3.521   1.158  0.1221 -0.2622 -0.4905
  791WAT     H1 3870   6.756   3.585   1.160  0.3873  0.1002 -2.3839
  791WAT     H2 3871   6.871   3.546   1.096  1.3671 -1.3811  0.1317
  791WAT    EPW 3872   6.814   3.534   1.149  0.1319 -0.0770 -0.5202
  792WAT      O 3873   2.328   1.203   1.966 -0.1627  0.5375  0.1335
  792WAT     H1 3874   2.368   1.125   1.967 -0.6869  0.2631 -0.2132
  792WAT     H2 3875   2.244   1.183   1.966 -0.3026  1.1134  0.1644
  792WAT    EPW 3876   2.322   1.189   1.966  0.5408 -0.5087 -0.4160
  793WAT      O 3877   4.723   6.174   1.322 -0.0935  0.6271  0.1171
  793WAT     H1 3878   4.785   6.145   1.268 -0.4673 -1.0425  0.5193
  793WAT     H2 3879   4.768   6.207   1.389  0.3790  2.9518 -1.2505
  793WAT    EPW 3880   4.739   6.175   1.324  0.3171  0.1288 -0.3427
  794WAT      O 3881   1.416   1.793   0.406 -0.4809 -0.2770 -0.2678
  794WAT     H1 3882   1.466   1.790   0.478 -0.3217  0.7927 -0.3168
  794WAT     H2 3883   1.366   1.722   0.413  0.6327 -1.0536  0.0912
  794WAT    EPW 3884   1.416   1.782   0.418  0.4279  0.0728  0.0498
  795WAT      O 3885   5.421   5.237   0.074 -0.1812 -0.1354  0.1417
  795WAT     H1 3886   5.430   5.321   0.054 -0.2922  0.0511  0.8296
  795WAT     H2 3887   5.376   5.204   0.007  1.3981 -0.0485 -1.0198
  795WAT    EPW 3888   5.416   5.244   0.061 -0.2444 -0.3650  0.4212
  796WAT      O 3889   3.766   2.576   5.960  0.0001  0.7065 -0.0177
  796WAT     H1 3890   3.749   2.648   6.005  1.4086  0.7070  0.5426
  796WAT     H2 3891   3.822   2.602   5.899  1.9048 -0.1828  1.2543
  796WAT    EPW 3892   3.772   2.590   5.957  0.4599 -0.2168 -0.1024
  797WAT      O 3893   4.009   6.833   2.248  0.0015 -0.6218  0.0503
  797WAT     H1 3894   3.938   6.835   2.298 -0.2366  0.4977 -0.3242
  797WAT     H2 3895   3.995   6.765   2.195 -1.2082  0.1341 -0.6205
  797WAT    EPW 3896   3.997   6.823   2.247 -0.6567 -0.7916 -0.4225
  798WAT      O 3897   5.533   3.932   1.781  0.2479  0.2755  0.9793
  798WAT     H1 3898   5.551   4.009   1.746 -1.1721  0.6927  1.0992
  798WAT     H2 3899   5.494   3.888   1.717  0.2101  0.0040  1.1836
  798WAT    EPW 3900   5.530   3.937   1.766 -0.1910  0.4623 -0.0129
  799WAT      O 3901   1.233   6.402   2.792 -0.2382  0.3487 -0.5673
  799WAT     H1 3902   1.287   6.416   2.859 -0.0098  2.0939 -1.0497
  799WAT     H2 3903   1.287   6.403   2.723 -0.4936 -1.2287 -0.8188
  799WAT    EPW 3904   1.249   6.404   2.792 -0.1186  0.2872  0.2359
  800WAT      O 3905   4.019   4.716   5.875 -0.0406 -0.0903 -0.2116
  800WAT     H1 3906   4.018   4.629   5.862  0.9155 -0.2504  0.6320
  800WAT     H2 3907   4.000   4.748   5.796 -0.0424 -1.0603 -0.6290
  800WAT    EPW 3908   4.016   4.708   5.862 -0.1117 -0.1034  0.7555
  801WAT      O 3909   4.282   1.153   1.767  0.7017 -0.1356 -0.6515
  801WAT     H1 3910   4.220   1.149   1.828  1.3728  1.0623  0.1631
  801WAT     H2 3911   4.238   1.146   1.692 -0.1346 -1.6418 -0.0501
  801WAT    EPW 3912   4.267   1.152   1.765  0.1755 -0.4344 -0.1002
  802WAT      O 3913   6.909   1.804   0.230 -0.6975  0.0984 -0.4071
  802WAT     H1 3914   6.837   1.844   0.259 -0.8863  0.5778 -1.5010
  802WAT     H2 3915   6.882   1.722   0.215 -0.7350 -0.0078  0.1797
  802WAT    EPW 3916   6.894   1.797   0.232 -0.6020 -0.1381 -0.7747
  803WAT      O 3917   2.187   0.726   3.683  0.7211 -0.4422 -0.2979
  803WAT     H1 3918   2.182   0.776   3.754  2.1543 -1.5204  0.6214
  803WAT     H2 3919   2.125   0.666   3.695  0.8293 -0.5049 -0.0545
  803WAT    EPW 3920   2.177   0.725   3.695  0.8480 -0.0714  0.4118
  804WAT      O 3921   2.331   2.482   7.290 -0.5534 -0.2010 -0.5724
  804WAT     H1 3922   2.255   2.469   7.331 -0.2386 -0.7972 -0.1614
  804WAT     H2 3923   2.363   2.553   7.329 -0.7982 -0.0726 -0.6008
  804WAT    EPW 3924   2.325   2.490   7.302  0.0532  0.5935 -1.0469
  805WAT      O 3925   6.511   3.869   7.567 -0.2855  0.4701  0.1747
  805WAT     H1 3926   6.475   3.791   7.551 -1.3299  0.9354  0.1114
  805WAT     H2 3927   6.589   3.864   7.530 -0.8043 -0.1385 -0.8846
  805WAT    EPW 3928   6.517   3.856   7.560 -0.2888  0.8507  0.1748
  806WAT      O 3929   2.821   1.469   2.132  0.0558  0.5896 -0.6746
  806WAT     H1 3930   2.865   1.530   2.175  0.1100  0.4043 -0.4630
  806WAT     H2 3931   2.791   1.417   2.195  2.2160 -1.1083 -0.9456
  806WAT    EPW 3932   2.823   1.470   2.148  0.0899 -0.2935  0.4160
  807WAT      O 3933   0.551   6.563   3.347  0.2066 -0.0086  0.2478
  807WAT     H1 3934   0.515   6.607   3.281 -0.5398  2.5175  2.1911
  807WAT     H2 3935   0.485   6.515   3.378 -0.0481  0.5491  0.5638
  807WAT    EPW 3936   0.536   6.562   3.341 -0.1070  0.0162  0.2410
  808WAT      O 3937   0.537   4.507   0.849  0.3946  0.2124  0.2396
  808WAT     H1 3938   0.558   4.542   0.772  0.4846 -0.8911 -0.2458
  808WAT     H2 3939   0.458   4.541   0.866 -0.0438 -0.2614 -0.7909
  808WAT    EPW 3940   0.528   4.517   0.840  0.0547  0.1658 -0.4192
  809WAT      O 3941   1.681   3.241   7.006 -0.1042 -0.2645 -0.9789
  809WAT     H1 3942   1.743   3.228   6.945  0.6191  0.2208 -0.3702
  809WAT     H2 3943   1.621   3.288   6.964 -0.1030 -0.8176 -1.6086
  809WAT    EPW 3944   1.682   3.246   6.991  0.2512  0.2457  0.3993
  810WAT      O 3945   2.281   5.237   3.060 -0.5279  0.2768 -0.1974
  810WAT     H1 3946   2.365   5.249   3.080 -0.6220  1.1596 -0.2762
  810WAT     H2 3947   2.254   5.317   3.036 -1.0690 -0.2334 -1.3784
  810WAT    EPW 3948   2.289   5.251   3.059 -0.7374  0.3036  0.3786
  811WAT      O 3949   0.902   7.745   3.331  0.0504  0.5626 -0.0616
  811WAT     H1 3950   0.942   7.821   3.320 -0.1634  0.6625 -0.1424
  811WAT     H2 3951   0.854   7.735   3.258  1.5253 -0.5364 -0.9415
  811WAT    EPW 3952   0.901   7.754   3.319 -0.1788 -0.3347 -0.0563
  812WAT      O 3953   7.671   6.723   0.309 -0.6477 -0.4209  0.0188
  812WAT     H1 3954   7.644   6.760   0.234 -1.2523  1.8208  1.2769
  812WAT     H2 3955   7.597   6.698   0.347 -0.2753 -2.6359 -0.5886
  812WAT    EPW 3956   7.656   6.725   0.303 -0.3564 -0.2537  0.8396
  813WAT      O 3957   5.350   1.031   0.871  0.3170  0.4642  0.3747
  813WAT     H1 3958   5.290   0.985   0.827 -0.4906  0.5679  1.3182
  813WAT     H2 3959   5.338   1.005   0.954  1.4290  0.6665  0.6079
  813WAT    EPW 3960   5.339   1.021   0.877  0.2485  0.3920  0.1227
  814WAT      O 3961   2.029   1.161   1.771 -0.0844 -0.0224  0.2830
  814WAT     H1 3962   2.021   1.248   1.773 -0.1748 -0.0434  1.2217
  814WAT     H2 3963   2.105   1.148   1.728  0.2686  0.5427  0.7303
  814WAT    EPW 3964   2.039   1.172   1.765  1.1124  0.2690 -0.0915
  815WAT      O 3965   3.876   3.055   1.464 -0.0461 -0.2145 -0.6386
  815WAT     H1 3966   3.854   3.064   1.548  2.5130  0.9727  0.0014
  815WAT     H2 3967   3.883   3.136   1.435  1.8847 -0.5041 -1.1404
  815WAT    EPW 3968   3.874   3.068   1.472  0.0796  0.9252  0.3167
  816WAT      O 3969   5.592   1.910   7.823 -0.0865  0.0923  0.3015
  816WAT     H1 3970   5.557   1.907   7.903 -2.2557  2.9503 -0.3729
  816WAT     H2 3971   5.544   1.852   7.778 -0.4304  0.1675  0.5640
  816WAT    EPW 3972   5.580   1.901   7.828 -0.1102 -0.0057 -0.2999
  817WAT      O 3973   6.231   4.476   1.571 -0.1433 -0.0349 -0.5588
  817WAT     H1 3974   6.258   4.557   1.586 -2.4221  0.5370  0.9786
  817WAT     H2 3975   6.207   4.478   1.487 -0.1394  0.9006 -0.5492
  817WAT    EPW 3976   6.231   4.488   1.561  0.4574 -0.3831 -0.7359
  818WAT      O 3977   0.629   7.556   0.490  0.2584 -0.3231 -0.0696
  818WAT     H1 3978   0.696   7.610   0.505 -1.1587  1.6654 -0.4709
  818WAT     H2 3979   0.621   7.512   0.565  2.3101 -1.0153 -0.2065
  818WAT    EPW 3980   0.638   7.558   0.504  0.4086 -0.0027 -0.4488
  819WAT      O 3981   5.171   3.986   6.467 -0.3604  0.0392  0.0838
  819WAT     H1 3982   5.098   3.977   6.514  0.9785 -0.9958  2.0883
  819WAT     H2 3983   5.143   4.029   6.395 -2.8022  0.1892  1.0077
  819WAT    EPW 3984   5.156   3.991   6.463 -0.0863 -0.2062 -0.4003
  820WAT      O 3985   7.554   2.196   1.749  0.7400 -0.3074 -0.1602
  820WAT     H1 3986   7.599   2.251   1.698  0.5671 -0.8241 -0.8865
  820WAT     H2 3987   7.593   2.204   1.827  0.5645  1.0097 -0.1844
  820WAT    EPW 3988   7.567   2.205   1.753 -0.3012 -0.0593  0.5251
  821WAT      O 3989   0.367   5.095   2.648 -0.3523 -0.2590 -0.4664
  821WAT     H1 3990   0.414   5.052   2.707  0.2714  0.1278 -0.6752
  821WAT     H2 3991   0.334   5.162   2.693 -0.3580 -0.2875 -0.4276
  821WAT    EPW 3992   0.369   5.098   2.663 -0.6305 -0.3153 -0.3854
  822WAT      O 3993   0.921   4.603   3.748  0.0581  0.2085  0.5562
  822WAT     H1 3994   0.856   4.571   3.797 -0.4637  0.0929 -0.1985
  822WAT     H2 3995   0.982   4.541   3.751  0.5687  0.7422  2.0839
  822WAT    EPW 3996   0.921   4.589   3.756 -0.0421  0.8015 -0.1668
  823WAT      O 3997   1.011   7.451   1.806  0.1633  0.2340  0.2844
  823WAT     H1 3998   1.077   7.394   1.817 -0.2911 -0.4245 -0.3119
  823WAT     H2 3999   0.961   7.438   1.876 -0.7867 -1.2987 -0.6116
  823WAT    EPW 4000   1.013   7.441   1.818 -0.2329 -0.3233 -0.3723
  824WAT      O 4001   5.698   2.887   5.406  0.0406 -0.2358  0.2101
  824WAT     H1 4002   5.720   2.947   5.346 -0.9044 -0.0332  0.0448
  824WAT     H2 4003   5.711   2.929   5.481  0.3735 -0.1806  0.1246
  824WAT    EPW 4004   5.703   2.902   5.408 -0.0185 -0.1526  0.1726
  825WAT      O 4005   3.060   2.826   7.170 -0.0986 -0.3423 -0.3069
  825WAT     H1 4006   3.085   2.867   7.243 -0.7684  0.5443 -0.5617
  825WAT     H2 4007   3.035   2.891   7.117 -1.2856 -1.0784 -0.6884
  825WAT    EPW 4008   3.060   2.842   7.173  0.1453 -0.4581  0.1329
  826WAT      O 4009   6.370   6.365   2.349  0.2994  0.0666  0.3010
  826WAT     H1 4010   6.442   6.323   2.374 -1.6838 -2.8192  1.7276
  826WAT     H2 4011   6.380   6.376   2.263  2.5628  0.1436  0.5248
  826WAT    EPW 4012   6.382   6.361   2.340 -0.1761 -0.6275 -0.0379
  827WAT      O 4013   0.352   3.954   3.711  0.4313  0.2648  0.2738
  827WAT     H1 4014   0.310   3.892   3.667  1.6430 -0.2674 -0.1620
  827WAT     H2 4015   0.434   3.925   3.716  0.5019  0.6627  2.2450
  827WAT    EPW 4016   0.358   3.941   3.705 -0.0341  0.1198  0.1833
  828WAT      O 4017   4.238   2.240   1.529 -0.1526 -0.0024 -0.3814
  828WAT     H1 4018   4.157   2.255   1.560  0.1200 -0.5682  0.6229
  828WAT     H2 4019   4.259   2.162   1.561  0.1552 -0.6473 -2.0176
  828WAT    EPW 4020   4.229   2.231   1.538  0.2386 -0.0434 -0.0311
  829WAT      O 4021   1.928   4.164   0.503  0.2540 -0.0717  0.0082
  829WAT     H1 4022   1.910   4.088   0.466  2.6225 -0.3342 -0.7921
  829WAT     H2 4023   2.010   4.153   0.533  0.0367  1.6091  1.3808
  829WAT    EPW 4024   1.937   4.151   0.502 -0.5365  0.2668 -0.1293
  830WAT      O 4025   2.115   4.482   6.557 -0.2736 -0.4591 -0.5473
  830WAT     H1 4026   2.089   4.467   6.475  0.0105 -0.7897 -0.5757
  830WAT     H2 4027   2.144   4.564   6.554  3.3174 -1.6018 -1.7175
  830WAT    EPW 4028   2.115   4.492   6.545 -0.0208 -0.6061  0.1475
  831WAT      O 4029   5.265   2.755   4.402 -0.0350 -0.4879  0.6059
  831WAT     H1 4030   5.233   2.696   4.459  0.3892 -1.1921  0.1319
  831WAT     H2 4031   5.240   2.724   4.325 -0.2963  0.2755  0.3855
  831WAT    EPW 4032   5.257   2.742   4.399  0.0086  0.2917 -0.4220
  832WAT      O 4033   2.662   0.868   1.666  0.6190 -0.4176 -0.2250
  832WAT     H1 4034   2.658   0.924   1.599  0.0668 -1.1915 -0.8593
  832WAT     H2 4035   2.742   0.882   1.700  0.4250  0.8532 -0.2603
  832WAT    EPW 4036   2.674   0.878   1.661  0.2059 -0.1154  0.0403
  833WAT      O 4037   7.040   4.597   1.850  0.1053  0.3846 -0.1573
  833WAT     H1 4038   7.077   4.615   1.927  0.7905  0.4656 -0.4987
  833WAT     H2 4039   6.987   4.665   1.837 -1.6262 -0.6314  1.2121
  833WAT    EPW 4040   7.038   4.610   1.860  0.1797 -0.3416 -0.2370
  834WAT      O 4041   4.862   6.791   5.566  0.5241  0.3906 -0.1794
  834WAT     H1 4042   4.894   6.710   5.573  0.2446  0.4449  2.6197
  834WAT     H2 4043   4.786   6.779   5.525  0.7900 -0.6724 -0.3943
  834WAT    EPW 4044   4.855   6.777   5.561  0.3229 -0.2080 -0.3259
  835WAT      O 4045   2.669   3.334   5.794 -0.0666  0.0518  0.5965
  835WAT     H1 4046   2.592   3.375   5.796 -0.5845 -0.8355 -0.3690
  835WAT     H2 4047   2.726   3.398   5.776 -0.7366  0.5143  0.0724
  835WAT    EPW 4048   2.666   3.350   5.792 -0.0698 -0.5239  0.3090
  836WAT      O 4049   2.532   4.589   2.479  0.7310 -0.0425 -0.2456
  836WAT     H1 4050   2.500   4.509   2.463  2.2172 -0.3682 -1.9948
  836WAT     H2 4051   2.614   4.572   2.507  0.4644  0.8458  1.1834
  836WAT    EPW 4052   2.540   4.575   2.481  0.2855  0.6682  0.2554
  837WAT      O 4053   3.281   1.422   4.385 -0.7093  0.2163 -0.2933
  837WAT     H1 4054   3.270   1.416   4.299 -1.1012 -0.2398 -0.2131
  837WAT     H2 4055   3.207   1.389   4.418  0.4746 -2.1485  0.2482
  837WAT    EPW 4056   3.268   1.416   4.377  0.3685 -0.5483 -0.1511
  838WAT      O 4057   7.460   5.585   1.931  0.1420 -0.0787 -0.1116
  838WAT     H1 4058   7.498   5.511   1.906 -0.8614 -0.7009  0.1367
  838WAT     H2 4059   7.375   5.568   1.924 -0.1133  0.9089  0.3511
  838WAT    EPW 4060   7.453   5.571   1.927  0.3092 -0.1902 -0.1521
  839WAT      O 4061   7.516   5.660   1.597  0.5985 -0.2765  0.3402
  839WAT     H1 4062   7.480   5.590   1.558  0.2047  0.6239 -0.9726
  839WAT     H2 4063   7.522   5.636   1.680 -1.6747 -1.0446  0.3507
  839WAT    EPW 4064   7.512   5.646   1.603  0.7528 -0.1991  0.4108
  840WAT      O 4065   5.157   6.440   7.585 -0.4096 -0.1880  0.0787
  840WAT     H1 4066   5.221   6.400   7.628  0.2725 -0.4498 -1.1498
  840WAT     H2 4067   5.158   6.521   7.617 -0.4860 -0.5972  1.1546
  840WAT    EPW 4068   5.166   6.446   7.596  0.4658 -0.0909 -0.0324
  841WAT      O 4069   6.182   3.936   7.058 -0.7484  0.3785  0.3950
  841WAT     H1 4070   6.096   3.930   7.044 -0.4239 -0.4543 -1.4643
  841WAT     H2 4071   6.199   3.869   7.111 -1.3529  1.1026  1.5529
  841WAT    EPW 4072   6.172   3.926   7.064  0.0697 -0.1756 -0.0941
  842WAT      O 4073   6.134   4.142   1.340 -0.1600  0.2290 -0.4338
  842WAT     H1 4074   6.155   4.192   1.271 -0.1122 -0.7069 -1.1212
  842WAT     H2 4075   6.209   4.103   1.361 -0.6166 -1.1754 -1.2783
  842WAT    EPW 4076   6.148   4.144   1.333  0.4954 -0.2545 -0.3157
  843WAT      O 4077   4.364   1.678   6.217  0.1624  0.0337  0.5059
  843WAT     H1 4078   4.411   1.605   6.227  0.7500  0.1081 -1.4111
  843WAT     H2 4079   4.281   1.649   6.220  0.3578 -0.4725  1.3039
  843WAT    EPW 4080   4.358   1.663   6.219  0.0098  0.3981  0.2068
  844WAT      O 4081   6.802   0.473   1.236  0.4309 -0.3456 -0.2117
  844WAT     H1 4082   6.730   0.447   1.277  0.2747  0.5729  0.1033
  844WAT     H2 4083   6.830   0.400   1.196  0.2997 -1.1180  1.0713
  844WAT    EPW 4084   6.795   0.458   1.236  0.4203 -0.5285  0.5659
  845WAT      O 4085   7.598   1.048   2.652  0.0576 -0.3294 -0.1454
  845WAT     H1 4086   7.675   1.063   2.691 -0.3374  1.7953 -0.1029
  845WAT     H2 4087   7.559   0.991   2.705  0.9097 -0.0943  0.7519
  845WAT    EPW 4088   7.604   1.042   2.666  0.2278 -0.2637 -0.4616
  846WAT      O 4089   6.261   7.756   0.025  0.1311 -0.0936 -0.1283
  846WAT     H1 4090   6.325   7.756   0.084 -1.1365 -0.0602  1.3098
  846WAT     H2 4091   6.299   7.785  -0.047  1.7290 -0.0895  0.6840
  846WAT    EPW 4092   6.276   7.760   0.023  0.4585 -0.5483 -0.2060
  847WAT      O 4093   7.302   1.802   4.664  1.0750 -0.0741  0.4136
  847WAT     H1 4094   7.330   1.819   4.744  0.1780 -2.3245  1.2976
  847WAT     H2 4095   7.258   1.873   4.642  1.8528  0.8313  1.6561
  847WAT    EPW 4096   7.300   1.815   4.672  0.2829  0.2832 -0.0121
  848WAT      O 4097   7.325   4.012   2.826 -0.2915  0.1825 -0.0960
  848WAT     H1 4098   7.260   3.981   2.875 -0.6539  1.7440  0.4569
  848WAT     H2 4099   7.394   3.966   2.853 -1.0123 -0.9672 -0.1613
  848WAT    EPW 4100   7.326   4.001   2.837 -0.2640 -0.6066  0.0110
  849WAT      O 4101   2.166   2.776   1.322  0.1402 -0.4968  0.3723
  849WAT     H1 4102   2.241   2.809   1.353  1.0906 -1.8125 -0.4424
  849WAT     H2 4103   2.165   2.695   1.353 -0.9729 -0.4859  0.3869
  849WAT    EPW 4104   2.177   2.769   1.331  0.4573  0.8395 -0.6684
  850WAT      O 4105   1.011   2.909   0.924 -0.4200  0.4985  0.1954
  850WAT     H1 4106   1.097   2.920   0.927 -0.6412  2.4467  2.1339
  850WAT     H2 4107   0.999   2.832   0.964  0.3548  0.8823  1.2022
  850WAT    EPW 4108   1.022   2.899   0.930 -0.1906 -0.3657  0.6667
  851WAT      O 4109   4.689   4.577   7.516  0.1282  0.2620 -0.3179
  851WAT     H1 4110   4.715   4.575   7.433 -1.3778 -1.8429 -0.8224
  851WAT     H2 4111   4.720   4.503   7.549  0.1501  0.7666  0.8471
  851WAT    EPW 4112   4.697   4.566   7.508 -0.3757 -0.0404  0.3903
  852WAT      O 4113   3.551   6.803   0.575  0.3802  0.4479 -0.4485
  852WAT     H1 4114   3.487   6.850   0.612  0.1294 -0.5473  0.4553
  852WAT     H2 4115   3.530   6.802   0.491 -0.0973  1.1927 -0.3515
  852WAT    EPW 4116   3.538   6.810   0.568  0.1290  0.4214  0.0681
  853WAT      O 4117   4.513   4.819   7.099 -0.5640  0.3123 -0.4299
  853WAT     H1 4118   4.446   4.876   7.099 -0.7145  0.1377 -0.9461
  853WAT     H2 4119   4.583   4.870   7.091 -0.5550  0.5726  1.0047
  853WAT    EPW 4120   4.513   4.835   7.098 -0.2490  0.3391  0.3342
  854WAT      O 4121   3.983   2.914   7.715  0.1278  0.0246 -0.3078
  854WAT     H1 4122   4.067   2.921   7.695 -0.0335 -1.6230 -1.8084
  854WAT     H2 4123   3.950   2.992   7.694  1.1776  0.5302 -0.1342
  854WAT    EPW 4124   3.990   2.927   7.709  0.1805 -0.1705 -0.2808
  855WAT      O 4125   5.848   2.470   1.465 -0.1727 -0.0842  0.3541
  855WAT     H1 4126   5.824   2.537   1.515  0.1657  0.2798  0.0456
  855WAT     H2 4127   5.774   2.427   1.451 -0.6587  0.9653 -0.5135
  855WAT    EPW 4128   5.834   2.474   1.470  0.3290  0.5570 -0.7373
  856WAT      O 4129   4.766   0.446   0.163 -0.3054  0.0783 -0.3134
  856WAT     H1 4130   4.794   0.369   0.133 -0.0378  0.2485 -0.5118
  856WAT     H2 4131   4.692   0.427   0.204  0.5959 -0.5423  1.0940
  856WAT    EPW 4132   4.759   0.432   0.165 -0.3177  0.0887  0.4178
  857WAT      O 4133   2.209   0.051   5.935  0.2173  0.0668 -0.2872
  857WAT     H1 4134   2.127   0.020   5.939 -0.5409  1.6512 -2.0931
  857WAT     H2 4135   2.257  -0.019   5.915 -0.7285 -0.8262  0.4646
  857WAT    EPW 4136   2.204   0.036   5.933  0.6254  0.5289  0.3222
  858WAT      O 4137   1.885   2.553   1.431  0.3075  0.0255  0.4407
  858WAT     H1 4138   1.867   2.637   1.446  2.0067  0.6394 -0.6222
  858WAT     H2 4139   1.807   2.515   1.428 -0.4985  1.5497  1.0280
  858WAT    EPW 4140   1.871   2.560   1.433  0.0384 -0.3601 -0.1578
  859WAT      O 4141   0.050   5.382   3.918 -0.1560  0.3161  0.0425
  859WAT     H1 4142  -0.036   5.390   3.931 -0.3328  0.0370 -0.9116
  859WAT     H2 4143   0.083   5.394   3.998 -1.0080  1.3397  0.2712
  859WAT    EPW 4144   0.042   5.385   3.932  0.6726  0.0757 -0.3685
  860WAT      O 4145   6.842   2.923   0.488  0.1816 -0.7262  0.4417
  860WAT     H1 4146   6.849   2.858   0.431 -0.5984 -0.5500  0.1305
  860WAT     H2 4147   6.828   2.882   0.564  0.4894 -0.9401  0.3847
  860WAT    EPW 4148   6.841   2.907   0.491  0.4936  0.0032 -0.2024
  861WAT      O 4149   2.719   1.193   0.895  0.1005  0.0783  0.2768
  861WAT     H1 4150   2.788   1.234   0.929 -0.6902 -0.1472  2.2749
  861WAT     H2 4151   2.732   1.200   0.809  2.8907 -0.4287  0.5541
  861WAT    EPW 4152   2.731   1.200   0.887  0.1008  0.0106  0.1655
  862WAT      O 4153   0.540   7.542   1.111 -0.2224 -0.6335  0.6436
  862WAT     H1 4154   0.544   7.502   1.033 -0.5493 -0.3406  0.4730
  862WAT     H2 4155   0.483   7.494   1.156  0.2191 -0.9997  0.8237
  862WAT    EPW 4156   0.532   7.529   1.106  0.4272 -0.5221  0.1753
  863WAT      O 4157   3.647   3.520   7.420  0.3171  0.1699  0.6924
  863WAT     H1 4158   3.616   3.599   7.400  0.4973 -0.0888 -0.7319
  863WAT     H2 4159   3.609   3.502   7.496  0.5900  1.7863  1.2571
  863WAT    EPW 4160   3.637   3.529   7.428  0.4741 -0.4671 -0.0701
  864WAT      O 4161   5.986   4.957   4.450  0.2144 -0.5929  0.4035
  864WAT     H1 4162   6.036   5.029   4.456  1.9096 -1.6796  0.0073
  864WAT     H2 4163   5.948   4.952   4.528  1.0987  0.0099  0.8915
  864WAT    EPW 4164   5.988   4.967   4.462 -0.9650  0.4682 -0.0179
  865WAT      O 4165   0.051   0.995   0.800  0.1929  0.3833  0.0564
  865WAT     H1 4166   0.060   1.069   0.845 -0.6280  0.2134  0.5123
  865WAT     H2 4167   0.047   1.021   0.717  0.5509  0.7915  0.1655
  865WAT    EPW 4168   0.052   1.010   0.795  0.0781  0.6391 -0.0904
  866WAT      O 4169   6.760   6.021   0.113 -0.4854 -0.1155  0.2082
  866WAT     H1 4170   6.731   6.070   0.179  0.4438 -0.8165  1.1784
  866WAT     H2 4171   6.838   5.994   0.141 -0.0908 -0.4705 -1.1722
  866WAT    EPW 4172   6.767   6.025   0.127 -0.6998  0.1184  0.1067
  867WAT      O 4173   1.156   2.908   2.456 -0.1112 -0.0343  0.0880
  867WAT     H1 4174   1.200   2.893   2.382  1.2451  0.4912  0.7541
  867WAT     H2 4175   1.154   2.995   2.462 -1.0803 -0.0520  0.1838
  867WAT    EPW 4176   1.162   2.919   2.446  0.8690  0.0156  0.2085
  868WAT      O 4177   3.848   2.491   4.388  0.1718 -0.6569 -0.1032
  868WAT     H1 4178   3.804   2.552   4.434  0.7993  0.5610 -1.0482
  868WAT     H2 4179   3.852   2.424   4.443  0.1047  0.4237  1.3054
  868WAT    EPW 4180   3.842   2.490   4.403 -0.4209 -0.1661 -0.0298
  869WAT      O 4181   5.554   4.416   1.261  0.0688 -0.7169 -0.4812
  869WAT     H1 4182   5.624   4.369   1.239  0.5613 -0.0609 -0.3295
  869WAT     H2 4183   5.496   4.396   1.199  0.5027 -1.0182 -0.7965
  869WAT    EPW 4184   5.556   4.406   1.248 -0.1192 -0.2872  0.0183
  870WAT      O 4185   7.351   5.222   2.472 -0.2533  0.3466 -0.5390
  870WAT     H1 4186   7.436   5.236   2.482 -0.1030  0.1691 -1.5029
  870WAT     H2 4187   7.340   5.140   2.499 -0.2506  0.6086  0.2760
  870WAT    EPW 4188   7.362   5.212   2.477 -0.0708  0.2826 -0.2510
  871WAT      O 4189   5.276   0.183   6.271  0.1478 -0.6416 -0.1787
  871WAT     H1 4190   5.322   0.152   6.204 -0.8072 -0.5095 -0.9182
  871WAT     H2 4191   5.193   0.165   6.249 -0.6997  3.5512 -1.4151
  871WAT    EPW 4192   5.270   0.176   6.258  0.2854  0.4962  0.2567
  872WAT      O 4193   2.602   1.917   7.399  0.2437 -0.1048  0.2180
  872WAT     H1 4194   2.601   1.988   7.349 -1.2398  1.4434  2.2643
  872WAT     H2 4195   2.670   1.871   7.369  0.2768  1.3730 -2.2070
  872WAT    EPW 4196   2.612   1.920   7.387  0.0106 -0.5510 -0.2521
  873WAT      O 4197   2.081   6.232   6.994 -0.3675  0.3893 -0.3505
  873WAT     H1 4198   2.053   6.250   6.913  0.3337 -1.0078 -0.9309
  873WAT     H2 4199   2.159   6.271   6.997  2.1067 -3.7388 -2.3331
  873WAT    EPW 4200   2.088   6.241   6.982  0.4659  0.1451 -0.1311
  874WAT      O 4201   7.157   1.196   2.139  0.1010  0.0689 -0.1100
  874WAT     H1 4202   7.070   1.198   2.140  0.0870  0.8797  1.5810
  874WAT     H2 4203   7.177   1.128   2.190  0.4582 -0.0943 -0.4644
  874WAT    EPW 4204   7.148   1.187   2.147  0.3062  0.5958  0.0337
  875WAT      O 4205   6.546   7.516   7.950  0.0604 -0.4789  0.2309
  875WAT     H1 4206   6.490   7.449   7.950 -0.3980 -0.1183  1.3628
  875WAT     H2 4207   6.511   7.571   7.892 -0.8007 -0.2430  0.9500
  875WAT    EPW 4208   6.532   7.514   7.941  0.3243 -0.1115  0.1422
  876WAT      O 4209   2.869   6.798   7.824 -0.5769 -0.1299 -0.0844
  876WAT     H1 4210   2.896   6.741   7.884 -0.6523  0.5514  0.6101
  876WAT     H2 4211   2.837   6.864   7.871 -0.2358  0.6177 -0.8710
  876WAT    EPW 4212   2.868   6.799   7.839  0.5764 -0.1362  0.2761
  877WAT      O 4213   7.403   4.071   4.418 -0.2440  0.1812  0.0244
  877WAT     H1 4214   7.430   3.989   4.426 -1.2050 -0.1454  0.0152
  877WAT     H2 4215   7.471   4.112   4.383  0.9899 -0.1714  1.8841
  877WAT    EPW 4216   7.417   4.065   4.414 -0.2603 -0.3363  0.1896
  878WAT      O 4217   3.599   6.728   7.834  0.7345  0.1416 -0.1731
  878WAT     H1 4218   3.564   6.774   7.899 -0.8275  0.1766 -0.9903
  878WAT     H2 4219   3.547   6.745   7.766  1.3931 -1.1257 -1.0454
  878WAT    EPW 4220   3.586   6.737   7.834 -0.0385 -0.8544 -0.9473
  879WAT      O 4221   6.854   5.851   3.477 -0.1491 -0.2158  0.1540
  879WAT     H1 4222   6.877   5.769   3.458 -1.3785 -0.5284 -0.0685
  879WAT     H2 4223   6.916   5.899   3.440  0.3054 -1.0293 -0.1650
  879WAT    EPW 4224   6.867   5.846   3.469 -0.1769 -0.0304 -0.0896
  880WAT      O 4225   0.210   4.414   2.330  0.1503  0.3333  0.2386
  880WAT     H1 4226   0.201   4.432   2.245 -0.1482  0.3451  0.2713
  880WAT     H2 4227   0.291   4.441   2.349  1.1404 -1.8625 -0.5936
  880WAT    EPW 4228   0.220   4.421   2.320 -0.0656  0.2431  0.3482
  881WAT      O 4229   7.614   4.014   3.108  0.0896 -0.0209  0.5571
  881WAT     H1 4230   7.542   4.011   3.157  0.9849 -0.7104  1.8532
  881WAT     H2 4231   7.596   3.958   3.043 -0.2427 -0.7729  1.2853
  881WAT    EPW 4232   7.601   4.005   3.105 -0.2356  0.1787  0.2232
  882WAT      O 4233   1.977   1.414   6.788  0.5149 -0.3704  0.3881
  882WAT     H1 4234   2.035   1.430   6.725  0.2279 -0.2171  0.1577
  882WAT     H2 4235   1.915   1.475   6.774  0.1686 -0.7061  0.4586
  882WAT    EPW 4236   1.976   1.426   6.776  0.3168  0.3357 -0.1030
  883WAT      O 4237   6.179   5.208   0.336 -0.2558  0.1232 -0.2022
  883WAT     H1 4238   6.092   5.216   0.346 -0.1936 -0.0392  0.5073
  883WAT     H2 4239   6.209   5.288   0.353 -0.1626 -0.1200  0.8544
  883WAT    EPW 4240   6.170   5.221   0.340  0.3034  0.0768  0.4801
  884WAT      O 4241   5.401   1.554   0.204 -0.4684  0.1486  0.0822
  884WAT     H1 4242   5.483   1.583   0.196  0.1451 -1.5855 -0.2945
  884WAT     H2 4243   5.361   1.586   0.133 -0.0808  0.8587  0.1763
  884WAT    EPW 4244   5.407   1.563   0.192  0.4076 -0.0793 -0.0952
  885WAT      O 4245   0.355   6.032   3.282 -0.4171 -0.1283  0.1942
  885WAT     H1 4246   0.440   6.013   3.270  0.0555  1.0268  1.4530
  885WAT     H2 4247   0.352   6.060   3.364 -1.7393  1.4492 -0.3406
  885WAT    EPW 4248   0.367   6.033   3.292  0.3074 -0.6839 -0.3782
  886WAT      O 4249   3.717   6.476   3.444 -0.2454  0.1818 -0.1909
  886WAT     H1 4250   3.715   6.463   3.358 -0.8202  1.4191 -0.3930
  886WAT     H2 4251   3.726   6.563   3.451 -0.7345  0.1570  0.9848
  886WAT    EPW 4252   3.718   6.487   3.432 -0.3027 -0.1274  0.0245
  887WAT      O 4253   4.829   3.756   0.885 -0.1079 -0.1043  0.1574
  887WAT     H1 4254   4.745   3.740   0.901  0.0537 -1.4651 -0.2409
  887WAT     H2 4255   4.859   3.680   0.855  0.7391  0.9705 -1.9084
  887WAT    EPW 4256   4.821   3.742   0.883  0.1919 -0.3267 -0.5142
  888WAT      O 4257   4.660   4.001   0.407 -0.2820  0.3452 -0.5782
  888WAT     H1 4258   4.667   4.017   0.322 -0.9111  0.4173 -0.6192
  888WAT     H2 4259   4.583   4.035   0.428  1.1277  3.0618  0.6377
  888WAT    EPW 4260   4.650   4.008   0.398 -0.6445  0.1510  0.1334
  889WAT      O 4261   5.979   4.759   7.650  0.5866  0.0805  0.4558
  889WAT     H1 4262   6.017   4.707   7.591 -2.8597 -1.8998 -0.3760
  889WAT     H2 4263   5.965   4.705   7.718  3.3371  1.9895  2.7306
  889WAT    EPW 4264   5.982   4.743   7.651 -0.1818  0.0290  0.1186
  890WAT      O 4265   6.343   2.624   2.925  0.1017  0.2278  0.1830
  890WAT     H1 4266   6.394   2.692   2.943  0.1795  0.1179  0.3773
  890WAT     H2 4267   6.350   2.573   2.996 -0.8231  0.5421  0.5280
  890WAT    EPW 4268   6.351   2.627   2.938 -0.4464  0.2373  0.3517
  891WAT      O 4269   5.266   6.668   2.706 -0.1786 -0.0553 -0.1527
  891WAT     H1 4270   5.201   6.610   2.714  0.0114 -0.1256  1.0292
  891WAT     H2 4271   5.236   6.724   2.646 -0.5511 -1.1077 -0.9906
  891WAT    EPW 4272   5.252   6.667   2.698 -0.2869  0.6399 -0.5427
  892WAT      O 4273   0.800   3.791   0.446 -0.3860  0.3879  0.1476
  892WAT     H1 4274   0.715   3.787   0.465 -0.0659  0.0640  1.6733
  892WAT     H2 4275   0.806   3.856   0.389 -2.1948 -2.2107 -3.3650
  892WAT    EPW 4276   0.789   3.800   0.440  0.2677  0.2704  0.2922
  893WAT      O 4277   3.688   5.288   2.084  0.5139 -0.2349 -0.3697
  893WAT     H1 4278   3.663   5.359   2.040 -0.4174  1.4445  2.5692
  893WAT     H2 4279   3.652   5.300   2.163  2.2889 -2.8540  0.9691
  893WAT    EPW 4280   3.679   5.300   2.089 -0.7298 -0.4982  0.9838
  894WAT      O 4281   1.518   1.062   1.251 -0.7821 -0.0193 -0.0805
  894WAT     H1 4282   1.439   1.084   1.279 -1.3577 -0.2616 -1.4622
  894WAT     H2 4283   1.504   0.998   1.193  0.5136 -0.8629  0.4794
  894WAT    EPW 4284   1.504   1.056   1.246 -0.0507 -0.3770 -0.3578
  895WAT      O 4285   2.661   4.301   2.671  0.3251 -0.3445 -0.0787
  895WAT     H1 4286   2.709   4.229   2.659  2.0042  0.3939  1.5317
  895WAT     H2 4287   2.580   4.275   2.656  1.1173 -1.8866 -2.1195
  895WAT    EPW 4288   2.656   4.287   2.667  0.0110 -0.9439 -0.0784
  896WAT      O 4289   5.994   5.081   3.945  0.3864 -0.1492 -0.3076
  896WAT     H1 4290   5.981   5.025   4.011  1.8967  1.3947  1.3983
  896WAT     H2 4291   6.074   5.063   3.917  1.2162  1.5747  0.7858
  896WAT    EPW 4292   6.004   5.070   3.950 -0.4676  0.7969 -0.1587
  897WAT      O 4293   6.220   0.466   7.397 -0.2800  0.0867 -0.2057
  897WAT     H1 4294   6.158   0.428   7.446 -2.1850  0.1043 -2.4659
  897WAT     H2 4295   6.278   0.402   7.384 -0.7211 -0.4622  0.4327
  897WAT    EPW 4296   6.219   0.451   7.403 -0.0673  0.9751 -0.7323
  898WAT      O 4297   5.755   1.673   2.401  0.0183 -0.3789 -0.0832
  898WAT     H1 4298   5.768   1.660   2.316  0.0065 -0.1253 -0.1238
  898WAT     H2 4299   5.822   1.630   2.439  0.5274  0.2436 -0.2579
  898WAT    EPW 4300   5.767   1.665   2.394  0.1748 -0.1136 -0.1051
  899WAT      O 4301   5.239   3.579   2.070  0.5165 -0.0056 -0.7013
  899WAT     H1 4302   5.325   3.572   2.082  0.8597  1.7843 -1.7817
  899WAT     H2 4303   5.210   3.499   2.088  2.0035 -0.0009  2.5075
  899WAT    EPW 4304   5.248   3.566   2.074 -0.0113 -0.0622  0.4828
  900WAT      O 4305   4.460   6.078   4.046 -0.1638  0.2379  0.4619
  900WAT     H1 4306   4.481   6.161   4.062 -0.2758  0.2659  0.4664
  900WAT     H2 4307   4.377   6.073   4.072 -0.2178  0.1749  0.2799
  900WAT    EPW 4308   4.451   6.089   4.052  0.6601 -0.0096  0.2802
  901WAT      O 4309   5.403   4.941   4.963  0.3683  0.7801 -0.2884
  901WAT     H1 4310   5.448   4.866   4.963 -1.5107 -0.4335  0.8763
  901WAT     H2 4311   5.438   4.986   4.896  2.1325 -0.7430 -0.4753
  901WAT    EPW 4312   5.415   4.937   4.953  0.6172 -0.5049  0.0076
  902WAT      O 4313   5.594   5.053   0.789  0.0806 -0.1286 -0.1286
  902WAT     H1 4314   5.670   5.074   0.827 -0.5670  1.1092  0.5469
  902WAT     H2 4315   5.575   5.123   0.741 -1.3229  0.2182  0.8650
  902WAT    EPW 4316   5.603   5.067   0.788 -0.1965  0.2897 -0.2803
  903WAT      O 4317   8.039   7.874   0.056 -0.0434 -0.1851 -0.4379
  903WAT     H1 4318   8.062   7.791   0.047 -0.5282 -0.6533  1.9675
  903WAT     H2 4319   8.110   7.912   0.088 -0.3104 -0.0342 -0.0153
  903WAT    EPW 4320   8.053   7.868   0.060  0.0614  0.4301 -0.7192
  904WAT      O 4321   4.022   6.168   4.243  0.2105  0.0083 -0.0489
  904WAT     H1 4322   3.950   6.160   4.195 -2.5052 -2.4749  3.8506
  904WAT     H2 4323   4.044   6.252   4.234 -3.6897  1.1213 -0.8790
  904WAT    EPW 4324   4.015   6.179   4.235  0.4184  0.7235  0.4551
  905WAT      O 4325   4.983   7.997   5.112 -0.1356 -0.8666 -0.1333
  905WAT     H1 4326   4.931   8.011   5.181 -0.3626  0.2109 -0.5057
  905WAT     H2 4327   4.957   8.056   5.054  0.9369 -0.8668 -0.6478
  905WAT    EPW 4328   4.972   8.008   5.114 -0.4312 -0.0580 -0.3805
  906WAT      O 4329   5.428   5.830   6.406  0.9635 -0.3831  0.1913
  906WAT     H1 4330   5.416   5.847   6.321  0.3398 -1.9086 -0.0492
  906WAT     H2 4331   5.499   5.877   6.426  0.7963  0.4325 -1.0339
  906WAT    EPW 4332   5.437   5.839   6.396 -0.0320 -0.0024 -0.1502
  907WAT      O 4333   0.553   0.179   1.047 -0.4117  0.3120 -0.1536
  907WAT     H1 4334   0.524   0.149   0.970 -1.2529  1.0305 -0.1316
  907WAT     H2 4335   0.564   0.265   1.032 -1.5042  0.6405  0.7751
  907WAT    EPW 4336   0.550   0.188   1.033  0.3220 -0.3498  0.5580
  908WAT      O 4337   5.191   2.695   6.596  0.2515  0.1706  0.3315
  908WAT     H1 4338   5.212   2.778   6.611  1.0186 -0.0694  0.6781
  908WAT     H2 4339   5.207   2.655   6.672  0.2020 -0.3456  0.0779
  908WAT    EPW 4340   5.197   2.701   6.609  0.5769  0.4347  0.0231
  909WAT      O 4341   6.075   3.904   2.356 -0.7226  0.7640  0.2154
  909WAT     H1 4342   6.029   3.974   2.331 -1.0484  0.0983 -1.1192
  909WAT     H2 4343   6.155   3.920   2.326 -0.7969  0.5786 -0.0892
  909WAT    EPW 4344   6.080   3.917   2.348 -0.2312  0.4035  0.3852
  910WAT      O 4345   4.472   5.038   1.336  0.6607  0.1731 -0.3314
  910WAT     H1 4346   4.430   4.972   1.376 -0.2290  0.0380 -1.4261
  910WAT     H2 4347   4.494   5.004   1.259 -0.4083  1.3335 -1.1945
  910WAT    EPW 4348   4.469   5.023   1.330 -0.6448 -0.0970 -0.4711
  911WAT      O 4349   5.390   2.743   3.987  0.1467  0.5749  0.1060
  911WAT     H1 4350   5.329   2.786   3.942  0.9020  1.1025 -0.4498
  911WAT     H2 4351   5.461   2.793   3.978  1.1779 -0.9807 -0.9325
  911WAT    EPW 4352   5.391   2.757   3.979 -0.6923  0.1180 -0.2689
  912WAT      O 4353   7.038   3.395   4.035 -0.0545 -0.4246  0.5673
  912WAT     H1 4354   6.999   3.425   3.963 -0.8518 -1.3220  0.6120
  912WAT     H2 4355   7.090   3.332   4.005  0.5650  0.0413  0.6405
  912WAT    EPW 4356   7.040   3.390   4.020 -0.2756 -0.2446  0.4382
  913WAT      O 4357   6.260   4.014   7.338  0.1434 -0.2705  0.2984
  913WAT     H1 4358   6.268   3.992   7.254  0.5756 -0.7225  0.4542
  913WAT     H2 4359   6.314   3.959   7.379  0.6343  0.5615  0.7837
  913WAT    EPW 4360   6.269   4.003   7.332  0.5729 -0.6787 -0.1320
  914WAT      O 4361   4.979   2.574   5.093 -0.0891 -0.2943 -0.2578
  914WAT     H1 4362   4.992   2.659   5.110 -0.5575 -0.1499 -0.5982
  914WAT     H2 4363   4.964   2.540   5.171  1.6935 -0.3767  0.1058
  914WAT    EPW 4364   4.979   2.582   5.107  0.4023 -0.4126  0.3525
  915WAT      O 4365   6.024   0.562   7.894 -0.1704  0.0247  0.2740
  915WAT     H1 4366   6.097   0.525   7.927  1.1986  1.4714 -0.9605
  915WAT     H2 4367   6.016   0.524   7.816 -0.8304 -0.2106  0.4520
  915WAT    EPW 4368   6.034   0.551   7.887  0.4544  0.2549  0.1655
  916WAT      O 4369   1.104   6.243   1.779 -0.2137  0.3268  0.2184
  916WAT     H1 4370   1.170   6.193   1.749  1.3271  1.9576  0.7008
  916WAT     H2 4371   1.057   6.259   1.707  0.8932  0.5202 -0.5010
  916WAT    EPW 4372   1.107   6.238   1.764  0.1391 -0.2757 -0.0639
  917WAT      O 4373   2.152   1.195   4.147  0.8696 -0.4306  0.2093
  917WAT     H1 4374   2.219   1.143   4.168 -0.6540 -1.8559  1.8705
  917WAT     H2 4375   2.083   1.141   4.146 -0.2849  0.9484 -1.5487
  917WAT    EPW 4376   2.151   1.180   4.150  0.0330 -0.4677 -0.3772
  918WAT      O 4377   5.867   3.763   3.208  0.4125 -0.2403 -0.2020
  918WAT     H1 4378   5.939   3.796   3.245 -0.1397 -0.0705  0.7472
  918WAT     H2 4379   5.818   3.834   3.193 -0.3895 -0.5225  0.9998
  918WAT    EPW 4380   5.870   3.779   3.211 -0.6680 -0.2939  0.5488
  919WAT      O 4381   7.721   2.780   0.332  0.1620 -0.5147 -0.0812
  919WAT     H1 4382   7.647   2.790   0.376  0.7560 -0.0681  0.8525
  919WAT     H2 4383   7.703   2.718   0.274 -1.1812  0.1812 -0.4415
  919WAT    EPW 4384   7.707   2.772   0.330  0.2543 -0.4973 -0.5143
  920WAT      O 4385   4.121   6.614   4.721 -0.0726  0.1264 -0.2255
  920WAT     H1 4386   4.136   6.681   4.775  0.4948 -0.2591  0.1147
  920WAT     H2 4387   4.128   6.544   4.773 -1.7431 -0.1589 -0.3445
  920WAT    EPW 4388   4.125   6.614   4.737  0.1466 -0.7297  0.0903
  921WAT      O 4389   5.028   3.897   5.490  0.0857 -0.2306 -0.3945
  921WAT     H1 4390   5.006   3.946   5.422 -0.0296 -0.7647 -0.7486
  921WAT     H2 4391   4.975   3.924   5.553 -0.8426 -0.7535 -0.9298
  921WAT    EPW 4392   5.017   3.908   5.489  0.1336 -0.3173  0.4253
  922WAT      O 4393   5.820   4.865   1.151 -0.2058 -0.3763  0.4601
  922WAT     H1 4394   5.881   4.841   1.092  0.0707 -0.6473  0.8537
  922WAT     H2 4395   5.755   4.809   1.137 -0.1729 -0.3904  0.3592
  922WAT    EPW 4396   5.819   4.853   1.140 -0.4782 -0.0889 -0.2818
  923WAT      O 4397   3.595   5.016   0.443 -0.8229 -0.7357 -0.4019
  923WAT     H1 4398   3.621   5.088   0.401 -1.5185 -0.5360 -0.4976
  923WAT     H2 4399   3.524   4.991   0.400 -0.5638 -1.5142 -0.3992
  923WAT    EPW 4400   3.588   5.023   0.431 -0.6792  0.0434  0.2287
  924WAT      O 4401   4.222   1.532   7.464  0.6979  0.0352  0.3903
  924WAT     H1 4402   4.271   1.555   7.533  0.7380 -0.9917  0.7112
  924WAT     H2 4403   4.182   1.459   7.490 -0.8001  0.6841  0.0197
  924WAT    EPW 4404   4.224   1.525   7.478 -0.0751 -0.4275  0.1261
  925WAT      O 4405   5.426   5.708   4.946  0.0279 -0.0334 -0.1527
  925WAT     H1 4406   5.406   5.793   4.935  1.3040  0.2113 -0.7500
  925WAT     H2 4407   5.350   5.668   4.936 -0.9238  1.1564  1.7704
  925WAT    EPW 4408   5.412   5.715   4.943 -0.4837  0.3289 -0.3093
  926WAT      O 4409   1.330   4.425   5.681 -0.0754  0.6901  0.0973
  926WAT     H1 4410   1.263   4.370   5.688 -1.1086  1.9170  0.2083
  926WAT     H2 4411   1.329   4.468   5.757  1.0646  0.4930  0.2426
  926WAT    EPW 4412   1.320   4.423   5.693  0.5153  0.5862 -0.9669
  927WAT      O 4413   5.163   2.721   5.904 -0.5408 -0.4800  0.3292
  927WAT     H1 4414   5.236   2.735   5.858 -0.6724 -2.4476 -0.5528
  927WAT     H2 4415   5.102   2.764   5.859 -0.5028 -1.6319 -0.8584
  927WAT    EPW 4416   5.164   2.729   5.891  0.0899 -0.0330 -0.5872
  928WAT      O 4417   5.426   5.328   5.561  0.4143  0.3809 -0.4967
  928WAT     H1 4418   5.425   5.337   5.474  1.7457  0.8892 -0.4786
  928WAT     H2 4419   5.389   5.249   5.574 -0.2103  0.4981 -1.4778
  928WAT    EPW 4420   5.420   5.317   5.550  0.4810 -0.2776 -0.0040
  929WAT      O 4421   6.933   7.598   1.914  0.1441 -0.1140 -0.0962
  929WAT     H1 4422   6.970   7.546   1.975  1.7725  1.6226  0.5128
  929WAT     H2 4423   6.963   7.677   1.935 -1.9102  1.0333 -1.2388
  929WAT    EPW 4424   6.943   7.602   1.926  0.2463 -0.1712  0.1001
  930WAT      O 4425   7.270   3.121   4.029  0.2892 -0.1645 -0.1115
  930WAT     H1 4426   7.331   3.131   4.091 -0.4809  0.2613  0.6072
  930WAT     H2 4427   7.302   3.057   3.979  2.3133  1.4417 -1.0163
  930WAT    EPW 4428   7.284   3.113   4.031 -0.3311 -0.3747 -0.7612
  931WAT      O 4429   4.342   5.402   3.918 -0.0784  0.3129  0.3083
  931WAT     H1 4430   4.339   5.319   3.943  1.4024 -0.6431 -2.3164
  931WAT     H2 4431   4.261   5.419   3.892  0.0582 -1.1024 -1.2206
  931WAT    EPW 4432   4.330   5.392   3.918 -0.1234  0.1445  0.5801
  932WAT      O 4433   1.547   4.620   5.455 -0.0093 -0.4173 -0.1334
  932WAT     H1 4434   1.590   4.667   5.515  1.7141 -1.3122 -0.5759
  932WAT     H2 4435   1.610   4.594   5.400 -1.5083  0.2972 -2.3288
  932WAT    EPW 4436   1.563   4.623   5.456  0.1004 -0.5688 -0.3563
  933WAT      O 4437   2.955   6.353   6.336 -0.1985  0.4199 -0.3703
  933WAT     H1 4438   2.965   6.312   6.260 -0.6920 -0.6372  0.1085
  933WAT     H2 4439   2.870   6.375   6.336 -0.2855  0.1005  0.0099
  933WAT    EPW 4440   2.944   6.350   6.325  0.4165  0.1239 -0.4393
  934WAT      O 4441   7.122   6.673   4.828  0.2617  0.7701  0.0582
  934WAT     H1 4442   7.192   6.681   4.879  0.4248 -1.0370  0.1700
  934WAT     H2 4443   7.150   6.625   4.761 -0.6503  0.7751 -0.3491
  934WAT    EPW 4444   7.136   6.667   4.826  0.0275 -0.3523  0.2382
  935WAT      O 4445   4.747   0.097   4.515 -0.2220  0.1903 -0.0157
  935WAT     H1 4446   4.807   0.042   4.486 -0.6970  0.3173 -1.3387
  935WAT     H2 4447   4.793   0.164   4.546  0.3355  0.1490 -0.7225
  935WAT    EPW 4448   4.762   0.099   4.515  0.5805 -0.5328  0.3500
  936WAT      O 4449   7.050   4.695   2.164 -0.1493 -0.3836  0.0172
  936WAT     H1 4450   7.118   4.745   2.188 -0.3503 -1.0336  2.1458
  936WAT     H2 4451   6.992   4.707   2.229 -1.8279 -0.3637 -1.4189
  936WAT    EPW 4452   7.052   4.705   2.177  0.2013  0.6103  0.5953
  937WAT      O 4453   5.262   4.235   2.524  0.0387 -0.6399 -0.2218
  937WAT     H1 4454   5.198   4.270   2.475 -0.4121 -0.4756  0.4665
  937WAT     H2 4455   5.313   4.196   2.466  0.2325  0.6613 -0.9601
  937WAT    EPW 4456   5.260   4.234   2.508 -0.7547 -0.2484 -0.0287
  938WAT      O 4457   4.845   1.406   3.971  0.5930  0.5926 -0.3944
  938WAT     H1 4458   4.817   1.451   3.901 -3.0598  1.1625  1.2187
  938WAT     H2 4459   4.810   1.327   3.960 -0.1580  0.7330  0.7837
  938WAT    EPW 4460   4.835   1.401   3.959 -0.3059  0.5546 -0.0430
  939WAT      O 4461   6.020   0.511   6.699  0.1102  0.1401 -0.4727
  939WAT     H1 4462   6.023   0.589   6.740 -0.3177  0.4787 -1.0769
  939WAT     H2 4463   5.986   0.458   6.759 -0.7361  0.6886 -0.4536
  939WAT    EPW 4464   6.016   0.515   6.714  0.3674  0.6815 -0.5862
  940WAT      O 4465   5.457   2.778   7.611  0.3314  0.4752  0.3081
  940WAT     H1 4466   5.477   2.863   7.623  0.9563  0.0349  3.1080
  940WAT     H2 4467   5.370   2.776   7.618  0.2200  0.9764 -0.7360
  940WAT    EPW 4468   5.447   2.791   7.614 -0.1246 -0.3140 -0.2933
  941WAT      O 4469   5.294   7.661   0.170 -0.5230  0.0277  0.6015
  941WAT     H1 4470   5.373   7.685   0.142 -1.6462  1.7328 -1.2530
  941WAT     H2 4471   5.281   7.583   0.132  0.1667 -0.1941  0.8057
  941WAT    EPW 4472   5.304   7.653   0.160  0.3482 -0.1680 -0.1170
  942WAT      O 4473   3.771   0.591   0.824  0.2121  0.5853  0.3101
  942WAT     H1 4474   3.716   0.533   0.788  0.8655  0.1994 -0.0704
  942WAT     H2 4475   3.798   0.552   0.897 -1.0126  1.3147  1.2145
  942WAT    EPW 4476   3.767   0.577   0.829 -0.4084 -0.1061  0.2088
  943WAT      O 4477   6.143   4.390   0.410  0.4779  0.1591 -0.0820
  943WAT     H1 4478   6.095   4.342   0.465 -0.2798  1.4779  0.4443
  943WAT     H2 4479   6.105   4.377   0.333  0.3196 -0.1345  0.0435
  943WAT    EPW 4480   6.130   4.381   0.407 -0.2090  0.1277 -0.2087
  944WAT      O 4481   6.197   3.459   0.836 -0.0128  0.2673  0.1347
  944WAT     H1 4482   6.124   3.507   0.839  0.7184  1.4736 -0.3757
  944WAT     H2 4483   6.253   3.505   0.885  0.4094 -0.6625  0.5464
  944WAT    EPW 4484   6.194   3.473   0.844  0.3779 -0.1420 -0.2462
  945WAT      O 4485   7.787   3.215   0.445 -0.2860 -0.5407  0.0075
  945WAT     H1 4486   7.817   3.281   0.397  2.0242 -1.5856 -0.1026
  945WAT     H2 4487   7.784   3.149   0.389 -3.8773 -0.3755 -0.2343
  945WAT    EPW 4488   7.791   3.215   0.430 -0.4906 -0.1377 -0.0198
  946WAT      O 4489   3.475   5.828   4.110 -0.7247 -0.3454  0.2058
  946WAT     H1 4490   3.500   5.895   4.160 -1.5082 -0.3019  0.5551
  946WAT     H2 4491   3.458   5.765   4.167 -1.5720 -0.3145  0.0112
  946WAT    EPW 4492   3.476   5.829   4.126 -0.2722  0.5942  0.0072
  947WAT      O 4493   5.733   3.276   3.474  0.6802 -0.1594 -0.0677
  947WAT     H1 4494   5.711   3.279   3.558  0.8369 -0.8722  0.0047
  947WAT     H2 4495   5.746   3.360   3.453  0.4332  0.0383  0.5588
  947WAT    EPW 4496   5.732   3.289   3.483  0.4023 -0.3404  0.1810
  948WAT      O 4497   2.534   2.311   3.823 -0.0531  0.3974  0.1402
  948WAT     H1 4498   2.590   2.355   3.774 -0.2931 -0.5414 -1.0362
  948WAT     H2 4499   2.584   2.261   3.873  0.1957 -0.6638 -1.1203
  948WAT    EPW 4500   2.549   2.310   3.823  0.4101 -0.4436 -0.2231
  949WAT      O 4501   5.424   0.390   7.725  0.1426 -0.5989 -0.2701
  949WAT     H1 4502   5.373   0.437   7.672  0.5745  0.5429  0.2915
  949WAT     H2 4503   5.475   0.450   7.763  1.9162 -1.6709 -0.7886
  949WAT    EPW 4504   5.424   0.406   7.722  0.6675  0.1582  0.3970
  950WAT      O 4505   3.001   3.280   7.359  0.3057  0.1362  0.4871
  950WAT     H1 4506   3.061   3.342   7.352  1.4695 -0.7452  2.0729
  950WAT     H2 4507   2.939   3.317   7.407 -0.7864  1.2394 -1.6146
  950WAT    EPW 4508   3.001   3.294   7.365 -1.2042 -0.2747 -0.3484
  951WAT      O 4509   4.260   7.950   2.751 -0.4600  0.2482  0.1190
  951WAT     H1 4510   4.331   8.001   2.744 -0.9787  0.8085 -1.7144
  951WAT     H2 4511   4.197   8.007   2.768 -0.4570 -0.3121  2.3660
  951WAT    EPW 4512   4.261   7.966   2.752  0.4686  0.0350  0.1191
  952WAT      O 4513   3.868   4.212   7.900 -0.4701  0.1392 -0.4876
  952WAT     H1 4514   3.860   4.229   7.815 -0.6868 -1.5029 -0.8449
  952WAT     H2 4515   3.822   4.274   7.938 -0.7011  0.6814 -1.6026
  952WAT    EPW 4516   3.860   4.223   7.893 -0.0825 -0.2491  0.0239
  953WAT      O 4517   7.127   2.891   3.390  0.2341  0.4226 -0.7159
  953WAT     H1 4518   7.154   2.856   3.315  0.9669  1.5079 -0.9709
  953WAT     H2 4519   7.159   2.972   3.388 -1.0108  0.9603  0.0853
  953WAT    EPW 4520   7.136   2.898   3.379 -0.3249  0.1821 -0.1538
  954WAT      O 4521   1.374   1.631   2.301  0.1819  0.1838  0.3073
  954WAT     H1 4522   1.304   1.585   2.277 -0.7511  1.2643  0.8878
  954WAT     H2 4523   1.353   1.713   2.280  2.6380  0.2194 -2.6686
  954WAT    EPW 4524   1.361   1.636   2.294  0.1392 -0.4629 -0.7952
  955WAT      O 4525   5.549   3.951   5.697 -0.0488 -0.4194 -0.2134
  955WAT     H1 4526   5.510   4.014   5.742 -0.1970 -1.2984  0.9478
  955WAT     H2 4527   5.483   3.904   5.666  0.0113  0.7840 -2.3548
  955WAT    EPW 4528   5.534   3.953   5.699  0.2728 -0.0097  0.2083
  956WAT      O 4529   6.165   6.646   4.067 -0.0663 -0.4986  0.1542
  956WAT     H1 4530   6.156   6.633   4.153  0.4328 -0.7446  0.1751
  956WAT     H2 4531   6.249   6.668   4.059 -0.4837  1.1027 -0.0842
  956WAT    EPW 4532   6.176   6.647   4.079  0.1301 -0.3570  0.3622
  957WAT      O 4533   5.327   5.558   8.024  0.0648 -0.1336 -0.4054
  957WAT     H1 4534   5.345   5.620   8.083 -0.0037 -1.1740  0.7328
  957WAT     H2 4535   5.248   5.530   8.046  0.8905 -1.9997  0.3530
  957WAT    EPW 4536   5.318   5.563   8.036  0.1879 -0.3563 -0.4534
  958WAT      O 4537   6.069   6.551   3.130  0.2681 -0.2794  0.2864
  958WAT     H1 4538   6.146   6.543   3.171  1.7508  0.2129 -2.2148
  958WAT     H2 4539   6.046   6.634   3.146  0.3190 -0.3813  0.9159
  958WAT    EPW 4540   6.077   6.562   3.139  0.6583  0.0212 -0.6065
  959WAT      O 4541   3.120   0.259   6.570  0.2620  0.0779  0.1881
  959WAT     H1 4542   3.189   0.245   6.519  0.7160 -3.4468  1.5050
  959WAT     H2 4543   3.068   0.309   6.521  2.2425 -0.0703 -2.2315
  959WAT    EPW 4544   3.122   0.264   6.555 -0.8224  0.2477 -0.8484
  960WAT      O 4545   2.586   6.953   8.055  0.1982 -0.2583 -0.1750
  960WAT     H1 4546   2.507   6.982   8.034 -0.0793 -0.2375  0.8341
  960WAT     H2 4547   2.584   6.869   8.035  0.1722 -0.1023 -0.8326
  960WAT    EPW 4548   2.574   6.945   8.049 -0.4596  0.4370 -0.7749
  961WAT      O 4549   4.094   3.798   0.143 -0.2201  0.5756  0.3917
  961WAT     H1 4550   4.093   3.883   0.122 -0.3270  0.3147 -0.6731
  961WAT     H2 4551   4.063   3.798   0.225 -0.2945  1.5569  0.3831
  961WAT    EPW 4552   4.089   3.811   0.152 -0.2142 -0.0493  0.4047
  962WAT      O 4553   2.231   3.116   1.493  0.3086 -0.5634  0.2694
  962WAT     H1 4554   2.298   3.126   1.438 -0.0372 -3.2037 -0.7467
  962WAT     H2 4555   2.168   3.164   1.456  1.0526  0.4397  0.2411
  962WAT    EPW 4556   2.232   3.125   1.479  0.5398  0.0748 -0.3591
  963WAT      O 4557   5.037   7.533   4.188 -0.2732 -0.5558  0.0834
  963WAT     H1 4558   4.993   7.470   4.231 -1.6175  0.1022 -0.2792
  963WAT     H2 4559   5.104   7.549   4.241  0.1714 -2.3605  0.1409
  963WAT    EPW 4560   5.040   7.526   4.202 -0.6139  0.0693 -0.2089
  964WAT      O 4561   3.134   6.006   0.422 -0.0226 -0.0655 -0.1238
  964WAT     H1 4562   3.176   5.978   0.493 -2.3253 -0.6508  1.1048
  964WAT     H2 4563   3.198   6.022   0.365  1.8160 -1.0502  1.5525
  964WAT    EPW 4564   3.150   6.004   0.424 -0.0369  0.2034 -0.0009
  965WAT      O 4565   3.726   0.098   7.788  0.5173 -0.8038 -0.6018
  965WAT     H1 4566   3.652   0.071   7.825  0.6010 -1.2676 -0.7710
  965WAT     H2 4567   3.773   0.025   7.778  1.6730 -0.3274  0.9519
  965WAT    EPW 4568   3.722   0.084   7.792  0.0355 -0.1434  0.2300
  966WAT      O 4569   5.272   4.555   4.773 -0.1947 -0.1312  0.2014
  966WAT     H1 4570   5.216   4.610   4.733 -1.5640 -0.4205  1.6056
  966WAT     H2 4571   5.329   4.608   4.811 -0.7845  0.2877  0.5226
  966WAT    EPW 4572   5.272   4.571   4.773  0.4587 -0.2694  0.1095
  967WAT      O 4573   5.312   0.855   6.601 -0.2116  0.1181 -0.2992
  967WAT     H1 4574   5.274   0.881   6.527 -0.9015 -0.9593 -0.3418
  967WAT     H2 4575   5.251   0.807   6.640  0.2055  0.5139  0.8957
  967WAT    EPW 4576   5.297   0.852   6.596  0.1576 -0.3685  0.1443
  968WAT      O 4577   4.690   4.667   6.283 -0.2713 -0.2893  0.3561
  968WAT     H1 4578   4.657   4.587   6.297  1.2396 -0.8121  1.2377
  968WAT     H2 4579   4.628   4.720   6.314 -1.0199 -1.1423  0.3680
  968WAT    EPW 4580   4.676   4.663   6.290 -0.2950  0.0978  0.2250
  969WAT      O 4581   5.982   4.244   3.876 -0.3863  0.5344  0.5160
  969WAT     H1 4582   6.000   4.192   3.944 -0.2225 -1.7507 -1.1690
  969WAT     H2 4583   6.057   4.285   3.862 -0.5362  1.3739  1.9199
  969WAT    EPW 4584   5.996   4.242   3.884  0.2256 -0.1569  0.2316
  970WAT      O 4585   6.016   6.613   0.744  0.3190  0.0520 -0.3796
  970WAT     H1 4586   6.061   6.574   0.808  1.7320  0.1498 -1.2700
  970WAT     H2 4587   5.933   6.603   0.769  0.7057 -1.9585  0.3057
  970WAT    EPW 4588   6.011   6.605   0.757 -0.7716 -0.2422 -0.2672
  971WAT      O 4589   7.331   3.834   0.399  0.1304  0.5772  0.2841
  971WAT     H1 4590   7.349   3.789   0.327 -1.5059  1.5196 -0.7700
  971WAT     H2 4591   7.409   3.856   0.430  0.8920 -0.8691 -0.5172
  971WAT    EPW 4592   7.345   3.831   0.393 -0.0045 -0.0957 -0.0563
  972WAT      O 4593   6.405   4.785   4.723  0.3507  0.2524 -0.2751
  972WAT     H1 4594   6.481   4.794   4.765 -0.5199  1.0900  1.1882
  972WAT     H2 4595   6.422   4.815   4.643  1.5805  0.3564  0.0103
  972WAT    EPW 4596   6.419   4.790   4.717  0.2242 -0.0402  0.3463
  973WAT      O 4597   6.352   5.889   2.215  0.2986 -0.0525  0.2164
  973WAT     H1 4598   6.356   5.830   2.279  1.9562 -1.4290 -1.0714
  973WAT     H2 4599   6.268   5.913   2.215 -0.3883 -2.2017  0.9872
  973WAT    EPW 4600   6.340   5.884   2.225 -0.1890  0.1846 -0.3992
  974WAT      O 4601   0.486   3.557   1.729  0.0009  0.2909 -0.4654
  974WAT     H1 4602   0.404   3.574   1.704 -0.3233  0.4187  0.6271
  974WAT     H2 4603   0.485   3.473   1.750  0.1338  0.3031 -0.4041
  974WAT    EPW 4604   0.474   3.547   1.728  0.5813  0.7098  0.1399
  975WAT      O 4605   2.843   7.491   6.177  0.1380 -0.0167  0.2958
  975WAT     H1 4606   2.807   7.433   6.231  1.2346 -0.6028  0.4249
  975WAT     H2 4607   2.779   7.548   6.162 -0.4251 -0.2987  1.5554
  975WAT    EPW 4608   2.828   7.491   6.183 -0.2372  0.2900  0.0376
  976WAT      O 4609   6.171   5.113   3.434  0.0458 -0.2140 -0.2951
  976WAT     H1 4610   6.084   5.117   3.436  0.0208 -0.5415 -0.6481
  976WAT     H2 4611   6.187   5.038   3.393  0.5010 -0.9272  1.1092
  976WAT    EPW 4612   6.160   5.103   3.428  0.1708 -0.2644  0.0173
  977WAT      O 4613   1.778   1.940   5.255 -0.2540 -0.1874 -0.2132
  977WAT     H1 4614   1.781   1.853   5.260  1.1693 -0.2658 -1.5808
  977WAT     H2 4615   1.723   1.955   5.188 -1.6665  0.0478  0.9572
  977WAT    EPW 4616   1.770   1.930   5.246 -0.0440 -0.1294  0.0344
  978WAT      O 4617   4.559   4.107   6.708  0.1145  0.1633  0.3496
  978WAT     H1 4618   4.582   4.103   6.624 -0.4225  1.6512  0.1076
  978WAT     H2 4619   4.583   4.187   6.732 -0.8808  0.2046  1.2695
  978WAT    EPW 4620   4.566   4.118   6.699  0.3731 -0.3782 -0.1697
  979WAT      O 4621   7.531   2.189   2.663 -0.3579 -0.0479  0.3520
  979WAT     H1 4622   7.586   2.184   2.730 -0.7732  0.6421  0.7573
  979WAT     H2 4623   7.582   2.179   2.593  0.6169  2.3669  0.6215
  979WAT    EPW 4624   7.546   2.187   2.662 -0.2445  0.4289  0.2723
  980WAT      O 4625   7.358   3.667   1.112  0.0001 -0.3473 -0.1521
  980WAT     H1 4626   7.435   3.680   1.074  0.2472 -1.4000 -0.0289
  980WAT     H2 4627   7.334   3.747   1.138  1.8800 -0.2129  1.4120
  980WAT    EPW 4628   7.366   3.681   1.111  0.1858 -0.0895 -0.5409
  981WAT      O 4629   3.793   4.085   1.332  0.2959  0.1314 -0.1647
  981WAT     H1 4630   3.812   4.105   1.415 -4.3004  0.1091  1.1754
  981WAT     H2 4631   3.768   4.161   1.298 -1.3916 -0.4460 -0.2951
  981WAT    EPW 4632   3.792   4.099   1.339  0.3728  0.1347 -0.0401
  982WAT      O 4633   5.582   3.657   3.577 -0.7346 -0.1055 -0.2717
  982WAT     H1 4634   5.563   3.741   3.593  2.2005  0.3734  1.6408
  982WAT     H2 4635   5.505   3.622   3.556 -2.5083  2.5721  1.0975
  982WAT    EPW 4636   5.568   3.664   3.576 -0.2135  0.5202 -0.0969
  983WAT      O 4637   2.809   5.766   3.586  0.1023 -0.6298 -0.2687
  983WAT     H1 4638   2.764   5.696   3.613 -0.8386 -0.0198 -0.1962
  983WAT     H2 4639   2.876   5.770   3.642 -0.2745 -1.0085  0.2172
  983WAT    EPW 4640   2.812   5.756   3.598  0.4534  0.3206  0.1051
  984WAT      O 4641   0.328   2.897   1.804  0.6007 -0.6139 -0.0672
  984WAT     H1 4642   0.271   2.834   1.783  1.7883 -1.7117 -0.1178
  984WAT     H2 4643   0.284   2.945   1.863  0.2959 -2.5926  1.4271
  984WAT    EPW 4644   0.313   2.895   1.809  0.2970  0.1009 -0.1119
  985WAT      O 4645   1.595   3.833   2.409 -0.4032  0.3128 -0.6229
  985WAT     H1 4646   1.560   3.762   2.373 -1.0859  0.8041 -0.9715
  985WAT     H2 4647   1.680   3.826   2.392 -0.3582 -0.7634 -0.0293
  985WAT    EPW 4648   1.602   3.822   2.401  0.1592 -0.3074 -0.1846
  986WAT      O 4649   4.172   1.418   6.457 -0.6338 -0.1070 -0.2299
  986WAT     H1 4650   4.229   1.472   6.495 -1.8745  0.8439  0.3783
  986WAT     H2 4651   4.124   1.471   6.407 -2.4618 -0.4493  1.0740
  986WAT    EPW 4652   4.173   1.434   6.455 -0.2123 -0.6411 -0.3829
  987WAT      O 4653   4.315   5.214   0.173 -0.5000  0.5044 -0.3491
  987WAT     H1 4654   4.284   5.277   0.225  0.4362  0.9763 -0.3427
  987WAT     H2 4655   4.395   5.200   0.204 -0.0894  0.4705 -1.3810
  987WAT    EPW 4656   4.322   5.221   0.185  0.0381  0.5065 -0.5012
  988WAT      O 4657   3.111   7.253   1.584  0.0627  0.7846 -0.4809
  988WAT     H1 4658   3.106   7.299   1.510  0.6562  0.7880 -0.5222
  988WAT     H2 4659   3.107   7.314   1.646  1.6785  0.9966 -0.5434
  988WAT    EPW 4660   3.110   7.269   1.582 -0.1063 -0.4409 -0.1394
  989WAT      O 4661   5.698   4.597   4.795 -0.1843 -0.3793  0.3011
  989WAT     H1 4662   5.745   4.523   4.792  1.5692  0.6858 -0.9542
  989WAT     H2 4663   5.699   4.624   4.712 -1.2786  0.7751  0.6410
  989WAT    EPW 4664   5.705   4.590   4.782 -0.0816  0.6240 -0.1246
  990WAT      O 4665   5.089   7.159   6.396 -0.7993 -0.0770  0.4019
  990WAT     H1 4666   5.158   7.179   6.445 -0.4478  2.1962 -0.8947
  990WAT     H2 4667   5.033   7.124   6.454 -0.6554  2.9930  2.6634
  990WAT    EPW 4668   5.091   7.157   6.412  0.0124 -0.6953  0.0981
  991WAT      O 4669   6.047   0.280   4.511 -0.1178 -0.0789 -0.1409
  991WAT     H1 4670   6.105   0.341   4.487  0.3523 -0.3921  0.1669
  991WAT     H2 4671   5.970   0.317   4.494  0.1411  0.7439  0.3643
  991WAT    EPW 4672   6.044   0.295   4.505 -0.3675  0.7013 -0.5051
  992WAT      O 4673   5.804   5.979   7.401  0.8305 -0.5181 -0.1395
  992WAT     H1 4674   5.834   5.898   7.414  1.7826  0.1241  2.2782
  992WAT     H2 4675   5.814   6.016   7.479 -0.2376  1.7376 -1.0084
  992WAT    EPW 4676   5.810   5.972   7.415  0.2496 -0.5080 -0.1667
  993WAT      O 4677   5.414   4.385   7.143  0.1335  0.1960  0.1617
  993WAT     H1 4678   5.446   4.313   7.106 -0.1764  0.7738 -1.3091
  993WAT     H2 4679   5.401   4.361   7.226  1.3077 -1.0121  0.0328
  993WAT    EPW 4680   5.417   4.370   7.150  0.1215 -0.2875 -0.1280
  994WAT      O 4681   5.571   3.056   4.921  0.3819 -0.0968 -0.0994
  994WAT     H1 4682   5.536   3.086   4.995  0.1634  0.5425 -0.4504
  994WAT     H2 4683   5.603   3.128   4.883  1.4357 -0.5688 -0.1380
  994WAT    EPW 4684   5.570   3.071   4.926  0.0039  0.2369  0.3174
  995WAT      O 4685   6.567   1.291   3.381 -0.2071 -0.6592 -0.3770
  995WAT     H1 4686   6.531   1.366   3.406  0.8808 -0.2414  0.0301
  995WAT     H2 4687   6.585   1.304   3.296 -0.3156 -0.5777 -0.3874
  995WAT    EPW 4688   6.564   1.304   3.372 -0.0011 -0.2255  0.3291
  996WAT      O 4689   1.613   5.169   3.660 -0.3436 -0.1387 -0.1613
  996WAT     H1 4690   1.665   5.213   3.714 -0.6945  1.3043 -0.9414
  996WAT     H2 4691   1.561   5.230   3.627 -0.2044 -0.9520 -2.0627
  996WAT    EPW 4692   1.613   5.184   3.663  0.6015 -0.5155 -0.6373
  997WAT      O 4693   3.782   5.989   3.138 -0.3892 -0.2661  0.4608
  997WAT     H1 4694   3.843   6.041   3.171 -1.0503  1.0511 -0.3111
  997WAT     H2 4695   3.811   5.909   3.157  1.4513  0.3204  0.3185
  997WAT    EPW 4696   3.795   5.985   3.146  0.3008  0.0332  0.4963
  998WAT      O 4697   6.082   2.606   4.523 -0.3304 -0.0475 -0.0526
  998WAT     H1 4698   6.057   2.681   4.560  0.4392  0.8559 -1.3166
  998WAT     H2 4699   6.006   2.566   4.505 -0.7571  0.6068  0.2577
  998WAT    EPW 4700   6.067   2.611   4.526  0.1892 -0.0593 -0.6408
  999WAT      O 4701   3.106   2.566   4.963  0.1050 -0.3029 -0.4272
  999WAT     H1 4702   3.083   2.488   4.994 -1.7150  0.3019 -0.1414
  999WAT     H2 4703   3.099   2.556   4.876 -0.8499 -0.2617 -0.3620
  999WAT    EPW 4704   3.102   2.553   4.955  0.0150  0.6055  0.8039
 1000WAT      O 4705   7.297   1.213   1.107  0.1184 -0.3601  0.4249
 1000WAT     H1 4706   7.352   1.235   1.171  1.3392 -2.1362  0.0672
 1000WAT     H2 4707   7.349   1.209   1.036 -0.3219 -2.5660  0.1784
 1000WAT    EPW 4708   7.313   1.216   1.106  0.6465  0.2794  0.6599
 1001WAT      O 4709   5.992   1.637   0.368 -0.3200  0.1476  0.0453
 1001WAT     H1 4710   5.944   1.707   0.348 -1.1276 -0.9020 -2.0324
 1001WAT     H2 4711   6.072   1.660   0.343  0.1622  1.4675  2.4381
 1001WAT    EPW 4712   5.996   1.651   0.361  0.0405  0.8852  0.7292
 1002WAT      O 4713   6.506   4.804   4.113  0.1664 -0.5119 -0.0674
 1002WAT     H1 4714   6.485   4.888   4.104  0.3958 -0.3304  0.9195
 1002WAT     H2 4715   6.440   4.770   4.159  0.0205 -0.8994 -0.5556
 1002WAT    EPW 4716   6.493   4.811   4.119 -0.1183  0.0720 -0.2735
 1003WAT      O 4717   0.095   4.673   3.608 -0.2784 -0.1150 -0.7157
 1003WAT     H1 4718   0.095   4.748   3.563 -0.6604  0.7139  0.6110
 1003WAT     H2 4719   0.030   4.683   3.665  0.9930 -0.5880  0.8796
 1003WAT    EPW 4720   0.085   4.686   3.609  0.8554 -0.1307  0.3267
 1004WAT      O 4721   5.158   3.826   3.053  0.1400 -0.3605  0.3062
 1004WAT     H1 4722   5.229   3.855   3.012 -0.9262 -0.0193 -1.3873
 1004WAT     H2 4723   5.154   3.877   3.124  0.9012  0.4554 -0.2165
 1004WAT    EPW 4724   5.168   3.838   3.058  0.2343 -0.5691  0.2173
 1005WAT      O 4725   2.209   3.645   2.654  0.2357 -1.0888  0.5472
 1005WAT     H1 4726   2.175   3.568   2.674 -0.0226 -0.4882  2.6712
 1005WAT     H2 4727   2.293   3.637   2.677  0.1845 -0.7158  0.8797
 1005WAT    EPW 4728   2.217   3.633   2.660 -0.1554  0.0543 -0.5589
 1006WAT      O 4729   7.720   6.601   2.126  0.7871  0.2059 -0.3845
 1006WAT     H1 4730   7.801   6.629   2.108  0.2198  3.2521  1.1152
 1006WAT     H2 4731   7.685   6.666   2.173 -3.0266 -0.3461 -2.0648
 1006WAT    EPW 4732   7.727   6.615   2.131  0.0019  0.1316 -0.0033
 1007WAT      O 4733   5.347   5.876   3.414 -0.2066 -0.1118 -0.1699
 1007WAT     H1 4734   5.286   5.860   3.474 -2.0194  3.4087 -0.7870
 1007WAT     H2 4735   5.411   5.915   3.459 -0.4290  0.2364 -0.1538
 1007WAT    EPW 4736   5.348   5.880   3.430  0.6699  0.3888 -0.4264
 1008WAT      O 4737   4.927   0.341   4.519 -0.7485 -0.4019 -0.4237
 1008WAT     H1 4738   4.954   0.316   4.440 -1.6066  1.0671 -1.2287
 1008WAT     H2 4739   4.998   0.333   4.569 -0.1600 -1.2278 -1.3704
 1008WAT    EPW 4740   4.941   0.336   4.515 -0.1046  0.0297  0.0064
 1009WAT      O 4741   7.505   4.619   2.037  0.3842 -0.4585  0.0070
 1009WAT     H1 4742   7.460   4.603   2.110 -0.2080  1.6537  0.1592
 1009WAT     H2 4743   7.482   4.554   1.984 -0.1563 -1.3229  1.2447
 1009WAT    EPW 4744   7.495   4.607   2.040  0.4658  0.3651 -0.2637
 1010WAT      O 4745   3.535   5.351   6.618  0.8150  0.5218  0.2109
 1010WAT     H1 4746   3.467   5.366   6.671 -0.5428  0.4328 -1.4217
 1010WAT     H2 4747   3.560   5.430   6.593 -0.2952  0.4966 -1.0769
 1010WAT    EPW 4748   3.529   5.365   6.622 -0.3387 -0.1056  0.5804
 1011WAT      O 4749   4.528   6.472   4.515 -0.3390  0.1558 -0.4393
 1011WAT     H1 4750   4.537   6.454   4.430  0.3676  0.5471 -0.4500
 1011WAT     H2 4751   4.467   6.415   4.541  0.1853 -0.6698 -0.9781
 1011WAT    EPW 4752   4.520   6.461   4.506  0.2834 -0.7822 -1.0349
 1012WAT      O 4753   0.131   0.675   0.505 -0.0305 -0.4201  0.2555
 1012WAT     H1 4754   0.200   0.723   0.528 -0.2796 -0.4672  1.1183
 1012WAT     H2 4755   0.133   0.676   0.418 -0.6516  2.0919  0.2083
 1012WAT    EPW 4756   0.141   0.682   0.495  0.5938  0.1187  0.3551
 1013WAT      O 4757   5.518   5.372   5.014 -0.5187  0.7782 -0.1974
 1013WAT     H1 4758   5.579   5.331   4.966 -0.0438 -0.4831  1.4050
 1013WAT     H2 4759   5.561   5.439   5.049 -0.2523  0.3361  0.3225
 1013WAT    EPW 4760   5.533   5.376   5.012  0.2927 -0.4627 -0.0119
 1014WAT      O 4761   6.603   6.841   4.965 -0.2019 -0.0321  0.0551
 1014WAT     H1 4762   6.674   6.793   4.946 -1.1785 -1.3287 -0.4887
 1014WAT     H2 4763   6.625   6.921   4.938  0.4767 -0.7355 -1.6473
 1014WAT    EPW 4764   6.617   6.845   4.958 -0.5451 -0.0469 -0.0267
 1015WAT      O 4765   0.716   7.650   2.005 -0.4292  0.0270  0.2640
 1015WAT     H1 4766   0.772   7.590   2.035  0.7733  1.5064  1.1514
 1015WAT     H2 4767   0.643   7.632   2.048 -0.1733 -0.9535  0.3174
 1015WAT    EPW 4768   0.714   7.639   2.016  0.3090  0.2541 -0.3082
 1016WAT      O 4769   3.050   5.844   7.548 -0.0370 -0.6812  0.1727
 1016WAT     H1 4770   3.093   5.769   7.560  0.1081 -0.8545 -1.2550
 1016WAT     H2 4771   2.968   5.826   7.572 -0.1575 -1.5189 -0.8001
 1016WAT    EPW 4772   3.044   5.831   7.553 -0.0580 -0.7080  0.5005
 1017WAT      O 4773   4.720   1.677   4.317  0.0665 -0.0033  0.2471
 1017WAT     H1 4774   4.760   1.659   4.393 -0.6714 -2.5620  0.1179
 1017WAT     H2 4775   4.763   1.747   4.288  2.2026 -0.6050  1.7139
 1017WAT    EPW 4776   4.732   1.685   4.324 -0.8823 -0.0993 -0.3271
 1018WAT      O 4777   7.606   2.797   2.290  0.0608  0.3494 -0.2976
 1018WAT     H1 4778   7.573   2.847   2.226  0.1350  0.9656  0.1342
 1018WAT     H2 4779   7.557   2.818   2.360  1.1168  1.0253  0.2665
 1018WAT    EPW 4780   7.594   2.807   2.291  0.1374  0.3412 -0.8220
 1019WAT      O 4781   0.390   2.857   3.077 -0.2660  0.7965 -0.7222
 1019WAT     H1 4782   0.468   2.891   3.099  1.3431 -3.1358  0.4474
 1019WAT     H2 4783   0.359   2.826   3.153 -2.4550  1.1840 -1.3913
 1019WAT    EPW 4784   0.397   2.858   3.092  0.2254 -0.6912 -0.2693
 1020WAT      O 4785   3.463   4.019   0.485 -0.3968 -0.0101 -0.4760
 1020WAT     H1 4786   3.447   3.987   0.405 -1.5850  0.1200 -0.3033
 1020WAT     H2 4787   3.550   4.023   0.488 -0.3203 -0.4423 -1.5964
 1020WAT    EPW 4788   3.473   4.015   0.474  0.2464 -0.2964 -0.7174
 1021WAT      O 4789   0.861   0.186   3.150 -0.3310  0.1875  0.0475
 1021WAT     H1 4790   0.920   0.224   3.099 -0.7179 -2.0028 -2.2247
 1021WAT     H2 4791   0.905   0.121   3.187 -0.5792  0.4853  0.8787
 1021WAT    EPW 4792   0.876   0.182   3.148  0.3126  0.1101 -0.4237
 1022WAT      O 4793   4.537   5.440   4.739 -0.1109  0.4016 -0.1066
 1022WAT     H1 4794   4.567   5.492   4.803  0.8475 -0.2513 -0.0009
 1022WAT     H2 4795   4.475   5.393   4.779  0.4335  0.0463  0.3349
 1022WAT    EPW 4796   4.532   5.441   4.754 -0.2285  0.0130  0.0025
 1023WAT      O 4797   3.959   0.285   5.990 -0.0598 -0.4026  0.6000
 1023WAT     H1 4798   4.006   0.357   6.006 -0.5008 -0.4223  2.1971
 1023WAT     H2 4799   3.926   0.299   5.910  0.5855  0.7603  0.5118
 1023WAT    EPW 4800   3.961   0.298   5.981 -0.2036  0.2219  0.0898
 1024WAT      O 4801   2.226   2.017   1.137 -0.0298 -0.2067  0.2969
 1024WAT     H1 4802   2.258   2.094   1.163  1.2493 -0.4283 -0.5410
 1024WAT     H2 4803   2.190   2.035   1.060  0.1055 -0.4073  0.1856
 1024WAT    EPW 4804   2.226   2.031   1.130  0.3172  0.8042 -0.0468
 1025WAT      O 4805   0.095   4.604   2.686  0.4684  0.1773 -0.3624
 1025WAT     H1 4806   0.095   4.687   2.711  1.4270  0.6869 -1.9707
 1025WAT     H2 4807   0.176   4.577   2.704  0.0186 -0.6141  0.6556
 1025WAT    EPW 4808   0.107   4.612   2.693 -0.1146  0.1517 -0.3059
 1026WAT      O 4809   5.393   3.955   4.606  0.0747  0.4037  0.3364
 1026WAT     H1 4810   5.377   4.019   4.664 -1.1360  0.1955  0.2765
 1026WAT     H2 4811   5.313   3.924   4.589  0.6984 -1.9981  1.3273
 1026WAT    EPW 4812   5.379   3.960   4.612 -0.2004 -0.2824 -0.0774
 1027WAT      O 4813   5.846   0.131   1.842 -0.1163  0.5408 -0.6832
 1027WAT     H1 4814   5.851   0.126   1.929  1.4264  0.8556 -0.7248
 1027WAT     H2 4815   5.923   0.099   1.815 -0.9789 -0.5619 -1.9903
 1027WAT    EPW 4816   5.858   0.125   1.851  0.2356  0.0348  0.5143
 1028WAT      O 4817   1.629   1.900   2.580 -0.3072  0.1749  0.1271
 1028WAT     H1 4818   1.568   1.840   2.598  0.2448 -1.2517 -2.2367
 1028WAT     H2 4819   1.702   1.866   2.614 -0.1928 -0.0016 -0.2799
 1028WAT    EPW 4820   1.631   1.886   2.587 -0.3557 -0.6752 -0.0604
 1029WAT      O 4821   4.170   2.779   7.395  0.0642 -0.1331 -0.2176
 1029WAT     H1 4822   4.208   2.835   7.450  0.4058 -0.0303 -0.5522
 1029WAT     H2 4823   4.237   2.749   7.347  0.3273 -2.8051  1.6451
 1029WAT    EPW 4824   4.186   2.783   7.396 -0.0946  0.8501 -0.0420
 1030WAT      O 4825   0.212   3.131   4.926  0.2374 -0.3287  0.0275
 1030WAT     H1 4826   0.181   3.212   4.916 -1.3597 -1.0280 -1.1249
 1030WAT     H2 4827   0.165   3.099   4.993  0.6329 -0.4094  0.2686
 1030WAT    EPW 4828   0.200   3.138   4.934 -0.3598 -0.0498  0.1440
 1031WAT      O 4829   7.695   2.012   2.471  0.4053  0.3926  0.1840
 1031WAT     H1 4830   7.648   1.982   2.403 -0.1773 -0.0863  0.7785
 1031WAT     H2 4831   7.672   1.959   2.536 -0.2944  1.8202  1.1635
 1031WAT    EPW 4832   7.684   2.000   2.471  0.4917  0.0051 -0.1836
 1032WAT      O 4833   4.134   5.770   1.188 -0.2324  0.5630  0.5371
 1032WAT     H1 4834   4.055   5.807   1.185 -0.5008 -0.0706 -0.8288
 1032WAT     H2 4835   4.189   5.837   1.178 -0.5873  0.9661  1.1897
 1032WAT    EPW 4836   4.130   5.786   1.186 -0.3274  0.1882 -0.3911
 1033WAT      O 4837   6.857   0.954   2.860  0.1533 -0.5761 -0.6065
 1033WAT     H1 4838   6.924   1.006   2.841 -0.7632  0.1170 -2.1580
 1033WAT     H2 4839   6.793   1.009   2.880 -0.4570 -1.1393 -0.9503
 1033WAT    EPW 4840   6.858   0.970   2.860 -0.3869 -0.4766 -0.3178
 1034WAT      O 4841   4.105   2.340   4.877  0.1100 -0.1147 -0.0054
 1034WAT     H1 4842   4.046   2.275   4.874 -0.1397 -0.1027  2.4400
 1034WAT     H2 4843   4.163   2.318   4.816 -0.8823 -1.7304 -0.4300
 1034WAT    EPW 4844   4.105   2.327   4.868 -0.0072 -0.0748  0.3490
 1035WAT      O 4845   0.173   2.599   1.246  0.5031  0.0730 -0.0217
 1035WAT     H1 4846   0.098   2.642   1.231  0.7754  0.2167 -1.0214
 1035WAT     H2 4847   0.185   2.552   1.174  0.7762 -0.8674  0.6200
 1035WAT    EPW 4848   0.164   2.599   1.233 -0.2107  0.0367  0.5806
 1036WAT      O 4849   7.409   4.029   3.959 -1.1402  0.2464 -0.3410
 1036WAT     H1 4850   7.396   3.951   3.921 -1.1629  0.2694 -0.3795
 1036WAT     H2 4851   7.489   4.052   3.933 -0.0104 -0.9762  1.7375
 1036WAT    EPW 4852   7.419   4.021   3.950  0.4234 -0.3701  0.1865
 1037WAT      O 4853   4.638   6.183   5.667 -0.3407  0.0614 -0.3779
 1037WAT     H1 4854   4.575   6.209   5.612 -0.5847  0.9041  0.2761
 1037WAT     H2 4855   4.701   6.154   5.614 -0.3888  1.2538 -1.1254
 1037WAT    EPW 4856   4.638   6.183   5.651  0.2210 -0.1356 -0.5211
 1038WAT      O 4857   6.425   5.727   1.988  0.3942 -0.3356 -0.2361
 1038WAT     H1 4858   6.369   5.762   2.045 -0.4883  0.5885 -1.6145
 1038WAT     H2 4859   6.463   5.663   2.034 -0.3932  0.2541  1.3265
 1038WAT    EPW 4860   6.422   5.723   2.003 -0.7424  0.1472 -0.1532
 1039WAT      O 4861   8.037   1.049   4.659  0.0637  0.3620  0.1334
 1039WAT     H1 4862   7.982   1.106   4.696 -0.4127  0.0637 -0.1018
 1039WAT     H2 4863   7.987   1.009   4.599  1.2547  2.1086 -2.1632
 1039WAT    EPW 4864   8.021   1.052   4.655 -0.1073  0.0694  0.9281
 1040WAT      O 4865   1.160   7.882   4.444  0.9268  0.1092  0.2389
 1040WAT     H1 4866   1.098   7.940   4.424  0.4196 -0.3571  0.4326
 1040WAT     H2 4867   1.138   7.855   4.524  0.6275 -1.0125 -0.1970
 1040WAT    EPW 4868   1.148   7.886   4.453 -0.1206  0.0004 -0.1464
 1041WAT      O 4869   5.601   2.487   4.385  0.2782  0.1157 -0.7136
 1041WAT     H1 4870   5.576   2.569   4.400  4.4042  1.1543  2.5056
 1041WAT     H2 4871   5.544   2.440   4.431 -0.8185  1.3726 -0.7369
 1041WAT    EPW 4872   5.589   2.492   4.394  0.0729 -0.3357  0.2845
 1042WAT      O 4873   5.533   0.783   1.994  0.3556  0.3228 -0.1539
 1042WAT     H1 4874   5.607   0.765   1.952  0.3348 -0.6455  0.1971
 1042WAT     H2 4875   5.487   0.828   1.935  1.0736  0.6459 -0.4914
 1042WAT    EPW 4876   5.537   0.787   1.979 -0.1834 -0.1345 -0.0885
 1043WAT      O 4877   7.926   1.579   2.976  0.1082  0.0866 -0.0635
 1043WAT     H1 4878   7.846   1.552   2.954  0.9946 -0.5878 -2.8720
 1043WAT     H2 4879   7.942   1.644   2.919  2.1412 -0.9116 -0.7112
 1043WAT    EPW 4880   7.917   1.585   2.964 -0.7541 -0.4257  0.0112
 1044WAT      O 4881   0.938   2.162   3.364  0.0503 -0.1861 -0.0618
 1044WAT     H1 4882   0.883   2.214   3.319  0.9848  2.8700  1.9685
 1044WAT     H2 4883   0.991   2.131   3.303 -0.6331  1.2116 -1.4553
 1044WAT    EPW 4884   0.938   2.165   3.348  0.4971 -0.4819 -0.2738
 1045WAT      O 4885   7.237   5.846   3.701  0.5907  0.3046  0.3454
 1045WAT     H1 4886   7.215   5.880   3.779 -1.3125 -0.5883  0.2600
 1045WAT     H2 4887   7.247   5.761   3.718 -0.0171  0.0757 -0.3848
 1045WAT    EPW 4888   7.235   5.839   3.715  0.4140 -0.2914  0.2422
 1046WAT      O 4889   0.236   1.764   1.786  0.3125 -0.0213  0.0814
 1046WAT     H1 4890   0.285   1.822   1.829 -0.3594  0.0701  0.7417
 1046WAT     H2 4891   0.182   1.815   1.739 -0.3198 -0.1040  0.7101
 1046WAT    EPW 4892   0.235   1.780   1.785 -0.1756  0.2602 -0.0353
 1047WAT      O 4893   5.429   3.596   3.141  0.3588 -0.5200  0.9413
 1047WAT     H1 4894   5.490   3.619   3.083 -0.0802 -2.5484 -0.4130
 1047WAT     H2 4895   5.424   3.666   3.194  0.0926  1.8658 -1.9606
 1047WAT    EPW 4896   5.437   3.610   3.140  0.3625 -0.2716 -0.0238
 1048WAT      O 4897   5.333   4.237   3.757 -0.6963 -0.1680  0.0388
 1048WAT     H1 4898   5.248   4.247   3.773 -0.9101 -0.1447 -1.0685
 1048WAT     H2 4899   5.360   4.187   3.824 -1.3716  0.5882  0.9013
 1048WAT    EPW 4900   5.324   4.231   3.769 -0.2711  0.3362  0.0310
 1049WAT      O 4901   6.525   5.318   3.073 -0.1303  0.6587 -0.7919
 1049WAT     H1 4902   6.491   5.397   3.080 -0.8769  0.2908 -0.0259
 1049WAT     H2 4903   6.463   5.272   3.033 -1.0353 -0.2557  1.4820
 1049WAT    EPW 4904   6.511   5.323   3.068  0.2711 -0.1615 -0.2537
 1050WAT      O 4905   6.366   4.737   1.608 -0.3423 -0.4104  0.0112
 1050WAT     H1 4906   6.370   4.769   1.689 -0.9863 -0.7121  0.1734
 1050WAT     H2 4907   6.449   4.719   1.588 -0.0688  0.5946  0.2197
 1050WAT    EPW 4908   6.379   4.739   1.617 -0.5300 -0.1132  0.1834
 1051WAT      O 4909   6.739   1.970   1.630 -0.3513  0.2732 -0.1410
 1051WAT     H1 4910   6.717   1.900   1.581  0.7460 -0.4426  0.3374
 1051WAT     H2 4911   6.825   1.977   1.616 -0.5541  1.9615 -0.6898
 1051WAT    EPW 4912   6.749   1.961   1.621 -0.6236  0.0750  0.1509
 1052WAT      O 4913   5.368   5.084   2.153 -0.1765  0.2330 -0.2467
 1052WAT     H1 4914   5.284   5.108   2.154 -0.4002 -0.5193  0.4585
 1052WAT     H2 4915   5.398   5.115   2.077 -0.4588  2.5721  0.5292
 1052WAT    EPW 4916   5.360   5.092   2.141 -0.0065  0.2065  0.4043
 1053WAT      O 4917   5.431   3.850   7.870  0.2303 -0.0501 -0.5955
 1053WAT     H1 4918   5.404   3.915   7.921 -1.2804  0.3687 -1.8509
 1053WAT     H2 4919   5.433   3.781   7.923  0.3665  0.6976  0.4024
 1053WAT    EPW 4920   5.427   3.849   7.885 -0.3301 -0.2088  0.4076
 1054WAT      O 4921   5.476   3.077   4.632 -0.4629  0.4600  0.5700
 1054WAT     H1 4922   5.498   3.059   4.714 -1.6887  1.5783  1.1957
 1054WAT     H2 4923   5.529   3.143   4.611 -0.2898  0.3103  0.5355
 1054WAT    EPW 4924   5.487   3.084   4.641 -1.0765  0.2535  0.2758
 1055WAT      O 4925   6.330   4.099   3.749 -0.1792  0.1633  0.8442
 1055WAT     H1 4926   6.407   4.075   3.782 -0.9122 -0.5489  2.1087
 1055WAT     H2 4927   6.322   4.182   3.774 -0.2135 -0.0304  1.4927
 1055WAT    EPW 4928   6.340   4.107   3.757 -0.0077 -0.6530 -0.0270
 1056WAT      O 4929   2.131   5.464   1.881 -0.1962  0.0161 -0.0349
 1056WAT     H1 4930   2.167   5.507   1.815  1.5918  1.4129  1.7409
 1056WAT     H2 4931   2.095   5.394   1.843  1.0339  0.5765 -2.3985
 1056WAT    EPW 4932   2.131   5.460   1.866  0.1010  0.0014 -0.1611
 1057WAT      O 4933   5.188   3.843   2.023 -0.0058 -0.1918  0.0368
 1057WAT     H1 4934   5.212   3.760   2.015  1.7064  0.2315  0.2942
 1057WAT     H2 4935   5.102   3.841   2.013  0.1049 -1.8701 -0.8691
 1057WAT    EPW 4936   5.179   3.831   2.021  0.6778  0.3250 -0.4939
 1058WAT      O 4937   3.470   0.428   3.949  0.1643  0.0337 -0.2779
 1058WAT     H1 4938   3.519   0.437   4.020 -0.5655 -0.3290  0.2855
 1058WAT     H2 4939   3.407   0.488   3.960 -0.4934 -0.6623 -0.1410
 1058WAT    EPW 4940   3.468   0.438   3.961 -0.5859 -0.0475 -0.0717
 1059WAT      O 4941   1.727   4.895   2.705 -0.3341  0.6938  0.1533
 1059WAT     H1 4942   1.810   4.882   2.727  0.2540 -0.7638 -2.4554
 1059WAT     H2 4943   1.682   4.848   2.763  0.6984  0.9904  1.2147
 1059WAT    EPW 4944   1.732   4.886   2.717 -0.2100 -0.2183  0.0278
 1060WAT      O 4945   6.335   4.120   3.481  0.1783 -0.2670  0.2326
 1060WAT     H1 4946   6.262   4.147   3.443  1.1143 -0.0796 -1.5926
 1060WAT     H2 4947   6.312   4.104   3.563 -1.8439 -0.0435 -0.2470
 1060WAT    EPW 4948   6.321   4.121   3.487 -0.4918 -0.3957 -0.5785
 1061WAT      O 4949   6.967   5.548   3.345 -0.2169  0.1447 -0.3773
 1061WAT     H1 4950   6.950   5.463   3.347  1.8695 -0.4972 -3.4330
 1061WAT     H2 4951   6.916   5.579   3.281 -0.3640  1.0617  0.1573
 1061WAT    EPW 4952   6.957   5.540   3.336 -0.6937 -0.3732 -0.3263
 1062WAT      O 4953   0.671   4.686   2.459 -0.7645 -0.1211  0.0239
 1062WAT     H1 4954   0.608   4.647   2.413 -1.4142 -0.1112  0.8870
 1062WAT     H2 4955   0.736   4.627   2.457 -1.7281 -1.3116  1.3148
 1062WAT    EPW 4956   0.671   4.671   2.452  0.3921  0.4238  0.0600
 1063WAT      O 4957   3.176   7.632   1.006  0.3393  0.0042  0.2609
 1063WAT     H1 4958   3.229   7.563   1.011  0.0775 -0.2511 -0.4434
 1063WAT     H2 4959   3.136   7.622   0.929 -1.2201 -0.1728  1.0626
 1063WAT    EPW 4960   3.178   7.620   0.996 -0.4166  0.1593 -0.2613
 1064WAT      O 4961   2.044   0.615   2.835 -0.3007  0.5123  0.3961
 1064WAT     H1 4962   2.058   0.654   2.758 -0.6478 -0.1032  0.0113
 1064WAT     H2 4963   2.124   0.592   2.861 -0.2466  0.0133 -0.1731
 1064WAT    EPW 4964   2.058   0.617   2.827  0.1568  0.3892  0.3268
 1065WAT      O 4965   5.211   2.228   3.067 -0.4944  0.0082 -0.1622
 1065WAT     H1 4966   5.274   2.283   3.042  1.2694 -0.5204  2.6130
 1065WAT     H2 4967   5.255   2.155   3.089 -2.1240 -0.6174  1.2591
 1065WAT    EPW 4968   5.227   2.225   3.067  0.6419 -0.4071  0.4760
 1066WAT      O 4969   5.350   7.886   3.640 -0.1113 -0.4303 -0.0842
 1066WAT     H1 4970   5.278   7.857   3.679 -0.3694 -1.3011 -1.1860
 1066WAT     H2 4971   5.406   7.819   3.648  0.3418 -0.0354  0.1225
 1066WAT    EPW 4972   5.348   7.872   3.647  0.3458 -0.0781 -0.4130
 1067WAT      O 4973   5.642   2.604   5.220 -0.0035 -0.8081  0.2345
 1067WAT     H1 4974   5.679   2.525   5.222  0.1684 -0.7236  1.2065
 1067WAT     H2 4975   5.625   2.620   5.304  1.2835  0.7796  0.2418
 1067WAT    EPW 4976   5.645   2.595   5.233 -0.2052 -0.7096  0.4699
 1068WAT      O 4977   7.034   2.109   4.784 -0.3151 -0.1549 -0.0600
 1068WAT     H1 4978   7.005   2.175   4.834  0.8812  0.4700 -0.1286
 1068WAT     H2 4979   6.995   2.039   4.816 -1.5108  0.5674  0.1220
 1068WAT    EPW 4980   7.024   2.109   4.796 -0.0830 -0.4237 -0.2353
 1069WAT      O 4981   8.055   2.718   1.130  0.5635 -0.2222 -0.1124
 1069WAT     H1 4982   8.082   2.698   1.049 -1.4416  0.4144 -0.9927
 1069WAT     H2 4983   7.993   2.660   1.147 -1.1404  1.4427 -0.3015
 1069WAT    EPW 4984   8.050   2.707   1.120 -0.0531  0.5172  0.0460
 1070WAT      O 4985   5.001   0.236   5.934  0.5250 -0.7257 -0.2535
 1070WAT     H1 4986   4.928   0.242   5.888  0.6587  0.2931 -0.3523
 1070WAT     H2 4987   4.973   0.226   6.016  0.2550  0.2956 -0.2080
 1070WAT    EPW 4988   4.986   0.236   5.939 -0.3985  0.0955  0.4383
 1071WAT      O 4989   7.284   5.438   2.657  0.0074 -0.2151 -0.1602
 1071WAT     H1 4990   7.202   5.456   2.681 -0.2893 -1.1627 -0.3997
 1071WAT     H2 4991   7.274   5.372   2.601  1.0754 -1.8784  1.4957
 1071WAT    EPW 4992   7.270   5.431   2.652 -0.3250 -0.4286 -0.0426
 1072WAT      O 4993   6.165   3.761   1.430 -0.1215  0.6560 -0.3610
 1072WAT     H1 4994   6.219   3.704   1.467  0.2613  1.7836  0.8868
 1072WAT     H2 4995   6.117   3.790   1.496 -1.3082  0.7224 -1.2160
 1072WAT    EPW 4996   6.166   3.757   1.445  0.1162 -0.1941 -0.3283
 1073WAT      O 4997   0.035   5.714   1.378  0.2191 -0.2997 -0.3765
 1073WAT     H1 4998   0.092   5.771   1.346  0.8525 -1.1929 -0.8840
 1073WAT     H2 4999   0.079   5.639   1.379 -0.9868 -1.0607 -0.9693
 1073WAT    EPW 5000   0.050   5.712   1.373 -0.2348 -0.3090 -0.8131
 1074WAT      O 5001   1.318   5.706   1.013  0.2142  0.1730  0.3499
 1074WAT     H1 5002   1.238   5.717   1.046  0.8454  1.0760  1.6490
 1074WAT     H2 5003   1.352   5.786   1.014  0.6211  0.0643 -1.6399
 1074WAT    EPW 5004   1.311   5.719   1.018 -0.4405 -0.3536 -0.4989
 1075WAT      O 5005   3.101   2.159   0.332  0.0049  0.7137  0.3636
 1075WAT     H1 5006   3.104   2.246   0.342  2.7716  1.4081 -3.8063
 1075WAT     H2 5007   3.028   2.146   0.287  0.0309  1.0483  0.2223
 1075WAT    EPW 5008   3.091   2.170   0.327 -0.2384 -0.5577 -0.1631
 1076WAT      O 5009   6.895   4.617   4.224 -0.0436  0.2722 -0.0236
 1076WAT     H1 5010   6.842   4.548   4.219 -1.1818  1.0780  0.4438
 1076WAT     H2 5011   6.970   4.588   4.190 -0.3509 -1.3134  0.5754
 1076WAT    EPW 5012   6.899   4.603   4.218  0.4250 -0.3607  0.3788
 1077WAT      O 5013   5.740   3.827   7.921  0.4716 -0.0745  0.3353
 1077WAT     H1 5014   5.732   3.765   7.860  0.1885 -0.0890  0.3871
 1077WAT     H2 5015   5.660   3.862   7.925  0.6534  0.3483  0.2514
 1077WAT    EPW 5016   5.727   3.823   7.912 -0.2024  0.0177 -0.3941
 1078WAT      O 5017   6.776   4.857   2.053 -0.0972  0.3375 -0.4686
 1078WAT     H1 5018   6.753   4.774   2.071  0.9756 -0.4495 -2.4345
 1078WAT     H2 5019   6.771   4.897   2.131  1.5395 -2.1061  1.0385
 1078WAT    EPW 5020   6.772   4.851   2.067  0.1338 -0.5915 -0.2020
 1079WAT      O 5021   2.219   2.531   2.710 -0.0446  0.0987 -0.6392
 1079WAT     H1 5022   2.154   2.474   2.725  1.5716 -1.2581  1.7108
 1079WAT     H2 5023   2.176   2.605   2.690 -2.4385 -0.3432  2.1470
 1079WAT    EPW 5024   2.203   2.534   2.709  0.6481  0.0331 -0.5598
 1080WAT      O 5025   0.839   1.578   3.867  0.1505  0.0364 -0.4378
 1080WAT     H1 5026   0.813   1.605   3.946  1.1935  0.0042 -0.0657
 1080WAT     H2 5027   0.909   1.528   3.884 -0.6793 -1.4660 -1.2547
 1080WAT    EPW 5028   0.846   1.575   3.881  0.0291  0.3924  0.4055
 1081WAT      O 5029   5.981   4.591   7.426 -0.1931 -0.4525 -0.1690
 1081WAT     H1 5030   5.894   4.583   7.435 -0.5651  2.0975 -0.9470
 1081WAT     H2 5031   5.999   4.546   7.354 -0.6418 -1.9403  0.6005
 1081WAT    EPW 5032   5.971   4.583   7.417 -0.2096  0.5057  0.6074
 1082WAT      O 5033   6.352   0.629   4.683  0.0165  0.0999 -0.2407
 1082WAT     H1 5034   6.272   0.615   4.717 -1.3215  2.4624 -2.0780
 1082WAT     H2 5035   6.363   0.715   4.692  3.1072 -0.3184  1.2568
 1082WAT    EPW 5036   6.342   0.640   4.690  0.4130  0.3388  0.3215
 1083WAT      O 5037   5.756   4.992   5.556 -0.1534  0.7416 -0.5263
 1083WAT     H1 5038   5.739   4.962   5.476 -0.6595 -0.0403 -0.1340
 1083WAT     H2 5039   5.840   4.971   5.568 -0.9981 -2.5612  0.5574
 1083WAT    EPW 5040   5.766   4.985   5.546  0.5474 -0.2572  0.1691
 1084WAT      O 5041   5.475   2.422   3.978 -0.3748 -0.6613  0.2039
 1084WAT     H1 5042   5.434   2.499   3.990  2.0200  0.5328  1.4596
 1084WAT     H2 5043   5.431   2.367   4.029 -1.0670  0.2874  0.6587
 1084WAT    EPW 5044   5.462   2.426   3.987  0.1612  0.4199 -0.1769
 1085WAT      O 5045   7.690   6.725   3.636 -0.3411 -0.3090 -0.0681
 1085WAT     H1 5046   7.663   6.715   3.719 -1.8084 -1.5545 -0.6503
 1085WAT     H2 5047   7.739   6.654   3.622 -0.2270 -0.1828 -0.3132
 1085WAT    EPW 5048   7.694   6.713   3.647 -0.3559 -0.1931 -0.9177
 1086WAT      O 5049   6.582   2.975   3.909 -0.8538  0.5465 -0.4098
 1086WAT     H1 5050   6.497   2.996   3.911 -0.6387  1.4189  1.5807
 1086WAT     H2 5051   6.613   3.007   3.984  0.6679 -2.1929  0.2697
 1086WAT    EPW 5052   6.574   2.983   3.920 -0.0360 -0.1712  0.0169
 1087WAT      O 5053   4.769   4.970   2.379  0.2159 -0.4829 -0.3287
 1087WAT     H1 5054   4.790   4.905   2.325  0.3075 -1.7907  1.1690
 1087WAT     H2 5055   4.838   4.975   2.432 -0.2704  0.0599  0.2696
 1087WAT    EPW 5056   4.782   4.961   2.379  0.1420 -0.6263 -0.3341
 1088WAT      O 5057   6.022   6.763   0.419  0.4362 -0.0719  0.4892
 1088WAT     H1 5058   6.025   6.680   0.447  0.2939 -0.5881 -0.9690
 1088WAT     H2 5059   5.986   6.805   0.487 -1.8682 -1.6299  0.3667
 1088WAT    EPW 5060   6.017   6.757   0.433  0.3831 -0.3509  0.0075
 1089WAT      O 5061   4.835   5.311   4.689 -0.6432  0.1330  0.0800
 1089WAT     H1 5062   4.821   5.303   4.774 -0.1721 -1.4247  0.0342
 1089WAT     H2 5063   4.756   5.299   4.654 -0.7341  0.1742  0.2725
 1089WAT    EPW 5064   4.821   5.308   4.696  0.1782 -0.3340  0.5928
 1090WAT      O 5065   2.485   5.145   6.446 -0.2837  0.3381  0.1445
 1090WAT     H1 5066   2.561   5.137   6.404  0.1116 -3.4734  1.1836
 1090WAT     H2 5067   2.430   5.174   6.385  1.5186  0.9578 -1.2419
 1090WAT    EPW 5068   2.488   5.148   6.431  0.2321 -0.1858 -0.0988
 1091WAT      O 5069   6.514   1.879   4.169 -0.4075  0.0100 -0.2712
 1091WAT     H1 5070   6.439   1.881   4.213 -0.6510  1.2067 -0.7057
 1091WAT     H2 5071   6.502   1.815   4.111 -2.1944  1.8753 -2.1426
 1091WAT    EPW 5072   6.501   1.870   4.167  0.3352 -0.2982  0.2363
 1092WAT      O 5073   1.503   4.085   0.344 -0.2172 -0.3755 -0.0681
 1092WAT     H1 5074   1.563   4.141   0.372 -0.4130  0.2040 -0.7698
 1092WAT     H2 5075   1.514   4.016   0.396  0.8243 -0.1555  0.0265
 1092WAT    EPW 5076   1.513   4.083   0.356 -0.0977 -0.2692 -0.5574
 1093WAT      O 5077   4.521   3.039   0.165  0.0554 -0.3681  0.0905
 1093WAT     H1 5078   4.496   3.085   0.235  0.9980 -1.0754  0.9345
 1093WAT     H2 5079   4.584   3.087   0.130 -0.3250 -0.0772 -0.2015
 1093WAT    EPW 5080   4.526   3.053   0.170  0.1765 -0.0102  0.7088
 1094WAT      O 5081   3.207   6.816   2.164 -0.6778  0.2804  0.0582
 1094WAT     H1 5082   3.177   6.803   2.245 -2.1394 -1.1477 -0.6547
 1094WAT     H2 5083   3.248   6.742   2.145 -1.1932  0.2163 -0.8495
 1094WAT    EPW 5084   3.209   6.803   2.173  0.5697  0.0640  0.4172
 1095WAT      O 5085   1.304   3.396   3.463 -0.1323 -0.0884 -0.4218
 1095WAT     H1 5086   1.292   3.322   3.508  1.2639 -0.9258 -1.3662
 1095WAT     H2 5087   1.227   3.408   3.423 -0.5206 -0.7695  0.0910
 1095WAT    EPW 5088   1.291   3.387   3.464  0.2846 -0.0609  0.2182
 1096WAT      O 5089   5.974   7.424   0.449 -0.1911  0.1382  0.2126
 1096WAT     H1 5090   6.046   7.473   0.437 -1.4139  1.6829 -1.4198
 1096WAT     H2 5091   6.006   7.344   0.464  1.8759  1.2015  2.0296
 1096WAT    EPW 5092   5.990   7.419   0.449 -0.6721  0.4444  0.4341
 1097WAT      O 5093   1.719   6.711   1.587  0.1151  0.2055  0.2182
 1097WAT     H1 5094   1.720   6.769   1.523  1.3604 -0.8926 -0.8141
 1097WAT     H2 5095   1.752   6.754   1.655  2.4604  0.3407 -0.9152
 1097WAT    EPW 5096   1.724   6.726   1.588  0.2586 -0.0388 -0.1261
 1098WAT      O 5097   5.506   3.491   2.043 -0.7776  0.0294 -0.3142
 1098WAT     H1 5098   5.552   3.552   2.086  0.0741 -2.3198  2.4105
 1098WAT     H2 5099   5.545   3.417   2.065 -3.0441 -1.7310 -1.7834
 1098WAT    EPW 5100   5.518   3.489   2.052 -0.1755 -0.6555  0.2268
 1099WAT      O 5101   2.051   5.458   3.993  0.2005  0.4437  0.3082
 1099WAT     H1 5102   1.996   5.394   4.012 -0.4206  0.7586 -0.3475
 1099WAT     H2 5103   2.004   5.530   4.008  0.9919  0.7586  1.3429
 1099WAT    EPW 5104   2.036   5.459   3.998 -0.4280  0.3982 -0.5146
 1100WAT      O 5105   2.122   1.416   2.634  0.4079 -0.0639 -0.2662
 1100WAT     H1 5106   2.151   1.485   2.679 -0.9587  1.1092 -1.0892
 1100WAT     H2 5107   2.195   1.373   2.612  1.3399  1.4431 -0.2286
 1100WAT    EPW 5108   2.137   1.420   2.638 -0.6168  0.8816 -0.5030
 1101WAT      O 5109   6.715   6.757   2.555 -0.8147 -0.3108  0.9445
 1101WAT     H1 5110   6.693   6.678   2.526 -0.7277  0.1137 -0.3489
 1101WAT     H2 5111   6.644   6.785   2.597 -0.8497 -1.0533  1.3938
 1101WAT    EPW 5112   6.702   6.750   2.557  0.5219  0.7319  0.3147
 1102WAT      O 5113   4.728   5.005   5.004  0.0620  0.0907  0.3633
 1102WAT     H1 5114   4.719   5.001   4.918 -0.4745 -2.4228  0.4681
 1102WAT     H2 5115   4.729   4.922   5.029 -2.0348  0.7129  3.0146
 1102WAT    EPW 5116   4.727   4.992   4.995 -0.1684 -0.4019 -0.0881
 1103WAT      O 5117   7.380   5.765   4.086 -0.1235 -0.0595  0.3688
 1103WAT     H1 5118   7.379   5.714   4.156  0.1845 -1.5659 -0.6786
 1103WAT     H2 5119   7.296   5.786   4.074 -0.3182 -0.7187  0.5427
 1103WAT    EPW 5120   7.368   5.761   4.094 -0.3956 -0.2160  0.2202
 1104WAT      O 5121   5.143   2.901   2.711 -0.2317 -0.4343  0.5343
 1104WAT     H1 5122   5.094   2.969   2.687 -0.8021 -0.2026  2.2076
 1104WAT     H2 5123   5.208   2.902   2.654 -1.6362 -0.1443 -1.1436
 1104WAT    EPW 5124   5.145   2.911   2.699 -0.5441  0.1134 -0.4922
 1105WAT      O 5125   7.563   3.493   0.137 -0.2550  0.4771 -0.1946
 1105WAT     H1 5126   7.635   3.497   0.185  0.7419 -0.2613 -1.5499
 1105WAT     H2 5127   7.557   3.408   0.117 -0.8612  0.6953 -1.0124
 1105WAT    EPW 5128   7.573   3.481   0.141 -0.0453 -0.8265  0.3087
 1106WAT      O 5129   1.984   3.225   1.432 -0.0997 -0.4121  0.4246
 1106WAT     H1 5130   1.964   3.260   1.355 -1.2920 -0.5437  0.6531
 1106WAT     H2 5131   1.935   3.270   1.488  0.9604 -0.1205  1.1634
 1106WAT    EPW 5132   1.974   3.237   1.429 -0.2699 -0.5158 -0.3272
 1107WAT      O 5133   4.477   7.529   0.902 -0.0100  0.5973  0.2332
 1107WAT     H1 5134   4.476   7.469   0.965  0.9704 -1.0624 -1.2490
 1107WAT     H2 5135   4.487   7.604   0.946  0.2992 -0.4479  2.0537
 1107WAT    EPW 5136   4.478   7.531   0.918 -0.4745  0.2140  0.1936
 1108WAT      O 5137   1.002   3.242   3.118  0.4194 -0.1076  0.0255
 1108WAT     H1 5138   1.003   3.260   3.032  0.5959 -0.8968 -0.1418
 1108WAT     H2 5139   1.043   3.165   3.123 -0.9090 -0.7974  0.6457
 1108WAT    EPW 5140   1.008   3.234   3.106  0.3442  0.0818 -0.1198
 1109WAT      O 5141   0.675   5.403   2.376 -0.4400  0.0283 -0.4616
 1109WAT     H1 5142   0.621   5.336   2.363 -0.0707 -0.0517 -1.7432
 1109WAT     H2 5143   0.700   5.425   2.295  0.0026  1.2492 -0.0079
 1109WAT    EPW 5144   0.671   5.396   2.362 -0.0811  0.8280 -0.0694
 1110WAT      O 5145   7.532   5.587   3.904 -0.1400  0.0592 -0.2368
 1110WAT     H1 5146   7.508   5.651   3.958  1.2811 -0.2766  0.8698
 1110WAT     H2 5147   7.465   5.579   3.849 -0.0438  3.0477 -0.9490
 1110WAT    EPW 5148   7.519   5.595   3.904  0.2288 -0.0082 -0.1628
 1111WAT      O 5149   4.278   5.136   2.309  0.1480  0.4064 -0.3319
 1111WAT     H1 5150   4.213   5.091   2.273  0.0453  1.4502 -1.5486
 1111WAT     H2 5151   4.295   5.197   2.249  2.6282 -0.1686 -0.2996
 1111WAT    EPW 5152   4.271   5.139   2.295 -0.1714  0.1013  0.2477
 1112WAT      O 5153   6.478   2.056   3.029  0.1389  0.0678  0.0753
 1112WAT     H1 5154   6.428   2.059   3.101 -0.3568  0.0170 -0.2656
 1112WAT     H2 5155   6.429   2.096   2.968  0.3457 -0.3339 -0.3578
 1112WAT    EPW 5156   6.463   2.062   3.031 -0.1743 -0.1545 -0.8587
 1113WAT      O 5157   0.241   3.828   4.083 -0.8657 -0.3199  0.1239
 1113WAT     H1 5158   0.252   3.761   4.138 -0.2997 -0.5330 -0.2521
 1113WAT     H2 5159   0.224   3.790   4.007 -1.6021 -0.0194  0.1225
 1113WAT    EPW 5160   0.240   3.813   4.080  0.5276  0.0904 -0.2044
 1114WAT      O 5161   0.563   3.924   2.726 -0.3751  0.6381 -0.1846
 1114WAT     H1 5162   0.549   3.899   2.644 -1.1392  0.7517 -0.0967
 1114WAT     H2 5163   0.497   3.978   2.743 -0.7727 -0.1299  0.8151
 1114WAT    EPW 5164   0.551   3.928   2.716  0.7199 -0.1030  0.1751
 1115WAT      O 5165   7.580   0.841   3.892  0.1606 -0.0678  0.3262
 1115WAT     H1 5166   7.546   0.875   3.965  0.0387  0.1587  0.1653
 1115WAT     H2 5167   7.510   0.808   3.850  0.1115  0.5662 -0.0944
 1115WAT    EPW 5168   7.565   0.841   3.896  0.2819 -0.1976 -0.0908
 1116WAT      O 5169   2.082   2.439   7.438  0.7117 -0.2543  0.1359
 1116WAT     H1 5170   2.050   2.358   7.440  0.2872 -0.0828  0.2985
 1116WAT     H2 5171   2.018   2.488   7.472  1.1446  0.0882  0.4662
 1116WAT    EPW 5172   2.068   2.434   7.443  0.0254 -0.1966 -0.2374
 1117WAT      O 5173   2.852   0.278   5.693  0.7398 -0.2676 -0.5036
 1117WAT     H1 5174   2.769   0.262   5.673 -0.1750 -0.3234  2.7817
 1117WAT     H2 5175   2.879   0.202   5.727  2.2881 -0.3340 -1.7513
 1117WAT    EPW 5176   2.844   0.264   5.695  0.0262 -0.0343 -0.5319
 1118WAT      O 5177   1.902   6.248   3.484  0.2751 -0.0743  0.1430
 1118WAT     H1 5178   1.849   6.311   3.512 -1.0145 -1.7350  1.6803
 1118WAT     H2 5179   1.962   6.243   3.547  1.0602  0.3805 -0.5549
 1118WAT    EPW 5180   1.903   6.257   3.497  0.3957 -0.2605  0.0839
 1119WAT      O 5181   8.048   4.488   3.403 -0.0128 -0.3808  0.1531
 1119WAT     H1 5182   8.081   4.557   3.444  0.1162  0.0189 -0.6171
 1119WAT     H2 5183   8.095   4.482   3.329 -0.9238 -0.4608 -0.4390
 1119WAT    EPW 5184   8.060   4.497   3.398  0.4089  0.3879  1.0073
 1120WAT      O 5185   6.689   6.363   3.032  0.7031  0.1110  0.0117
 1120WAT     H1 5186   6.699   6.438   2.988 -0.2615 -1.3376 -2.9205
 1120WAT     H2 5187   6.603   6.356   3.044  0.8263 -0.2753  0.7458
 1120WAT    EPW 5188   6.678   6.373   3.027  0.3742  0.3642  0.2589
 1121WAT      O 5189   6.103   1.390   3.774  0.6550 -0.4420  0.5320
 1121WAT     H1 5190   6.171   1.430   3.811  0.6782  0.8739 -0.8748
 1121WAT     H2 5191   6.034   1.436   3.802  0.5088 -0.5558  0.3637
 1121WAT    EPW 5192   6.103   1.402   3.784  0.1583 -0.5639 -0.4681
 1122WAT      O 5193   0.222   7.415   2.134 -0.8885  0.2431 -0.3227
 1122WAT     H1 5194   0.191   7.446   2.209  0.9223  2.7400 -0.4873
 1122WAT     H2 5195   0.252   7.336   2.155 -3.2997 -0.4686  0.7649
 1122WAT    EPW 5196   0.222   7.408   2.148 -0.9064  0.0383  0.2498
 1123WAT      O 5197   1.465   3.517   4.987 -0.0922  0.1484 -0.0784
 1123WAT     H1 5198   1.391   3.557   4.965  0.5791  0.9270 -1.0500
 1123WAT     H2 5199   1.453   3.435   4.963  0.1096  0.6980 -2.2573
 1123WAT    EPW 5200   1.452   3.511   4.980  0.3199  0.5808  0.1105
 1124WAT      O 5201   5.406   3.800   2.797  0.2199 -0.2486 -0.2411
 1124WAT     H1 5202   5.466   3.746   2.831 -0.6553 -0.9228  0.2506
 1124WAT     H2 5203   5.343   3.747   2.769 -0.5043  0.4958 -0.0620
 1124WAT    EPW 5204   5.406   3.784   2.798 -0.1581 -0.1137  0.2814
 1125WAT      O 5205   0.308   2.197   2.212  0.0080  0.1539 -0.2749
 1125WAT     H1 5206   0.222   2.196   2.199 -0.0250 -1.4808 -0.1771
 1125WAT     H2 5207   0.328   2.112   2.222  1.6384  0.4933 -0.3736
 1125WAT    EPW 5208   0.298   2.184   2.212  0.0466 -0.9621  0.2677
 1126WAT      O 5209   2.049   6.569   3.326 -0.1366  0.0465  0.1369
 1126WAT     H1 5210   1.975   6.552   3.282  1.1640 -1.0049 -1.7525
 1126WAT     H2 5211   2.028   6.548   3.408 -2.5124  1.6427  0.0572
 1126WAT    EPW 5212   2.035   6.563   3.331 -0.7187 -0.0207  0.4697
 1127WAT      O 5213   5.627   0.293   3.543 -0.2484  0.1796  0.6298
 1127WAT     H1 5214   5.574   0.231   3.575 -0.0789 -0.2899  0.0160
 1127WAT     H2 5215   5.667   0.324   3.614 -2.4664  1.6637  1.3692
 1127WAT    EPW 5216   5.625   0.288   3.558 -0.0589 -0.2121  0.3506
 1128WAT      O 5217   4.426   1.276   3.378  0.0481 -0.1785  1.1693
 1128WAT     H1 5218   4.501   1.287   3.334 -2.1094  1.2795 -2.5138
 1128WAT     H2 5219   4.419   1.189   3.384  0.7330 -0.4292 -0.9555
 1128WAT    EPW 5220   4.436   1.265   3.373 -0.0390 -0.0645 -0.4608
 1129WAT      O 5221   6.643   2.909   3.511  0.6835  0.1468  0.3973
 1129WAT     H1 5222   6.727   2.909   3.533  1.2474  1.7003 -1.4806
 1129WAT     H2 5223   6.637   2.844   3.453  0.4411 -0.3319  0.9486
 1129WAT    EPW 5224   6.655   2.899   3.506  0.1837  0.8683  0.2386
 1130WAT      O 5225   6.723   2.032   1.215  0.3104 -0.2081 -0.6915
 1130WAT     H1 5226   6.688   1.985   1.151 -0.1950  0.8276 -1.2057
 1130WAT     H2 5227   6.655   2.056   1.264  0.4612  0.5383 -0.8253
 1130WAT    EPW 5228   6.708   2.029   1.213  0.3761 -0.6190  0.6645
 1131WAT      O 5229   5.817   7.014   3.899 -0.1637  0.4986 -0.1554
 1131WAT     H1 5230   5.770   7.054   3.960 -1.9239 -2.0097  0.2821
 1131WAT     H2 5231   5.758   6.986   3.841  1.3339  1.7193 -2.4418
 1131WAT    EPW 5232   5.802   7.016   3.899 -0.1243 -0.3351 -0.5865
 1132WAT      O 5233   2.485   6.596   1.396  0.1245 -0.2647  0.3100
 1132WAT     H1 5234   2.515   6.545   1.460 -0.1676 -0.0018  0.6580
 1132WAT     H2 5235   2.398   6.594   1.407  0.1068  0.2615  0.2902
 1132WAT    EPW 5236   2.476   6.588   1.407  0.4758 -0.0744 -0.2199
 1133WAT      O 5237   1.499   4.908   3.696  0.3045  0.1854  0.1191
 1133WAT     H1 5238   1.525   4.873   3.621  1.4106  0.3393  0.4024
 1133WAT     H2 5239   1.541   4.985   3.698  2.6882 -1.0038  2.1855
 1133WAT    EPW 5240   1.509   4.914   3.685  0.5401 -0.1576  0.3037
 1134WAT      O 5241   1.671   2.901   2.009 -0.0337  0.3752 -0.0110
 1134WAT     H1 5242   1.718   2.894   1.936  0.1483  1.0193  0.0376
 1134WAT     H2 5243   1.722   2.863   2.069  0.1378  0.4946 -0.0810
 1134WAT    EPW 5244   1.686   2.894   2.007  0.2746  0.3794 -0.3738
 1135WAT      O 5245   8.047   3.647   4.078 -0.1085 -0.1637 -0.3154
 1135WAT     H1 5246   8.036   3.726   4.113 -0.8089 -1.4242  2.6190
 1135WAT     H2 5247   7.967   3.612   4.083  0.2973 -1.2327 -1.0890
 1135WAT    EPW 5248   8.034   3.653   4.084  0.1915 -0.2118 -0.2644
 1136WAT      O 5249   1.385   4.711   1.421 -0.1940  0.4286  0.0405
 1136WAT     H1 5250   1.346   4.760   1.360 -1.8157 -0.2211  0.4853
 1136WAT     H2 5251   1.469   4.712   1.399 -0.3710  2.3300 -0.6952
 1136WAT    EPW 5252   1.391   4.718   1.409 -0.0184 -0.3803  0.5125
 1137WAT      O 5253   3.197   0.893   7.101 -0.5495  0.0479 -0.2377
 1137WAT     H1 5254   3.171   0.833   7.043  1.2310  1.0829 -2.2549
 1137WAT     H2 5255   3.218   0.961   7.051  0.4590  1.2369  1.7162
 1137WAT    EPW 5256   3.196   0.894   7.085  0.0763  0.2909  0.5948
 1138WAT      O 5257   7.185   0.605   0.489 -0.3989  0.4473  0.0925
 1138WAT     H1 5258   7.142   0.548   0.438  0.2559  1.3035 -1.4984
 1138WAT     H2 5259   7.248   0.557   0.525 -1.0276 -0.2334  0.3073
 1138WAT    EPW 5260   7.188   0.590   0.487  0.7937 -0.6333  0.1060
 1139WAT      O 5261   0.868   1.429   0.306  0.2783 -0.5762 -0.3755
 1139WAT     H1 5262   0.785   1.435   0.331  0.1606 -2.2182 -0.3037
 1139WAT     H2 5263   0.866   1.453   0.222 -0.0748  0.4152 -0.0974
 1139WAT    EPW 5264   0.855   1.434   0.297 -0.3023  0.1095 -0.0361
 1140WAT      O 5265   6.039   6.316   5.554  0.2349  0.1875  0.0562
 1140WAT     H1 5266   6.110   6.269   5.535  1.1418  1.9218 -1.0334
 1140WAT     H2 5267   5.974   6.260   5.540  1.1663 -0.3651 -2.6688
 1140WAT    EPW 5268   6.040   6.301   5.549  0.1140 -0.1852  1.1850
 1141WAT      O 5269   5.752   3.187   3.206 -0.2519  0.0931 -0.5002
 1141WAT     H1 5270   5.735   3.199   3.290  0.0365  0.8918 -0.5447
 1141WAT     H2 5271   5.693   3.127   3.181 -1.0631  0.6601  0.0188
 1141WAT    EPW 5272   5.740   3.180   3.215 -0.1280  0.4046 -0.1231
 1142WAT      O 5273   1.555   5.254   1.884 -0.3122  0.0782  0.1164
 1142WAT     H1 5274   1.616   5.192   1.887  1.0820  1.3912  0.3986
 1142WAT     H2 5275   1.481   5.211   1.901  0.6515 -1.4141  0.7806
 1142WAT    EPW 5276   1.553   5.238   1.887  0.1883  0.5280 -0.7108
 1143WAT      O 5277   7.861   0.311   3.142  0.0174 -0.4530 -0.2910
 1143WAT     H1 5278   7.870   0.284   3.224 -3.4984 -1.3219 -0.0339
 1143WAT     H2 5279   7.880   0.240   3.094  1.0890 -0.2290 -0.2228
 1143WAT    EPW 5280   7.865   0.297   3.147  0.5779 -0.8380  0.3312
 1144WAT      O 5281   5.873   3.612   4.572 -0.3750  0.7150  0.1315
 1144WAT     H1 5282   5.886   3.546   4.517 -0.0275  0.5768  0.3771
 1144WAT     H2 5283   5.947   3.615   4.618 -0.5143  1.0730  0.3337
 1144WAT    EPW 5284   5.886   3.603   4.571 -0.1789 -0.1864  0.5295
 1145WAT      O 5285   2.569   4.270   1.537 -0.8069 -0.2299  0.1530
 1145WAT     H1 5286   2.565   4.230   1.615 -4.5145  0.0421  0.3146
 1145WAT     H2 5287   2.550   4.353   1.556  2.2020  0.7891 -0.7238
 1145WAT    EPW 5288   2.565   4.276   1.551  0.0846  0.2427  0.9294
 1146WAT      O 5289   3.001   5.626   2.209  0.1560  0.4249 -0.1231
 1146WAT     H1 5290   2.947   5.639   2.276  1.0836  0.7176  0.5911
 1146WAT     H2 5291   3.080   5.632   2.246  0.7600 -3.3185 -0.3961
 1146WAT    EPW 5292   3.005   5.629   2.225  0.2549 -0.0450  0.0882
 1147WAT      O 5293   5.849   6.532   5.705 -0.3834 -0.5173 -0.0371
 1147WAT     H1 5294   5.924   6.492   5.685 -0.6716 -0.0836 -2.2276
 1147WAT     H2 5295   5.792   6.498   5.649 -1.4183  0.4996  0.3571
 1147WAT    EPW 5296   5.851   6.521   5.694 -0.3602  0.1890  0.2658
 1148WAT      O 5297   1.299   4.553   1.906  0.8052 -0.0858  0.1499
 1148WAT     H1 5298   1.216   4.530   1.917 -0.0585  2.0670 -1.2827
 1148WAT     H2 5299   1.322   4.584   1.985 -0.5248  1.4027  0.0145
 1148WAT    EPW 5300   1.290   4.554   1.920  0.1548  0.1651 -0.5629
 1149WAT      O 5301   0.790   1.731   1.141  0.1047  0.1426  0.7517
 1149WAT     H1 5302   0.805   1.813   1.115  1.3009 -0.0689  0.7401
 1149WAT     H2 5303   0.708   1.734   1.172 -0.6630  0.8601 -1.1539
 1149WAT    EPW 5304   0.780   1.743   1.141  0.0708  0.8955 -0.3772
 1150WAT      O 5305   2.555   4.694   2.232  0.5258  0.5978 -0.1337
 1150WAT     H1 5306   2.642   4.702   2.240  0.7585 -2.2976  1.5224
 1150WAT     H2 5307   2.531   4.653   2.305 -2.1120  0.4628 -0.9720
 1150WAT    EPW 5308   2.564   4.689   2.244 -0.2052 -0.1407 -0.3352
 1151WAT      O 5309   6.928   1.321   1.395 -0.2626  0.1895 -0.2964
 1151WAT     H1 5310   6.847   1.294   1.413  0.9019 -3.8584 -0.1300
 1151WAT     H2 5311   6.959   1.346   1.472 -1.3298  2.0042 -0.4016
 1151WAT    EPW 5312   6.920   1.321   1.409  0.1528 -0.1791  0.6651
 1152WAT      O 5313   6.600   4.716   2.370  0.6993  0.1403 -0.1104
 1152WAT     H1 5314   6.520   4.743   2.345  0.0928 -0.5915  0.9772
 1152WAT     H2 5315   6.584   4.644   2.416  1.8119  1.0390  1.7810
 1152WAT    EPW 5316   6.586   4.710   2.373  0.6049 -0.5917 -0.1408
 1153WAT      O 5317   0.625   5.933   3.300 -0.5086  0.3819 -0.5040
 1153WAT     H1 5318   0.656   5.996   3.249  0.8114  1.1377  1.1352
 1153WAT     H2 5319   0.679   5.866   3.286 -1.4714 -0.1944 -1.6895
 1153WAT    EPW 5320   0.638   5.932   3.291 -0.0301  0.3545  0.5316
 1154WAT      O 5321   5.988   3.943   4.504 -0.3587 -0.7999  0.2161
 1154WAT     H1 5322   6.053   3.887   4.519  0.0277 -0.3841  0.0696
 1154WAT     H2 5323   5.978   3.940   4.417  1.7637  1.6905 -0.2179
 1154WAT    EPW 5324   5.996   3.934   4.494  0.3093  0.1254  0.5522
 1155WAT      O 5325   0.013   2.722   3.217  0.4520 -0.1582 -0.5283
 1155WAT     H1 5326  -0.025   2.769   3.154 -0.0234 -0.3231 -0.3701
 1155WAT     H2 5327   0.070   2.778   3.253  1.2389 -0.2683 -1.5544
 1155WAT    EPW 5328   0.016   2.737   3.213  0.0660 -0.1185  0.1777
 1156WAT      O 5329   1.695   3.044   7.741  0.0872 -0.4970  0.4687
 1156WAT     H1 5330   1.735   3.108   7.697  0.6236 -0.3275  1.1939
 1156WAT     H2 5331   1.759   2.988   7.760  0.0683 -0.0544  1.9287
 1156WAT    EPW 5332   1.710   3.046   7.737 -0.1095  0.6742 -0.6993
 1157WAT      O 5333   5.064   3.853   7.188 -0.1215  0.5079 -0.2364
 1157WAT     H1 5334   5.091   3.933   7.207  1.1869  0.1970 -0.6763
 1157WAT     H2 5335   5.053   3.854   7.102 -0.7407  0.3936 -0.1624
 1157WAT    EPW 5336   5.066   3.865   7.178 -0.2474 -0.0392 -0.1032
 1158WAT      O 5337   3.506   4.719   3.140  0.8072  0.4143  0.1692
 1158WAT     H1 5338   3.469   4.723   3.219  2.1200  0.4171  0.8293
 1158WAT     H2 5339   3.487   4.796   3.104 -1.4600 -0.3289 -0.3404
 1158WAT    EPW 5340   3.498   4.731   3.146  0.3683 -0.2481  0.2130
 1159WAT      O 5341   1.603   2.727   0.884  0.2023 -0.3522  0.5844
 1159WAT     H1 5342   1.682   2.696   0.865 -0.0748 -0.3185 -0.7020
 1159WAT     H2 5343   1.555   2.705   0.815 -0.5301  0.9859  0.6379
 1159WAT    EPW 5344   1.608   2.719   0.871  0.1121 -0.1148  0.6071
 1160WAT      O 5345   5.961   1.820   3.619 -0.0538 -0.6600  0.2233
 1160WAT     H1 5346   5.918   1.764   3.567 -0.1299 -1.4564  1.1098
 1160WAT     H2 5347   6.043   1.813   3.591 -0.5317  1.5803 -2.1192
 1160WAT    EPW 5348   5.967   1.811   3.607  0.1807  0.1789  0.4300
 1161WAT      O 5349   6.999   7.303   8.057 -0.0255  0.2426 -0.1311
 1161WAT     H1 5350   6.999   7.322   7.972  0.8995 -0.6539 -0.3514
 1161WAT     H2 5351   7.043   7.370   8.092  1.5004 -0.4519 -0.6493
 1161WAT    EPW 5352   7.005   7.316   8.050 -0.1212 -0.0050  0.2078
 1162WAT      O 5353   7.021   1.128   0.303 -0.0329 -0.4377  0.2266
 1162WAT     H1 5354   7.106   1.147   0.304  0.4470 -2.3999  0.9982
 1162WAT     H2 5355   7.019   1.041   0.306 -2.0638 -0.6029 -2.1400
 1162WAT    EPW 5356   7.033   1.118   0.304 -0.4319  0.4685 -0.8447
 1163WAT      O 5357   5.632   6.879   7.024  0.1062  0.0048  0.2221
 1163WAT     H1 5358   5.704   6.858   7.069  0.4169  1.7132  0.5855
 1163WAT     H2 5359   5.567   6.860   7.080  0.4622  1.5881  1.2374
 1163WAT    EPW 5360   5.633   6.873   7.039 -0.2780  0.4029  0.0051
 1164WAT      O 5361   0.977   2.699   2.882 -0.1464 -0.1506 -0.3984
 1164WAT     H1 5362   1.015   2.663   2.952  1.0038 -1.8606 -1.8110
 1164WAT     H2 5363   0.927   2.634   2.851  0.4050  0.0984 -1.8906
 1164WAT    EPW 5364   0.975   2.684   2.888 -0.2059  0.7673 -0.4248
 1165WAT      O 5365   7.594   4.785   1.669  0.2347 -0.2496  0.1636
 1165WAT     H1 5366   7.547   4.836   1.722 -0.2455 -1.8987  1.4157
 1165WAT     H2 5367   7.645   4.740   1.723  3.2922  1.3339 -1.1202
 1165WAT    EPW 5368   7.595   4.786   1.684  0.2886  0.2548  0.4276
 1166WAT      O 5369   5.181   6.207   2.107  0.8544  0.0809  0.2370
 1166WAT     H1 5370   5.120   6.165   2.061  0.6254  1.6481 -0.9526
 1166WAT     H2 5371   5.186   6.161   2.181 -1.4028 -0.3735  0.1522
 1166WAT    EPW 5372   5.173   6.194   2.111 -0.1228 -0.3163  0.8130
 1167WAT      O 5373   4.826   5.214   5.312  0.5160  0.3379  0.4486
 1167WAT     H1 5374   4.882   5.147   5.306  0.3853  0.3313 -0.9845
 1167WAT     H2 5375   4.870   5.279   5.274  0.6676  1.1123  1.8873
 1167WAT    EPW 5376   4.841   5.214   5.305 -0.7287  0.2412 -1.1027
 1168WAT      O 5377   2.625   5.021   3.767  0.2160  0.2329  0.4036
 1168WAT     H1 5378   2.708   4.995   3.763  0.3552  0.6717  0.3988
 1168WAT     H2 5379   2.630   5.100   3.803 -0.1869  0.3196  0.2743
 1168WAT    EPW 5380   2.638   5.029   3.772  0.9981  0.5758 -0.1246
 1169WAT      O 5381   1.182   3.048   1.351  0.5958 -0.4122 -0.4449
 1169WAT     H1 5382   1.178   3.118   1.402  0.3507 -1.6361  1.3276
 1169WAT     H2 5383   1.268   3.035   1.340  0.8237 -1.5859  1.9335
 1169WAT    EPW 5384   1.194   3.056   1.357 -0.8223  0.2661  0.0579
 1170WAT      O 5385   5.925   5.875   5.207  0.5972  0.4214  0.7402
 1170WAT     H1 5386   5.958   5.868   5.126  1.1426 -1.1931  1.0654
 1170WAT     H2 5387   5.986   5.921   5.250  0.9689  0.0937  0.5703
 1170WAT    EPW 5388   5.939   5.881   5.201  0.3471 -0.1653 -0.1188
 1171WAT      O 5389   7.932   6.919   2.298 -1.4177 -0.1227  0.3568
 1171WAT     H1 5390   7.961   6.976   2.239 -2.2180 -0.0820 -0.0013
 1171WAT     H2 5391   7.911   6.969   2.366  0.1844 -0.2284  0.9945
 1171WAT    EPW 5392   7.933   6.935   2.299  0.6207  0.3184 -0.2164
 1172WAT      O 5393   7.120   2.506   3.922  0.1227  0.1005  0.4279
 1172WAT     H1 5394   7.094   2.450   3.983 -0.1324 -0.1517  0.0896
 1172WAT     H2 5395   7.047   2.523   3.877  0.6224 -1.0558 -0.8950
 1172WAT    EPW 5396   7.106   2.500   3.924 -0.4000 -0.7765  0.4542
 1173WAT      O 5397   1.004   2.388   4.737 -0.1118 -0.0750  0.1795
 1173WAT     H1 5398   1.023   2.466   4.772  1.1405 -0.1456 -0.2659
 1173WAT     H2 5399   0.984   2.339   4.806  2.3994 -0.2369  0.9068
 1173WAT    EPW 5400   1.004   2.393   4.753 -0.7260  0.2175 -1.0677
 1174WAT      O 5401   2.106   7.542   5.806 -0.2421  0.4124  0.9789
 1174WAT     H1 5402   2.178   7.515   5.766 -1.2236  2.9578 -3.1205
 1174WAT     H2 5403   2.134   7.608   5.856  0.6544 -1.0113  2.4299
 1174WAT    EPW 5404   2.120   7.548   5.807 -0.9516 -0.3011  0.5424
 1175WAT      O 5405   5.229   5.065   2.624 -0.5112  0.1826 -0.2633
 1175WAT     H1 5406   5.306   5.099   2.602 -1.2673  1.2090 -1.4712
 1175WAT     H2 5407   5.217   5.092   2.706 -0.2006  1.2152 -0.5372
 1175WAT    EPW 5408   5.239   5.074   2.633  0.9111  0.4373 -0.1356
 1176WAT      O 5409   3.310   3.899   6.253 -0.0860 -0.4311  0.4506
 1176WAT     H1 5410   3.373   3.926   6.200 -0.5549  0.1275  0.1603
 1176WAT     H2 5411   3.348   3.837   6.301  0.1638 -1.4307 -0.9901
 1176WAT    EPW 5412   3.325   3.894   6.253 -0.1494 -0.1663  0.0472
 1177WAT      O 5413   7.206   4.529   3.328 -0.1056  0.3922  0.2868
 1177WAT     H1 5414   7.211   4.513   3.242 -0.1699 -4.1870  0.9008
 1177WAT     H2 5415   7.288   4.547   3.350 -0.3232  3.1738 -0.8356
 1177WAT    EPW 5416   7.219   4.529   3.318 -0.1774 -0.1967  0.5486
 1178WAT      O 5417   0.284   7.880   0.900  0.1156  0.6401 -0.1079
 1178WAT     H1 5418   0.261   7.802   0.869  1.0555  0.3199 -0.0025
 1178WAT     H2 5419   0.327   7.861   0.973  0.1755  1.2728  0.0239
 1178WAT    EPW 5420   0.287   7.866   0.906 -0.5673 -0.3543  0.4825
 1179WAT      O 5421   6.580   5.999   1.094  0.2077  0.5366  0.8602
 1179WAT     H1 5422   6.649   6.053   1.093 -1.4205  2.7973  2.0662
 1179WAT     H2 5423   6.521   6.040   1.046 -0.1663 -1.6884 -0.7057
 1179WAT    EPW 5424   6.582   6.013   1.087 -0.3174  0.5751  0.7947
 1180WAT      O 5425   4.961   0.190   4.940  0.0943 -0.3460  0.0528
 1180WAT     H1 5426   4.886   0.199   4.897 -0.6520 -1.4811  1.0229
 1180WAT     H2 5427   4.963   0.259   4.993 -0.4902 -0.5280  0.3188
 1180WAT    EPW 5428   4.951   0.201   4.942 -0.5457  0.1074  0.0551
 1181WAT      O 5429   0.654   2.708   3.444 -0.3529 -0.2437  0.5647
 1181WAT     H1 5430   0.676   2.625   3.428  1.1458  0.1167  0.6459
 1181WAT     H2 5431   0.715   2.736   3.498 -1.5194  0.5904  1.5146
 1181WAT    EPW 5432   0.666   2.700   3.449  0.2842 -0.0977 -0.1209
 1182WAT      O 5433   5.068   0.455   3.354  0.4442  0.0012 -0.1544
 1182WAT     H1 5434   4.995   0.417   3.323  0.9189 -1.3801  0.3601
 1182WAT     H2 5435   5.116   0.469   3.282  0.2777 -0.4025 -0.3468
 1182WAT    EPW 5436   5.064   0.452   3.339 -0.3356  0.2452 -0.2380
 1183WAT      O 5437   2.795   2.867   2.433  0.4054  0.0369 -0.6158
 1183WAT     H1 5438   2.731   2.917   2.466  0.2893  0.6252 -1.6842
 1183WAT     H2 5439   2.847   2.854   2.501 -0.9378 -0.6089  0.3440
 1183WAT    EPW 5440   2.793   2.873   2.448  0.2997  0.1592 -0.4034
 1184WAT      O 5441   0.344   6.380   1.097 -0.2182 -0.1465  0.3388
 1184WAT     H1 5442   0.324   6.297   1.113  1.1255 -0.4709  0.4943
 1184WAT     H2 5443   0.392   6.403   1.167  1.1595  0.1059 -0.6420
 1184WAT    EPW 5444   0.348   6.371   1.110 -0.1538  0.1542  0.1567
 1185WAT      O 5445   4.093   7.219   6.554  0.0206  0.6229 -0.8226
 1185WAT     H1 5446   4.111   7.296   6.518  1.7442  1.0299  0.7622
 1185WAT     H2 5447   4.158   7.207   6.611 -0.4152 -1.8110 -0.7153
 1185WAT    EPW 5448   4.105   7.228   6.557 -0.2231  0.1908  0.3196
 1186WAT      O 5449   0.774   1.306   4.826  0.0275  0.6031  0.4034
 1186WAT     H1 5450   0.772   1.219   4.824  1.3969  0.5602 -1.4086
 1186WAT     H2 5451   0.847   1.323   4.872 -1.2868  0.8852  2.5206
 1186WAT    EPW 5452   0.785   1.295   4.833  0.1812 -0.4405  0.3450
 1187WAT      O 5453   6.246   3.368   4.126 -0.2258  0.0028 -0.5485
 1187WAT     H1 5454   6.229   3.423   4.192  1.5307  0.5927 -0.5544
 1187WAT     H2 5455   6.228   3.416   4.055  0.3011  0.2279 -0.5334
 1187WAT    EPW 5456   6.241   3.383   4.125  0.3846 -0.5148  0.2160
 1188WAT      O 5457   4.345   5.296   3.158 -0.7865 -0.0785 -0.4562
 1188WAT     H1 5458   4.301   5.339   3.220 -0.6495  0.7141 -0.8853
 1188WAT     H2 5459   4.355   5.216   3.190 -1.7975 -0.0251  0.0060
 1188WAT    EPW 5460   4.340   5.291   3.172  1.0393  0.1345 -0.3327
 1189WAT      O 5461   0.835   4.327   3.637 -0.0255 -0.0879  0.3435
 1189WAT     H1 5462   0.915   4.312   3.670 -0.1454  1.3881  1.3864
 1189WAT     H2 5463   0.822   4.412   3.652 -1.4257 -0.0908 -0.6646
 1189WAT    EPW 5464   0.845   4.337   3.644 -0.1588  0.2753 -0.4024
 1190WAT      O 5465   6.713   0.990   4.105  0.3087 -0.6009 -0.2196
 1190WAT     H1 5466   6.669   1.035   4.165  1.2362 -0.0459  0.0733
 1190WAT     H2 5467   6.796   1.009   4.122  0.7303 -2.2643 -0.2363
 1190WAT    EPW 5468   6.719   1.000   4.116 -0.6891 -0.0100 -0.3746
 1191WAT      O 5469   3.460   6.914   1.457 -0.8055  0.2278  0.1367
 1191WAT     H1 5470   3.486   6.834   1.481 -0.2767 -0.2651 -1.8884
 1191WAT     H2 5471   3.529   6.964   1.473  0.2562 -0.4471 -1.9878
 1191WAT    EPW 5472   3.474   6.909   1.463 -0.1265  0.4330 -0.0028
 1192WAT      O 5473   3.977   4.537   1.715  0.0954 -0.4110  0.2257
 1192WAT     H1 5474   3.978   4.450   1.706 -0.3226 -0.3609 -0.2819
 1192WAT     H2 5475   4.005   4.566   1.638 -1.3750 -0.0578 -0.1992
 1192WAT    EPW 5476   3.981   4.528   1.703 -0.1566  0.1344  0.5958
 1193WAT      O 5477   7.759   4.158   0.524  0.0123  0.5748 -0.3878
 1193WAT     H1 5478   7.737   4.075   0.513 -2.4339  0.7545  2.0817
 1193WAT     H2 5479   7.776   4.164   0.609 -0.7231  2.7321 -0.3185
 1193WAT    EPW 5480   7.758   4.147   0.535 -0.3391  1.0663 -0.2212
 1194WAT      O 5481   6.169   6.858   4.821 -0.1006 -0.2299 -0.2709
 1194WAT     H1 5482   6.136   6.866   4.901 -1.4842 -0.1495 -0.8273
 1194WAT     H2 5483   6.174   6.940   4.792  0.1298 -0.2815 -0.3827
 1194WAT    EPW 5484   6.165   6.871   4.829 -0.5389  0.2070  0.1446
 1195WAT      O 5485   6.882   5.542   3.618 -0.4215  0.4396 -0.0976
 1195WAT     H1 5486   6.931   5.480   3.654  1.3185  2.1905  0.7905
 1195WAT     H2 5487   6.893   5.531   3.533 -1.2399 -1.2407 -0.0128
 1195WAT    EPW 5488   6.891   5.531   3.611 -0.0324  0.3416  0.1683
 1196WAT      O 5489   0.416   6.160   4.617  0.2594  0.0074 -0.1763
 1196WAT     H1 5490   0.414   6.190   4.535  1.6130  0.5089 -0.0610
 1196WAT     H2 5491   0.484   6.203   4.652 -0.2980 -0.2023  1.2097
 1196WAT    EPW 5492   0.426   6.171   4.610 -0.0308  0.4265  0.3263
 1197WAT      O 5493   6.481   3.979   8.004 -0.0456  0.2017  0.0455
 1197WAT     H1 5494   6.516   4.053   8.036  1.1870 -1.2850  2.3515
 1197WAT     H2 5495   6.548   3.924   8.002 -0.7532 -0.7098 -2.4369
 1197WAT    EPW 5496   6.496   3.982   8.008 -1.0221  0.3761  0.2099
 1198WAT      O 5497   1.636   0.805   5.208 -0.0509 -0.5481 -0.3684
 1198WAT     H1 5498   1.646   0.779   5.126 -2.1931 -2.4600 -0.1167
 1198WAT     H2 5499   1.659   0.735   5.255  0.6471  0.3454  0.6842
 1198WAT    EPW 5500   1.641   0.791   5.203  0.4258  0.0235  0.8275
 1199WAT      O 5501   4.967   2.409   7.338 -0.1498 -0.0474 -0.3634
 1199WAT     H1 5502   4.903   2.436   7.284 -1.4512 -1.7791  0.2027
 1199WAT     H2 5503   5.037   2.454   7.312 -1.8314  2.9818 -0.1761
 1199WAT    EPW 5504   4.968   2.420   7.326 -0.1165  0.5840  0.3056
 1200WAT      O 5505   0.819   2.821   3.095 -0.4404 -0.3609  0.6690
 1200WAT     H1 5506   0.752   2.766   3.109 -2.1204  0.8496 -1.7724
 1200WAT     H2 5507   0.858   2.789   3.024  0.9186 -0.4067  1.4032
 1200WAT    EPW 5508   0.815   2.808   3.087 -0.7815 -0.0474 -0.1226
 1201WAT      O 5509   0.143   3.334   1.319 -0.2857  0.3287 -0.5670
 1201WAT     H1 5510   0.074   3.314   1.270 -0.3904 -1.5387  0.2336
 1201WAT     H2 5511   0.112   3.395   1.374 -1.5633 -1.0124  0.2762
 1201WAT    EPW 5512   0.128   3.340   1.320  1.0836  0.2793 -0.0418
 1202WAT      O 5513   6.715   4.405   4.194  0.4575 -0.1341 -0.1350
 1202WAT     H1 5514   6.774   4.342   4.183 -0.3062 -0.7046 -1.1231
 1202WAT     H2 5515   6.659   4.392   4.129 -0.2028  1.0269  0.1789
 1202WAT    EPW 5516   6.715   4.394   4.183  0.2914 -0.0209  0.0250
 1203WAT      O 5517   0.310   3.010   4.301 -0.4459  0.1725 -0.3211
 1203WAT     H1 5518   0.322   3.095   4.285  1.2906  0.3445  1.4157
 1203WAT     H2 5519   0.257   2.983   4.238 -1.3480  2.6349 -0.6884
 1203WAT    EPW 5520   0.304   3.018   4.290  0.5538 -0.4242  0.1371
 1204WAT      O 5521   0.691   2.032   1.631  0.7804 -0.3263 -0.5345
 1204WAT     H1 5522   0.651   1.962   1.663  0.6725 -0.2830 -0.5700
 1204WAT     H2 5523   0.770   2.030   1.667  0.8240 -0.5392 -0.6407
 1204WAT    EPW 5524   0.697   2.022   1.641 -0.1052 -0.5020 -0.2030
 1205WAT      O 5525   6.898   0.759   3.057  0.5998  0.2486  0.2625
 1205WAT     H1 5526   6.875   0.833   3.018  0.6688  0.3213  0.3604
 1205WAT     H2 5527   6.822   0.719   3.073  0.5537  0.3963  0.4054
 1205WAT    EPW 5528   6.883   0.764   3.054 -0.0072  0.4181  0.2234
 1206WAT      O 5529   1.790   5.497   3.659  0.5236  0.3926  0.5320
 1206WAT     H1 5530   1.769   5.456   3.733  0.5402 -0.9883 -0.1850
 1206WAT     H2 5531   1.870   5.526   3.674  0.7456 -0.3640  0.8771
 1206WAT    EPW 5532   1.799   5.495   3.672 -0.2072 -0.1389 -0.5578
 1207WAT      O 5533   5.549   5.063   4.754 -0.0317 -0.3310 -0.7470
 1207WAT     H1 5534   5.621   5.015   4.741  0.0429 -0.3947 -0.0898
 1207WAT     H2 5535   5.508   5.058   4.677  0.0776 -1.2746 -0.7552
 1207WAT    EPW 5536   5.553   5.056   4.740 -0.3434 -0.6341 -0.3080
 1208WAT      O 5537   7.604   7.584   2.758  0.4392 -0.0776  0.7886
 1208WAT     H1 5538   7.636   7.664   2.770  0.1967  0.5443 -2.1048
 1208WAT     H2 5539   7.533   7.596   2.709  0.6304 -2.0958 -0.1013
 1208WAT    EPW 5540   7.598   7.597   2.753  0.2655 -0.3267 -0.1955
 1209WAT      O 5541   0.449   3.856   1.079 -0.0123 -0.3433 -0.3233
 1209WAT     H1 5542   0.376   3.855   1.127  0.1095 -0.4216 -0.1422
 1209WAT     H2 5543   0.490   3.928   1.106  0.0795 -0.4141 -0.2746
 1209WAT    EPW 5544   0.444   3.867   1.090  0.3620 -0.3906  0.7225
 1210WAT      O 5545   1.458   4.764   4.175  0.6045  0.0229 -0.6920
 1210WAT     H1 5546   1.427   4.842   4.151  2.1983  0.4744 -1.3986
 1210WAT     H2 5547   1.541   4.780   4.194  0.0223 -0.7287  3.2198
 1210WAT    EPW 5548   1.466   4.778   4.174 -0.0501 -0.5488 -0.0392
 1211WAT      O 5549   5.110   7.211   1.656  0.3497 -0.7049  0.2501
 1211WAT     H1 5550   5.172   7.215   1.595  2.4184  0.0284  2.2615
 1211WAT     H2 5551   5.111   7.127   1.681  0.2970 -0.7585  0.0749
 1211WAT    EPW 5552   5.119   7.199   1.650  0.5207  0.2849  0.0399
 1212WAT      O 5553   5.343   2.402   1.434  0.0659  0.3352  0.1945
 1212WAT     H1 5554   5.423   2.378   1.457  0.3246  1.7718  0.9406
 1212WAT     H2 5555   5.296   2.391   1.507  0.2790  2.2995  0.6950
 1212WAT    EPW 5556   5.348   2.397   1.448  0.5993  0.6412 -0.0051
 1213WAT      O 5557   6.908   7.246   3.550  0.3090 -0.5257 -0.0637
 1213WAT     H1 5558   6.953   7.185   3.507  0.7167 -0.7400  0.6440
 1213WAT     H2 5559   6.923   7.319   3.505  0.1580 -0.8718 -0.6789
 1213WAT    EPW 5560   6.917   7.248   3.537 -0.2565  0.2686 -0.7909
 1214WAT      O 5561   6.044   4.150   7.341  0.2617 -0.2119  0.0170
 1214WAT     H1 5562   6.050   4.206   7.408 -0.1853 -1.4928  1.1834
 1214WAT     H2 5563   6.124   4.115   7.337  0.9347  1.3438 -1.5454
 1214WAT    EPW 5564   6.057   4.153   7.350  0.1058  0.1319 -0.3712
 1215WAT      O 5565   0.721   7.695   1.251  0.0835  0.4679  0.5539
 1215WAT     H1 5566   0.666   7.645   1.204  1.4921  0.1462 -0.8432
 1215WAT     H2 5567   0.711   7.666   1.332 -0.0277 -1.2840 -0.0334
 1215WAT    EPW 5568   0.711   7.683   1.256 -0.7738 -0.3332 -0.9763
 1216WAT      O 5569   0.998   4.677   3.261  0.4461 -0.7129 -0.2035
 1216WAT     H1 5570   0.958   4.691   3.337  0.7685 -0.2872 -0.1081
 1216WAT     H2 5571   0.941   4.629   3.216  0.1097 -0.6736  0.1765
 1216WAT    EPW 5572   0.984   4.672   3.266 -0.2115  0.0204  0.5080
 1217WAT      O 5573   4.884   4.670   6.482  0.6463 -0.0993  0.4694
 1217WAT     H1 5574   4.828   4.675   6.549 -0.0191 -2.0080  0.1081
 1217WAT     H2 5575   4.834   4.649   6.414  1.7834 -2.1611  0.1920
 1217WAT    EPW 5576   4.868   4.668   6.482  0.0172  0.0258  0.1738
 1218WAT      O 5577   7.147   4.000   3.330  0.9889 -0.3954  0.6121
 1218WAT     H1 5578   7.127   4.084   3.342 -2.3947 -1.0116  0.2995
 1218WAT     H2 5579   7.146   3.967   3.411  0.5978 -0.4561  0.5818
 1218WAT    EPW 5580   7.144   4.008   3.344 -0.0964 -0.0573 -0.6218
 1219WAT      O 5581   3.767   5.803   2.025 -0.2093 -0.7201  0.3516
 1219WAT     H1 5582   3.727   5.858   1.970 -1.0129 -1.2167  0.4173
 1219WAT     H2 5583   3.850   5.829   2.023 -0.7995  1.5897  1.6332
 1219WAT    EPW 5584   3.773   5.815   2.016  0.2619 -0.5241  0.0464
 1220WAT      O 5585   5.745   4.923   7.565  0.1710 -0.1017  0.2148
 1220WAT     H1 5586   5.823   4.905   7.600  0.5954 -0.9355 -1.1028
 1220WAT     H2 5587   5.698   4.852   7.584  0.3199 -0.4347 -0.6294
 1220WAT    EPW 5588   5.750   4.910   7.573 -0.2634 -0.1183 -0.2264
 1221WAT      O 5589   6.684   0.475   0.907 -0.7562  0.2809 -0.0776
 1221WAT     H1 5590   6.637   0.519   0.966 -1.8090 -1.2537  0.3050
 1221WAT     H2 5591   6.634   0.406   0.889  0.5544 -0.4534 -1.0921
 1221WAT    EPW 5592   6.670   0.471   0.913  0.6065  0.2140  0.6471
 1222WAT      O 5593   3.684   5.568   1.931  0.2400  0.0976 -0.9480
 1222WAT     H1 5594   3.711   5.645   1.961  0.3303  0.7494 -2.6306
 1222WAT     H2 5595   3.602   5.563   1.960  0.5027  0.4149 -0.1079
 1222WAT    EPW 5596   3.676   5.579   1.940 -0.7962  0.7133  0.3421
 1223WAT      O 5597   6.450   2.296   0.231  0.1248 -0.2457 -0.1404
 1223WAT     H1 5598   6.392   2.327   0.173  1.1591  0.6887 -0.7107
 1223WAT     H2 5599   6.429   2.338   0.305  1.1778  1.5128 -0.7810
 1223WAT    EPW 5600   6.438   2.307   0.233  0.6067 -0.1472  0.3217
 1224WAT      O 5601   6.702   0.417   2.850 -0.0251  0.1925 -0.1546
 1224WAT     H1 5602   6.778   0.426   2.807  0.5301  0.5052  0.8758
 1224WAT     H2 5603   6.653   0.371   2.794  0.5906  0.7936 -1.2342
 1224WAT    EPW 5604   6.706   0.412   2.835 -0.7091  0.2303  0.8185
 1225WAT      O 5605   3.350   4.046   1.719  0.0554 -0.5622 -0.5022
 1225WAT     H1 5606   3.264   4.028   1.711  0.0777 -0.6779 -0.4915
 1225WAT     H2 5607   3.387   3.967   1.720  0.2576 -0.5024 -1.6439
 1225WAT    EPW 5608   3.343   4.031   1.718 -0.1561 -0.0785  0.6515
 1226WAT      O 5609   1.892   7.155   0.921  0.5384  0.5580  0.1067
 1226WAT     H1 5610   1.962   7.151   0.972  0.4204  2.8997  0.5652
 1226WAT     H2 5611   1.880   7.240   0.908 -1.4036  0.1844 -1.1167
 1226WAT    EPW 5612   1.900   7.167   0.926 -0.3050  0.7706 -0.1257
 1227WAT      O 5613   0.124   4.349   4.139  0.5471 -0.3217 -0.2793
 1227WAT     H1 5614   0.087   4.334   4.217 -1.0267  0.2963 -0.8596
 1227WAT     H2 5615   0.084   4.422   4.111  1.8830  0.1031 -1.1946
 1227WAT    EPW 5616   0.112   4.358   4.147 -0.4391  0.3332  0.2414
 1228WAT      O 5617   2.741   2.989   7.774 -0.1245 -0.5980  0.1892
 1228WAT     H1 5618   2.750   3.057   7.720  0.4788 -1.5952 -1.0276
 1228WAT     H2 5619   2.656   2.991   7.796 -0.2765  0.1066 -0.4236
 1228WAT    EPW 5620   2.730   2.999   7.769  0.4208  0.2565  0.6644
 1229WAT      O 5621   7.729   5.188   2.060 -0.3212  0.2608 -0.0850
 1229WAT     H1 5622   7.733   5.163   1.977 -0.1544  1.5850 -0.5031
 1229WAT     H2 5623   7.811   5.179   2.089 -0.4330 -0.4521  0.0246
 1229WAT    EPW 5624   7.742   5.183   2.052 -0.1231  0.2948 -0.2139
 1230WAT      O 5625   5.108   3.382   7.668  0.1915 -0.3473  0.0753
 1230WAT     H1 5626   5.149   3.430   7.728 -0.9932  0.3676  0.3436
 1230WAT     H2 5627   5.133   3.418   7.593  0.6969 -0.4476  0.1911
 1230WAT    EPW 5628   5.118   3.395   7.666 -0.0868 -0.2093  0.3878
 1231WAT      O 5629   1.243   2.223   2.001 -0.0645 -0.3159 -0.4346
 1231WAT     H1 5630   1.261   2.138   2.010  0.8013 -0.2463 -1.3679
 1231WAT     H2 5631   1.280   2.260   2.071  0.4288 -0.5915 -0.5459
 1231WAT    EPW 5632   1.251   2.216   2.013 -0.1695  0.5954 -0.0595
 1232WAT      O 5633   6.959   3.161   2.649  0.2574  0.0740  0.1619
 1232WAT     H1 5634   6.923   3.214   2.708  1.8716  0.6883  0.6214
 1232WAT     H2 5635   7.043   3.182   2.651  0.3892 -0.0047 -2.2506
 1232WAT    EPW 5636   6.966   3.172   2.658 -0.0484 -0.5058 -0.1763
 1233WAT      O 5637   0.446   5.293   3.478  0.0271 -0.3010 -0.4156
 1233WAT     H1 5638   0.361   5.272   3.479 -0.2200  0.5239 -1.6509
 1233WAT     H2 5639   0.480   5.236   3.422  0.8205 -2.2945  1.9317
 1233WAT    EPW 5640   0.439   5.282   3.470  0.3424 -0.3594 -0.3520
 1234WAT      O 5641   5.772   3.833   0.557  0.1313  0.5736 -0.3767
 1234WAT     H1 5642   5.707   3.878   0.521 -0.1898 -0.8490 -1.6611
 1234WAT     H2 5643   5.817   3.804   0.489  2.5696  2.0379  0.4475
 1234WAT    EPW 5644   5.769   3.836   0.542  0.4757 -0.2561  0.0766
 1235WAT      O 5645   0.605   2.658   1.045  0.0451 -0.2733  0.2900
 1235WAT     H1 5646   0.530   2.687   1.080  0.2356  1.1485 -0.4001
 1235WAT     H2 5647   0.665   2.680   1.104  0.3772  2.2020 -0.8245
 1235WAT    EPW 5648   0.603   2.665   1.059  0.4172  0.3153 -0.1139
 1236WAT      O 5649   4.538   4.231   5.463  0.4272 -0.0786 -0.2918
 1236WAT     H1 5650   4.596   4.281   5.504  0.0657 -0.0368  0.1750
 1236WAT     H2 5651   4.501   4.286   5.406 -0.5182  0.4060  0.7556
 1236WAT    EPW 5652   4.541   4.246   5.460  0.2245 -0.0655  0.5858
 1237WAT      O 5653   2.333   5.902   0.546  0.4844 -0.0447  0.3473
 1237WAT     H1 5654   2.260   5.935   0.582  1.2850  1.0040  1.0913
 1237WAT     H2 5655   2.390   5.905   0.612  0.8243 -2.2715  0.2269
 1237WAT    EPW 5656   2.330   5.908   0.561 -0.8000  0.3612  0.2174
 1238WAT      O 5657   3.151   5.230   6.691 -0.4109  0.2710 -0.3107
 1238WAT     H1 5658   3.201   5.169   6.727 -2.3757 -1.2579  0.0512
 1238WAT     H2 5659   3.134   5.198   6.611 -2.8225 -0.6333  0.4572
 1238WAT    EPW 5660   3.156   5.216   6.685 -0.3617  0.8272 -1.0568
 1239WAT      O 5661   7.668   2.732   1.031 -0.2979  0.8638 -0.0958
 1239WAT     H1 5662   7.710   2.683   1.090 -1.1088 -0.0099 -0.2211
 1239WAT     H2 5663   7.674   2.685   0.958 -0.4830  1.2872 -0.3832
 1239WAT    EPW 5664   7.675   2.718   1.029  0.4257 -0.4137 -0.5320
 1240WAT      O 5665   4.292   5.882   4.779  0.1180 -0.2599 -0.5158
 1240WAT     H1 5666   4.349   5.888   4.845 -0.1968  0.7386 -0.3288
 1240WAT     H2 5667   4.264   5.799   4.785  0.2106 -0.2350  0.5032
 1240WAT    EPW 5668   4.296   5.871   4.790 -0.2776  0.4489 -0.5693
 1241WAT      O 5669   4.578   1.212   3.141 -0.5258  0.4822 -0.2515
 1241WAT     H1 5670   4.575   1.299   3.132 -0.0878  0.7478  1.8002
 1241WAT     H2 5671   4.516   1.184   3.086  0.9615  1.8833 -2.8674
 1241WAT    EPW 5672   4.568   1.221   3.131 -0.1883 -0.2684 -0.4597
 1242WAT      O 5673   5.580   6.664   7.399  0.0566  0.3096  0.4843
 1242WAT     H1 5674   5.540   6.719   7.345 -0.9996 -0.7462  0.1333
 1242WAT     H2 5675   5.652   6.707   7.424 -1.1246  2.1441  0.8824
 1242WAT    EPW 5676   5.585   6.678   7.395  0.0304  0.5139  0.2979
 1243WAT      O 5677   0.636   0.067   4.841 -0.7083 -0.1890 -0.3640
 1243WAT     H1 5678   0.611  -0.012   4.812  0.4406 -0.1548 -1.5858
 1243WAT     H2 5679   0.614   0.066   4.925 -0.4269 -1.9591 -0.2625
 1243WAT    EPW 5680   0.629   0.055   4.849 -0.0303 -0.0485  0.5993
 1244WAT      O 5681   2.031   2.254   1.854  0.7735 -0.2570 -0.4391
 1244WAT     H1 5682   2.106   2.221   1.884  0.5400  1.0251  1.7879
 1244WAT     H2 5683   1.994   2.187   1.812  2.4044 -1.3974 -0.1179
 1244WAT    EPW 5684   2.036   2.239   1.853  0.1777 -0.3660 -0.5304
 1245WAT      O 5685   4.081   3.966   7.322  0.3522  0.0053 -0.6473
 1245WAT     H1 5686   4.031   3.927   7.383 -0.6389  1.3264 -0.5759
 1245WAT     H2 5687   4.038   3.949   7.248  0.4277  0.1695 -0.7265
 1245WAT    EPW 5688   4.067   3.958   7.320  0.7007  0.1182  0.3548
 1246WAT      O 5689   0.711   5.155   2.640  0.5433 -0.1102 -0.5431
 1246WAT     H1 5690   0.647   5.154   2.581 -0.4600  1.7319  0.3946
 1246WAT     H2 5691   0.742   5.074   2.640 -0.8363 -0.6768 -2.0626
 1246WAT    EPW 5692   0.707   5.143   2.631  0.0202 -0.9343  0.7984
 1247WAT      O 5693   6.261   5.401   1.627 -0.1264  0.3684 -0.5195
 1247WAT     H1 5694   6.298   5.458   1.681 -1.6322  0.6535  0.2510
 1247WAT     H2 5695   6.201   5.449   1.584  0.0128 -0.1856 -1.3620
 1247WAT    EPW 5696   6.257   5.417   1.629  0.2355  0.6647 -0.0367
 1248WAT      O 5697   4.940   5.819   3.027 -0.3458  0.3872 -0.0493
 1248WAT     H1 5698   4.927   5.852   2.947 -0.2278  1.4086  0.3336
 1248WAT     H2 5699   5.027   5.824   3.038 -0.4822  1.7553  0.7254
 1248WAT    EPW 5700   4.951   5.824   3.017 -0.5143 -0.0547  0.3784
 1249WAT      O 5701   2.254   3.068   0.907 -0.4193 -0.2834 -0.3573
 1249WAT     H1 5702   2.260   3.146   0.868  0.6786  0.5110  1.3051
 1249WAT     H2 5703   2.192   3.080   0.967  1.2718  0.0361  1.4022
 1249WAT    EPW 5704   2.246   3.081   0.910  0.2361 -0.0692  0.9688
 1250WAT      O 5705   7.347   2.416   3.044  0.2907  0.6767 -0.1422
 1250WAT     H1 5706   7.363   2.463   3.116 -1.0268  1.3536 -0.2500
 1250WAT     H2 5707   7.325   2.476   2.984 -0.4513  0.0127 -0.5650
 1250WAT    EPW 5708   7.346   2.432   3.046  0.4686  0.2827 -0.4061
 1251WAT      O 5709   3.270   3.407   6.009 -0.0422 -0.0525 -1.0759
 1251WAT     H1 5710   3.240   3.484   5.982  2.8897  1.3754 -0.7478
 1251WAT     H2 5711   3.314   3.377   5.940  1.7807  0.3365 -0.1489
 1251WAT    EPW 5712   3.272   3.414   5.995 -0.3413 -0.8700  0.3119
 1252WAT      O 5713   1.500   2.651   2.417  0.4544 -0.0747  0.1616
 1252WAT     H1 5714   1.414   2.642   2.408  0.3908 -0.5594  1.1127
 1252WAT     H2 5715   1.532   2.608   2.348 -0.0619 -0.1622 -0.0284
 1252WAT    EPW 5716   1.492   2.643   2.406 -0.7301  0.2000  0.2590
 1253WAT      O 5717   2.856   4.607   1.087  0.2351 -0.7042  0.0823
 1253WAT     H1 5718   2.850   4.661   1.019 -0.0265 -1.2188 -0.3131
 1253WAT     H2 5719   2.933   4.568   1.076  0.1924 -0.7887  0.0885
 1253WAT    EPW 5720   2.866   4.609   1.076 -0.3620 -0.2140 -0.9994
 1254WAT      O 5721   6.177   8.017   1.345  0.0512  0.1853 -0.0040
 1254WAT     H1 5722   6.248   7.965   1.344  1.2601  1.7679 -0.2302
 1254WAT     H2 5723   6.126   7.981   1.406  1.3311 -0.6391  0.6269
 1254WAT    EPW 5724   6.180   8.004   1.354 -0.5615  0.4524  0.1800
 1255WAT      O 5725   4.564   3.420   1.133  0.1294  0.4206  0.2565
 1255WAT     H1 5726   4.649   3.437   1.143  0.0174  0.5810  1.0327
 1255WAT     H2 5727   4.538   3.401   1.214 -0.3543 -0.6579 -0.1307
 1255WAT    EPW 5728   4.573   3.420   1.146  0.1358 -0.1088 -0.2133
 1256WAT      O 5729   1.193   1.615   0.377  0.1884  0.0929  0.5173
 1256WAT     H1 5730   1.144   1.597   0.447  0.8012  1.9148  1.4865
 1256WAT     H2 5731   1.164   1.693   0.351 -0.2346 -0.6759 -1.5029
 1256WAT    EPW 5732   1.181   1.624   0.384 -0.1449 -0.1273  0.0438
 1257WAT      O 5733   0.604   1.343   0.734  0.0032  0.1128  0.2881
 1257WAT     H1 5734   0.530   1.298   0.726 -0.4208  0.9744 -1.1450
 1257WAT     H2 5735   0.663   1.293   0.693  0.0181 -0.1398  0.6138
 1257WAT    EPW 5736   0.602   1.329   0.727  0.0866  0.0133  0.0387
 1258WAT      O 5737   4.362   3.956   7.976  0.2216 -0.3194  0.2660
 1258WAT     H1 5738   4.368   3.885   8.027  2.1532 -0.1772  0.3382
 1258WAT     H2 5739   4.312   3.930   7.910 -2.1908 -0.5777  2.0689
 1258WAT    EPW 5740   4.356   3.942   7.974  0.8113 -0.3552  0.2288
 1259WAT      O 5741   4.312   3.358   7.815 -0.4885  0.0674  0.5991
 1259WAT     H1 5742   4.393   3.326   7.825 -0.3389 -0.2951 -1.3290
 1259WAT     H2 5743   4.261   3.296   7.849  0.0283  0.6438  2.5525
 1259WAT    EPW 5744   4.317   3.344   7.821 -0.0100  0.0740  0.6000
 1260WAT      O 5745   6.986   7.738   8.042 -0.0119  0.3685 -0.3177
 1260WAT     H1 5746   6.952   7.818   8.031 -0.1682  0.6782  1.9425
 1260WAT     H2 5747   6.919   7.692   8.074  0.4298 -0.2998 -0.3328
 1260WAT    EPW 5748   6.971   7.743   8.045  0.6325 -0.1197 -0.4282
 1261WAT      O 5749   1.424   3.593   3.602  0.1764  0.0544  0.2221
 1261WAT     H1 5750   1.381   3.593   3.678 -0.4093 -0.9457 -0.0902
 1261WAT     H2 5751   1.380   3.536   3.554  1.2339 -0.1996 -0.4794
 1261WAT    EPW 5752   1.411   3.585   3.606 -0.4719  0.2324 -0.3998
 1262WAT      O 5753   4.969   6.957   5.228 -0.6292 -0.1006  0.7208
 1262WAT     H1 5754   4.979   6.998   5.304 -0.3032  0.7048  0.2496
 1262WAT     H2 5755   4.990   7.017   5.169 -1.9942 -0.3587 -0.0620
 1262WAT    EPW 5756   4.974   6.972   5.231 -0.6750 -0.4780 -0.4824
 1263WAT      O 5757   7.703   1.356   1.640 -0.5639  0.5233 -0.1913
 1263WAT     H1 5758   7.779   1.349   1.599  1.5699  3.2425  2.7907
 1263WAT     H2 5759   7.701   1.284   1.690  2.1556  2.0120  2.4357
 1263WAT    EPW 5760   7.714   1.344   1.642 -0.1229 -0.8100 -0.1912
 1264WAT      O 5761   1.581   2.485   4.440  0.4847 -0.2142  0.1712
 1264WAT     H1 5762   1.520   2.463   4.382  0.5243 -1.0511  0.4288
 1264WAT     H2 5763   1.627   2.411   4.449 -0.7074 -0.7667  2.7107
 1264WAT    EPW 5764   1.579   2.470   4.433 -0.2798 -0.3957 -0.1634
 1265WAT      O 5765   6.277   0.221   8.013 -0.5932 -0.5942  0.6866
 1265WAT     H1 5766   6.226   0.161   8.051  0.9603 -1.0650  2.1422
 1265WAT     H2 5767   6.297   0.184   7.936 -1.4609 -0.9113  0.5933
 1265WAT    EPW 5768   6.272   0.207   8.007  0.4270 -0.3015  0.5409
 1266WAT      O 5769   7.910   1.026   2.958  0.2660  0.5208 -0.5291
 1266WAT     H1 5770   7.944   1.098   2.995 -4.3203  2.3461  0.7501
 1266WAT     H2 5771   7.902   1.048   2.874  0.8578  0.6240 -0.5618
 1266WAT    EPW 5772   7.914   1.040   2.951  0.3703 -0.5034 -0.3881
 1267WAT      O 5773   3.637   3.234   1.536  0.8833 -0.1239 -0.3014
 1267WAT     H1 5774   3.678   3.270   1.605  1.7039  0.4704 -1.0705
 1267WAT     H2 5775   3.571   3.289   1.522  0.2901 -0.6320  0.4350
 1267WAT    EPW 5776   3.634   3.248   1.544  0.2570  0.2608  0.1035
 1268WAT      O 5777   4.019   2.966   0.695  0.1116  0.0247  0.3390
 1268WAT     H1 5778   3.941   2.952   0.658 -0.4331  1.4157  0.8824
 1268WAT     H2 5779   4.038   2.890   0.733 -1.3727 -0.1120  0.8817
 1268WAT    EPW 5780   4.010   2.953   0.695 -0.2663 -0.0407 -0.2595
 1269WAT      O 5781   7.674   7.844   2.502  0.3067  0.4342  0.0607
 1269WAT     H1 5782   7.748   7.852   2.547 -0.1614 -0.0197  0.9186
 1269WAT     H2 5783   7.700   7.809   2.426  1.3739  2.8992 -0.8361
 1269WAT    EPW 5784   7.689   7.840   2.497 -0.8370 -0.1472 -0.3100
 1270WAT      O 5785   1.140   3.829   1.452  0.1518  0.2089  0.0466
 1270WAT     H1 5786   1.136   3.892   1.512 -0.3155 -0.8111  1.1118
 1270WAT     H2 5787   1.059   3.797   1.450  0.0004  0.5854 -1.5637
 1270WAT    EPW 5788   1.128   3.834   1.460 -1.0706 -0.0434 -0.2989
 1271WAT      O 5789   1.941   1.877   3.609 -0.2775 -0.1226  0.5649
 1271WAT     H1 5790   1.920   1.821   3.546 -0.9311  0.3334  0.3608
 1271WAT     H2 5791   1.943   1.828   3.681 -2.8885 -0.1125  0.7396
 1271WAT    EPW 5792   1.938   1.862   3.611 -0.5798 -0.1904  0.1672
 1272WAT      O 5793   6.858   1.719   0.670  0.3077 -0.0891 -0.4640
 1272WAT     H1 5794   6.870   1.791   0.622 -0.6321  0.8311  0.6321
 1272WAT     H2 5795   6.822   1.748   0.743  0.0383 -1.6740  0.0846
 1272WAT    EPW 5796   6.855   1.734   0.674  0.1353  0.2017 -0.2986
 1273WAT      O 5797   6.542   2.619   4.749  0.4077 -0.2237 -0.4356
 1273WAT     H1 5798   6.577   2.683   4.702 -0.6406 -0.0714 -1.0181
 1273WAT     H2 5799   6.547   2.549   4.697  0.0429 -0.2478 -0.4419
 1273WAT    EPW 5800   6.548   2.618   4.735  0.6834  0.1458  0.1364
 1274WAT      O 5801   7.254   4.252   3.888  0.0716 -0.1251  0.0988
 1274WAT     H1 5802   7.174   4.258   3.922 -0.3351 -0.5714 -0.7465
 1274WAT     H2 5803   7.284   4.176   3.919  0.5507  0.4766  1.1692
 1274WAT    EPW 5804   7.247   4.242   3.898  0.3957 -0.7478 -0.1141
 1275WAT      O 5805   1.556   6.495   8.045 -0.0132 -0.1425 -0.1661
 1275WAT     H1 5806   1.569   6.563   7.992 -1.7845 -0.6638 -1.3793
 1275WAT     H2 5807   1.619   6.438   8.023  0.5180  0.4746 -0.2484
 1275WAT    EPW 5808   1.567   6.496   8.034  0.3782  0.2133  0.7567
 1276WAT      O 5809   7.041   7.457   2.117  0.2085  0.4010  0.1942
 1276WAT     H1 5810   7.080   7.460   2.195 -0.2501 -1.4566  0.5517
 1276WAT     H2 5811   6.985   7.391   2.125  0.2888  0.0287 -1.7869
 1276WAT    EPW 5812   7.038   7.448   2.130  0.9787 -0.3102  0.1615
 1277WAT      O 5813   1.864   1.266   0.248 -0.1227  0.0310 -0.2425
 1277WAT     H1 5814   1.882   1.316   0.179 -0.0309  0.9429  0.4193
 1277WAT     H2 5815   1.884   1.317   0.316  1.7321 -1.5200  0.4759
 1277WAT    EPW 5816   1.870   1.281   0.248  0.8237 -0.0924 -0.0650
 1278WAT      O 5817   5.801   5.634   0.361 -0.9806  0.0528 -0.1818
 1278WAT     H1 5818   5.784   5.611   0.444  0.7403  0.4798  0.3386
 1278WAT     H2 5819   5.853   5.704   0.370  1.8988 -1.7313 -1.4942
 1278WAT    EPW 5820   5.807   5.641   0.375 -0.1468  0.2285  0.1452
 1279WAT      O 5821   0.964   3.737   0.103  0.5464  0.5302  0.1275
 1279WAT     H1 5822   1.022   3.757   0.165  0.0535  1.0390  0.4350
 1279WAT     H2 5823   1.013   3.706   0.038  1.3369  2.5161 -0.2720
 1279WAT    EPW 5824   0.980   3.735   0.103  0.3334 -0.3089  0.4525
 1280WAT      O 5825   2.010   3.675   5.414  0.6903 -0.4173 -0.0696
 1280WAT     H1 5826   2.067   3.644   5.472  0.7842 -0.2019 -0.0437
 1280WAT     H2 5827   1.937   3.686   5.461  0.9929  0.5065  0.2022
 1280WAT    EPW 5828   2.007   3.672   5.430 -0.1697  0.4654 -0.4252
 1281WAT      O 5829   6.117   0.543   3.692 -0.2813 -0.1468 -0.0868
 1281WAT     H1 5830   6.052   0.577   3.739  0.2074  1.3811 -0.4750
 1281WAT     H2 5831   6.096   0.458   3.686 -2.4411  0.3750 -0.5585
 1281WAT    EPW 5832   6.104   0.535   3.698  0.9293 -0.4260 -0.0515
 1282WAT      O 5833   0.786   2.575   4.982 -0.2254 -0.6998  0.6019
 1282WAT     H1 5834   0.837   2.515   5.019  0.6469 -0.3399  0.0069
 1282WAT     H2 5835   0.839   2.617   4.927  0.4728  3.4814  3.9411
 1282WAT    EPW 5836   0.801   2.573   4.979  0.2793 -0.2707 -0.2605
 1283WAT      O 5837   1.216   0.712   1.982  0.8085  0.1238  0.4897
 1283WAT     H1 5838   1.185   0.787   1.950  0.2766 -0.2995  0.0011
 1283WAT     H2 5839   1.215   0.726   2.069 -1.3392 -0.0688  0.5605
 1283WAT    EPW 5840   1.211   0.725   1.990  0.3229 -0.1528 -0.1456
 1284WAT      O 5841   1.841   4.793   0.058 -0.6163  0.3201 -0.2479
 1284WAT     H1 5842   1.913   4.790   0.107 -0.2369 -2.0114 -0.8086
 1284WAT     H2 5843   1.814   4.875   0.064  0.9898  0.7580  1.5758
 1284WAT    EPW 5844   1.847   4.804   0.066  0.3670 -0.6099  0.3435
 1285WAT      O 5845  -0.000   2.318   3.328  0.2163  0.5382 -0.6023
 1285WAT     H1 5846  -0.050   2.352   3.391  0.1538 -1.4184  0.5077
 1285WAT     H2 5847   0.079   2.351   3.344  1.0431 -2.4230  2.8190
 1285WAT    EPW 5848   0.004   2.328   3.340 -0.3612  0.1671 -0.0846
 1286WAT      O 5849   7.072   0.700   1.837  0.7392 -0.5799 -0.0694
 1286WAT     H1 5850   7.064   0.618   1.867 -0.5759  0.0222  1.3778
 1286WAT     H2 5851   7.156   0.718   1.849  0.8424 -1.3865  0.5146
 1286WAT    EPW 5852   7.083   0.690   1.843 -0.3736 -0.3965  0.6997
 1287WAT      O 5853   5.503   1.100   7.874  0.2584 -0.2835  0.5343
 1287WAT     H1 5854   5.422   1.118   7.899  0.2352  1.3662 -0.5495
 1287WAT     H2 5855   5.552   1.127   7.941 -0.0732 -1.1297  1.1194
 1287WAT    EPW 5856   5.498   1.107   7.887 -0.1496 -0.1721  0.1457
 1288WAT      O 5857   7.316   1.864   2.196  0.4191 -0.3346  0.3260
 1288WAT     H1 5858   7.257   1.846   2.134  0.2368 -1.2572  0.7514
 1288WAT     H2 5859   7.324   1.950   2.193 -0.9808 -0.1960  0.2776
 1288WAT    EPW 5860   7.309   1.874   2.186  0.1978 -0.2919  0.2845
 1289WAT      O 5861   5.296   5.057   0.542  0.1084  0.1441  0.5667
 1289WAT     H1 5862   5.210   5.066   0.553 -0.0887  0.8682 -1.2726
 1289WAT     H2 5863   5.305   5.041   0.457  1.5319 -3.9105  1.2608
 1289WAT    EPW 5864   5.285   5.056   0.531  0.1527 -0.2998 -0.0217
 1290WAT      O 5865   0.011   6.344   0.450 -0.3739  0.8741  0.6127
 1290WAT     H1 5866   0.085   6.358   0.495  0.1673  0.5461 -0.1579
 1290WAT     H2 5867  -0.006   6.422   0.415  0.7442  0.5139 -0.8557
 1290WAT    EPW 5868   0.019   6.358   0.451 -0.3075  0.4305  0.2360
 1291WAT      O 5869   5.026   2.135   3.272 -0.2740 -0.0179  0.0179
 1291WAT     H1 5870   5.106   2.138   3.237  0.0617 -1.9962  0.4964
 1291WAT     H2 5871   5.002   2.218   3.276  0.3485  0.4383 -3.3062
 1291WAT    EPW 5872   5.035   2.147   3.268  0.1623 -0.4989 -0.1278
 1292WAT      O 5873   6.718   3.123   8.008  0.2862 -0.2279  0.1669
 1292WAT     H1 5874   6.647   3.163   8.039  0.5039  0.0546  0.3052
 1292WAT     H2 5875   6.691   3.093   7.930 -0.1082 -0.4969  0.3986
 1292WAT    EPW 5876   6.703   3.125   8.001 -0.0156 -0.1403  0.0805
 1293WAT      O 5877   5.326   2.169   1.220  0.1795 -0.4403 -0.0854
 1293WAT     H1 5878   5.328   2.225   1.287  1.0884 -0.1552 -0.3359
 1293WAT     H2 5879   5.407   2.173   1.188  0.0485 -1.3627 -0.5563
 1293WAT    EPW 5880   5.338   2.178   1.225  0.3242  0.1554 -0.0876
 1294WAT      O 5881   2.478   1.595   7.792 -0.1534 -0.3799  0.3495
 1294WAT     H1 5882   2.562   1.616   7.776  0.4218 -2.1592  0.7594
 1294WAT     H2 5883   2.448   1.572   7.714  0.1073 -0.8391  0.3760
 1294WAT    EPW 5884   2.486   1.595   7.778  0.1725 -0.2024  0.4023
 1295WAT      O 5885   6.648   7.568   1.973 -0.0196  0.1177 -0.0865
 1295WAT     H1 5886   6.725   7.596   1.944 -0.6866  3.1829  0.6735
 1295WAT     H2 5887   6.667   7.530   2.049  0.9696 -1.7914 -1.2129
 1295WAT    EPW 5888   6.662   7.567   1.980 -0.2020  0.0208  0.3207
 1296WAT      O 5889   3.038   1.270   1.736  0.1533  0.0624 -0.2226
 1296WAT     H1 5890   2.956   1.274   1.706  0.2514 -2.9744 -1.2523
 1296WAT     H2 5891   3.081   1.327   1.687 -1.0815  0.6847 -0.6200
 1296WAT    EPW 5892   3.033   1.279   1.725 -0.2958 -0.0840  0.8637
 1297WAT      O 5893   8.069   1.782   1.308  0.2204 -0.0628  0.2856
 1297WAT     H1 5894   8.013   1.734   1.355  1.4871 -0.9719  0.9233
 1297WAT     H2 5895   8.027   1.796   1.233 -1.0220 -0.3514  0.9134
 1297WAT    EPW 5896   8.055   1.777   1.304  0.3235 -0.5683  0.6249
 1298WAT      O 5897   0.879   2.850   2.242  0.1518  0.3403  0.1090
 1298WAT     H1 5898   0.814   2.889   2.198 -1.1145 -0.8672  0.8352
 1298WAT     H2 5899   0.949   2.861   2.190 -0.7773  1.0587 -1.0291
 1298WAT    EPW 5900   0.880   2.857   2.228 -0.4006 -0.7887 -0.3414
 1299WAT      O 5901   0.101   3.054   5.178  0.2274  0.7259  0.4123
 1299WAT     H1 5902   0.086   3.137   5.202 -0.6958  0.6318  0.1813
 1299WAT     H2 5903   0.030   3.032   5.134  0.5223 -0.1614  0.3611
 1299WAT    EPW 5904   0.088   3.063   5.175  0.2859 -0.1797 -0.0457
 1300WAT      O 5905   1.803   2.235   7.188  0.3034  0.3440  0.0044
 1300WAT     H1 5906   1.745   2.281   7.140  0.4500 -1.1984 -1.7459
 1300WAT     H2 5907   1.861   2.208   7.129  0.2890 -1.9647  0.9538
 1300WAT    EPW 5908   1.803   2.238   7.172  0.4105 -0.0124  0.8406
 1301WAT      O 5909   0.486   1.854   2.450  0.3886 -0.3063  0.1728
 1301WAT     H1 5910   0.432   1.806   2.498 -0.4697 -0.3271 -0.7645
 1301WAT     H2 5911   0.530   1.901   2.508  0.2470 -1.2033  1.0291
 1301WAT    EPW 5912   0.485   1.854   2.465  0.2739 -0.1991 -0.0429
 1302WAT      O 5913   5.172   2.359   0.381  0.5280 -0.5550  0.5696
 1302WAT     H1 5914   5.178   2.388   0.299  0.6525 -0.0019  0.7637
 1302WAT     H2 5915   5.101   2.309   0.381  1.4657 -1.9349 -0.2651
 1302WAT    EPW 5916   5.163   2.356   0.369  0.0151 -0.2909 -0.2160
 1303WAT      O 5917   6.028   4.730   1.675 -0.3551 -0.0124  0.0075
 1303WAT     H1 5918   6.032   4.711   1.590 -0.1281  0.1426 -0.0180
 1303WAT     H2 5919   5.946   4.709   1.697  0.0525 -1.6223  0.1344
 1303WAT    EPW 5920   6.017   4.724   1.665  0.1178 -0.0214  0.0911
 1304WAT      O 5921   5.088   3.795   1.676  0.4693 -0.5472  0.2372
 1304WAT     H1 5922   5.164   3.794   1.634 -0.0791 -0.9015 -0.7631
 1304WAT     H2 5923   5.049   3.721   1.652 -1.2847  0.7912 -1.3695
 1304WAT    EPW 5924   5.093   3.784   1.667 -0.2677 -1.2657  0.3649
 1305WAT      O 5925   4.386   2.342   0.701  0.0432 -0.2217  0.1658
 1305WAT     H1 5926   4.349   2.269   0.671 -0.0139 -0.5650  1.0195
 1305WAT     H2 5927   4.387   2.395   0.632  0.1969 -1.0725 -0.5016
 1305WAT    EPW 5928   4.380   2.339   0.687 -0.2017  0.0912 -0.0722
 1306WAT      O 5929   6.255   3.195   7.460 -0.1097  0.3430  0.2420
 1306WAT     H1 5930   6.270   3.256   7.399  1.7510 -2.0930 -1.9828
 1306WAT     H2 5931   6.199   3.140   7.421 -1.3267  0.2743  1.9675
 1306WAT    EPW 5932   6.249   3.196   7.445  0.4383  0.1582 -0.2159
 1307WAT      O 5933   1.553   2.479   1.048 -0.5028 -0.1591 -0.0529
 1307WAT     H1 5934   1.533   2.458   0.966  0.9384 -0.6062 -0.3223
 1307WAT     H2 5935   1.577   2.563   1.042  0.4513 -0.4423 -0.2571
 1307WAT    EPW 5936   1.554   2.488   1.035 -0.0066  0.4408  0.4655
 1308WAT      O 5937   5.436   5.549   1.092  0.2607 -0.1410 -0.0728
 1308WAT     H1 5938   5.508   5.501   1.092  0.4212  0.0943  0.2550
 1308WAT     H2 5939   5.414   5.554   1.177  0.0895  0.1273 -0.1304
 1308WAT    EPW 5940   5.443   5.543   1.105 -0.2215  0.2331  0.1168
 1309WAT      O 5941   5.736   0.703   1.598  0.2145 -0.3998  0.2130
 1309WAT     H1 5942   5.795   0.749   1.553 -0.1597  1.0953  1.1888
 1309WAT     H2 5943   5.659   0.737   1.572 -0.0750 -0.5219  0.8903
 1309WAT    EPW 5944   5.733   0.715   1.588  0.1069  0.2414  0.5086
 1310WAT      O 5945   2.620   4.995   1.069 -0.4734 -0.0440  0.0279
 1310WAT     H1 5946   2.540   4.984   1.034 -0.7807 -1.0415  0.9860
 1310WAT     H2 5947   2.664   4.926   1.041 -1.4218 -2.2402  3.3924
 1310WAT    EPW 5948   2.614   4.984   1.060 -0.0625 -0.5921  0.1990
 1311WAT      O 5949   7.917   7.728   1.188  0.4765  0.2126 -0.8520
 1311WAT     H1 5950   7.966   7.714   1.259 -1.0744  0.8139  0.3695
 1311WAT     H2 5951   7.919   7.815   1.179 -1.0994  0.3351 -0.2177
 1311WAT    EPW 5952   7.925   7.739   1.197 -0.3064  0.3803 -0.3723
 1312WAT      O 5953   6.476   3.187   0.577 -0.0804 -0.1520  0.4737
 1312WAT     H1 5954   6.473   3.250   0.638  4.6786  1.1890 -0.2952
 1312WAT     H2 5955   6.443   3.117   0.619 -0.6689  1.5906  3.1915
 1312WAT    EPW 5956   6.470   3.186   0.592 -0.3566 -0.1296 -0.3860
 1313WAT      O 5957   4.906   4.086   2.700 -0.9374 -0.3401 -0.1785
 1313WAT     H1 5958   4.901   4.031   2.767  1.1847 -0.1969  0.1772
 1313WAT     H2 5959   4.964   4.146   2.727  1.1573 -1.0842 -2.6079
 1313WAT    EPW 5960   4.914   4.087   2.714 -0.4234  0.1050  0.0145
 1314WAT      O 5961   6.028   0.287   0.673  0.3827 -1.0597  0.0289
 1314WAT     H1 5962   6.047   0.337   0.742 -1.4135  1.6668 -1.2721
 1314WAT     H2 5963   5.987   0.218   0.708 -1.4476  0.7373  1.7210
 1314WAT    EPW 5964   6.025   0.284   0.689 -0.5409  0.3179  0.1154
 1315WAT      O 5965   0.358   1.673   2.647 -0.4529 -0.0557  0.2273
 1315WAT     H1 5966   0.345   1.586   2.642 -1.2503  0.0865 -0.3975
 1315WAT     H2 5967   0.277   1.705   2.648 -0.1557  0.7014  0.2765
 1315WAT    EPW 5968   0.344   1.665   2.646 -0.3686 -0.0559  0.2467
 1316WAT      O 5969   1.264   7.560   0.202  0.0379  0.2660  0.1141
 1316WAT     H1 5970   1.214   7.610   0.151  0.4288 -0.0331 -0.5776
 1316WAT     H2 5971   1.345   7.587   0.185  0.0841  1.5153  2.0631
 1316WAT    EPW 5972   1.268   7.571   0.192 -0.8640 -0.2615  0.1287
 1317WAT      O 5973   7.072   4.401   1.086 -0.2839  0.1063 -0.3519
 1317WAT     H1 5974   7.148   4.417   1.126 -0.1507  0.5989 -0.7958
 1317WAT     H2 5975   7.065   4.314   1.089  0.1883  0.0761 -0.1065
 1317WAT    EPW 5976   7.082   4.391   1.092 -0.6167 -0.0151  0.2891
 1318WAT      O 5977   2.084   0.633   4.513 -0.2745 -0.5516  0.2713
 1318WAT     H1 5978   2.059   0.568   4.462  0.7630  0.1179 -1.1564
 1318WAT     H2 5979   2.058   0.705   4.471 -1.8597  0.0188  2.0538
 1318WAT    EPW 5980   2.077   0.634   4.499 -0.1046 -0.1969  0.1064
 1319WAT      O 5981   7.492   2.438   0.608 -0.0161  0.2498 -0.1403
 1319WAT     H1 5982   7.572   2.452   0.639  1.5466 -1.8647 -2.8222
 1319WAT     H2 5983   7.469   2.361   0.644 -0.3391  0.2503 -0.3375
 1319WAT    EPW 5984   7.500   2.428   0.618  0.4746  0.5882 -0.6432
 1320WAT      O 5985   7.445   0.032   4.165 -0.3832  0.1971 -0.7216
 1320WAT     H1 5986   7.520   0.061   4.198 -0.8312  0.1682  0.3362
 1320WAT     H2 5987   7.425  -0.035   4.216 -0.5653 -0.5069 -1.6942
 1320WAT    EPW 5988   7.453   0.026   4.177 -0.2004  0.4047 -0.1838
 1321WAT      O 5989   6.464   2.728   0.535  0.1531 -0.0697 -0.5251
 1321WAT     H1 5990   6.411   2.788   0.569  1.1590  1.8868 -2.2133
 1321WAT     H2 5991   6.543   2.749   0.567  0.4247 -0.9995 -0.5332
 1321WAT    EPW 5992   6.468   2.740   0.545 -0.5164 -0.8045  0.1687
 1322WAT      O 5993   0.168   2.806   0.610 -0.0176  0.3372  0.0239
 1322WAT     H1 5994   0.170   2.793   0.524 -1.0930 -1.4191  0.2134
 1322WAT     H2 5995   0.233   2.756   0.639 -0.4321 -0.0473  0.3072
 1322WAT    EPW 5996   0.178   2.796   0.601  0.3534  0.1074 -0.4012
 1323WAT      O 5997   8.064   3.368   1.900 -0.3533 -0.2207 -0.2839
 1323WAT     H1 5998   8.041   3.310   1.839 -0.4515 -1.1983  0.6655
 1323WAT     H2 5999   8.000   3.363   1.959  0.2571 -0.0420  0.4065
 1323WAT    EPW 6000   8.052   3.359   1.899  0.6313 -0.6527  1.0360
 1324WAT      O 6001   5.677   3.619   7.289  0.0806 -0.3207 -0.1674
 1324WAT     H1 6002   5.615   3.678   7.305  1.4440  0.9672  0.5745
 1324WAT     H2 6003   5.649   3.579   7.217 -1.3080  0.6380 -0.1902
 1324WAT    EPW 6004   5.664   3.622   7.281 -0.0129 -0.0328 -0.2128
 1325WAT      O 6005   5.633   2.093   7.357  0.2561 -0.0032 -0.1190
 1325WAT     H1 6006   5.629   2.019   7.312 -1.9109 -0.3050  0.4843
 1325WAT     H2 6007   5.702   2.082   7.409  0.6035 -1.1384 -0.7973
 1325WAT    EPW 6008   5.643   2.081   7.358 -0.6868 -0.1026  0.3872
 1326WAT      O 6009   5.102   3.756   5.837 -0.1884 -0.3089  0.1008
 1326WAT     H1 6010   5.126   3.673   5.829 -0.6164 -0.2893 -1.7166
 1326WAT     H2 6011   5.017   3.756   5.819 -0.6478  0.2785  2.0235
 1326WAT    EPW 6012   5.093   3.744   5.833  0.5662  0.2954 -0.4098
 1327WAT      O 6013   6.622   3.732   1.208 -0.2237 -0.3019 -0.3983
 1327WAT     H1 6014   6.572   3.669   1.242 -0.8410  0.3448 -0.0698
 1327WAT     H2 6015   6.668   3.762   1.276 -2.0837  1.5727  0.1447
 1327WAT    EPW 6016   6.621   3.727   1.223 -0.0168 -0.3859 -0.0138
 1328WAT      O 6017   2.792   6.217   0.391  0.3490 -0.3090 -0.6341
 1328WAT     H1 6018   2.720   6.206   0.440  0.5312 -0.3582 -0.3750
 1328WAT     H2 6019   2.804   6.139   0.355  1.0613 -0.7051  0.4115
 1328WAT    EPW 6020   2.783   6.204   0.393  0.0260 -0.4132 -0.8132
 1329WAT      O 6021   5.968   5.787   3.919  0.4713  0.7400  0.1438
 1329WAT     H1 6022   5.926   5.847   3.872 -0.8725  1.0627  1.6783
 1329WAT     H2 6023   5.944   5.805   4.001  0.1174 -1.7928  0.6742
 1329WAT    EPW 6024   5.958   5.799   3.924 -0.3752  0.0786 -0.1225
 1330WAT      O 6025   4.343   4.444   7.994  0.2947 -0.8040 -0.3589
 1330WAT     H1 6026   4.340   4.522   8.033  1.2414 -1.0591  0.2550
 1330WAT     H2 6027   4.263   4.412   8.007  0.7233 -1.1131  1.9253
 1330WAT    EPW 6028   4.331   4.450   8.002  0.5162  0.1917 -0.3945
 1331WAT      O 6029   0.782   1.222   3.400  0.4244 -0.1180 -0.3356
 1331WAT     H1 6030   0.794   1.221   3.486  1.1893 -0.6525 -0.4422
 1331WAT     H2 6031   0.730   1.153   3.386 -1.1685  0.9792 -0.1202
 1331WAT    EPW 6032   0.776   1.212   3.411  0.4426  0.1421 -0.7442
 1332WAT      O 6033   4.484   4.155   7.613 -0.3043 -0.2116 -0.1322
 1332WAT     H1 6034   4.481   4.227   7.662 -0.8623 -0.3629  0.0662
 1332WAT     H2 6035   4.423   4.169   7.553  0.2685 -0.0987 -0.6924
 1332WAT    EPW 6036   4.474   4.167   7.612 -0.0934  0.1677  0.1875
 1333WAT      O 6037   0.303   2.359   0.729 -0.3691  0.1891  0.6637
 1333WAT     H1 6038   0.376   2.327   0.766 -0.6558 -0.8583  0.3570
 1333WAT     H2 6039   0.314   2.342   0.644  0.1994  2.4081  0.2407
 1333WAT    EPW 6040   0.316   2.352   0.722  0.1184 -0.0061 -0.0763
 1334WAT      O 6041   7.626   3.639   0.784  0.2043 -0.2446 -0.1977
 1334WAT     H1 6042   7.644   3.604   0.706  1.6075  0.0103 -0.0142
 1334WAT     H2 6043   7.539   3.643   0.785  0.1522 -0.3873 -1.6888
 1334WAT    EPW 6044   7.616   3.634   0.773  0.1812  0.2871  0.5473
 1335WAT      O 6045   5.712   0.747   7.525 -0.3483 -0.3426 -0.7872
 1335WAT     H1 6046   5.795   0.770   7.531 -0.2845 -0.9692  2.2120
 1335WAT     H2 6047   5.679   0.802   7.466  0.9116  4.0348  2.1377
 1335WAT    EPW 6048   5.719   0.758   7.517  0.4734  0.2221  0.0577
 1336WAT      O 6049   6.592   1.483   1.530 -0.3921 -0.0959 -0.0449
 1336WAT     H1 6050   6.551   1.493   1.607 -0.4890  0.0860 -0.1176
 1336WAT     H2 6051   6.546   1.421   1.490  0.0432 -0.6488  0.2994
 1336WAT    EPW 6052   6.579   1.475   1.536  0.4396 -0.2547 -0.1784
 1337WAT      O 6053   5.272   1.297   0.825 -0.4184 -0.2679 -0.4480
 1337WAT     H1 6054   5.216   1.322   0.888  0.5991  2.2895 -0.4263
 1337WAT     H2 6055   5.309   1.225   0.858 -2.4259 -1.0549  0.2685
 1337WAT    EPW 6056   5.269   1.290   0.839 -0.2514 -0.4244 -0.0935
 1338WAT      O 6057   1.055   0.106   0.835  0.1010  0.0202  0.1729
 1338WAT     H1 6058   1.067   0.041   0.892  0.8426  1.4855  1.7976
 1338WAT     H2 6059   1.121   0.161   0.852 -1.6357  2.1821  0.3358
 1338WAT    EPW 6060   1.067   0.105   0.846  0.5221  0.4497 -0.1308
 1339WAT      O 6061   0.107   6.059   3.108 -0.0146  0.6454  0.0568
 1339WAT     H1 6062   0.114   5.986   3.060 -1.1000  0.0146  0.8031
 1339WAT     H2 6063   0.181   6.061   3.153 -0.7232 -1.1058  1.4500
 1339WAT    EPW 6064   0.119   6.048   3.107  0.1667  0.8582  0.1071
 1340WAT      O 6065   4.557   2.088   4.790 -0.0990  0.1046 -0.0676
 1340WAT     H1 6066   4.491   2.075   4.735  0.5703  0.8834 -1.1031
 1340WAT     H2 6067   4.627   2.060   4.745  0.6363  1.9775 -0.2053
 1340WAT    EPW 6068   4.558   2.082   4.775 -0.2068 -1.3534  0.1902
 1341WAT      O 6069   1.613   5.983   4.083  0.2404 -0.2288  0.2415
 1341WAT     H1 6070   1.565   5.950   4.149 -0.4994  0.5680  0.1167
 1341WAT     H2 6071   1.580   6.062   4.071  1.7013  0.4236  0.2484
 1341WAT    EPW 6072   1.601   5.990   4.091  0.5327  0.2315 -0.1036
 1342WAT      O 6073   5.080   1.878   1.862  0.1461  0.0692  0.3461
 1342WAT     H1 6074   5.163   1.857   1.876  0.1000 -0.6172 -0.3107
 1342WAT     H2 6075   5.044   1.873   1.941  0.5960 -0.2704  0.5324
 1342WAT    EPW 6076   5.087   1.874   1.875  0.4355  0.1371  0.1641
 1343WAT      O 6077   3.039   6.065   5.621 -0.5542  0.2397 -0.6648
 1343WAT     H1 6078   3.124   6.069   5.640 -0.2950  1.7115 -1.9201
 1343WAT     H2 6079   3.017   5.984   5.643  0.5926  0.5383  1.9263
 1343WAT    EPW 6080   3.048   6.053   5.627 -0.1422  0.0871 -0.0895
 1344WAT      O 6081   2.304   6.008   4.842  0.2256  0.4777 -0.1666
 1344WAT     H1 6082   2.366   6.063   4.871 -0.4533  1.6255 -0.7795
 1344WAT     H2 6083   2.285   6.040   4.763 -1.1208  0.1383 -0.0025
 1344WAT    EPW 6084   2.311   6.021   4.835  0.5036  0.4661  0.1544
 1345WAT      O 6085   4.982   4.793   7.360 -0.0634  0.0945  0.2327
 1345WAT     H1 6086   5.056   4.837   7.378  1.4180 -2.4565  0.9392
 1345WAT     H2 6087   4.920   4.842   7.396  1.3013  2.2060 -0.1299
 1345WAT    EPW 6088   4.984   4.807   7.368  0.0844  0.2327  0.6918
 1346WAT      O 6089   4.300   7.961   7.927  0.4900 -0.0104 -0.0666
 1346WAT     H1 6090   4.344   7.984   7.855  0.2234  0.6032 -0.0322
 1346WAT     H2 6091   4.226   8.006   7.922 -0.2093 -1.1412 -0.1858
 1346WAT    EPW 6092   4.296   7.971   7.916  0.2084  0.1308 -0.3797
 1347WAT      O 6093   1.364   1.062   3.233  0.3606  0.3154  0.5726
 1347WAT     H1 6094   1.296   1.068   3.288  1.3643  1.8650  1.7191
 1347WAT     H2 6095   1.362   1.137   3.189  1.8895  0.8408  1.3461
 1347WAT    EPW 6096   1.353   1.074   3.235  0.0030  0.0524 -0.1941
 1348WAT      O 6097   5.554   4.954   1.755  0.0429  0.0929 -0.0032
 1348WAT     H1 6098   5.638   4.955   1.777  0.4511 -1.6033 -1.2023
 1348WAT     H2 6099   5.517   4.905   1.817 -0.2105  1.3327  0.8588
 1348WAT    EPW 6100   5.561   4.947   1.767  0.8485 -0.1206  0.6787
 1349WAT      O 6101   7.834   4.633   2.084 -0.0652  0.0159  0.0791
 1349WAT     H1 6102   7.748   4.635   2.100 -0.2561  1.8325 -0.8264
 1349WAT     H2 6103   7.858   4.554   2.110 -2.1967 -0.9004 -0.5016
 1349WAT    EPW 6104   7.825   4.622   2.090  0.7409 -0.3222  0.1302
 1350WAT      O 6105   0.582   1.642   2.313 -0.0756  0.1427 -0.2193
 1350WAT     H1 6106   0.561   1.715   2.356  0.0184 -0.9637  1.7970
 1350WAT     H2 6107   0.616   1.590   2.374  0.2725 -1.4500 -1.6766
 1350WAT    EPW 6108   0.584   1.645   2.328  0.1561  0.4892 -0.2349
 1351WAT      O 6109   6.053   3.777   4.004  0.5132 -0.6241  0.2493
 1351WAT     H1 6110   6.062   3.830   3.935 -1.3971  0.2862  0.6218
 1351WAT     H2 6111   6.127   3.789   4.048  1.7418 -1.1742 -1.5639
 1351WAT    EPW 6112   6.065   3.787   4.000  0.3748 -0.5840  0.1650
 1352WAT      O 6113   7.183   2.964   2.049  0.6239 -0.2821 -0.0631
 1352WAT     H1 6114   7.104   2.927   2.059  1.3751 -1.4495  2.1796
 1352WAT     H2 6115   7.176   3.039   2.093  0.5139  0.0627 -0.6532
 1352WAT    EPW 6116   7.170   2.970   2.057  0.1449 -0.0648 -0.0430
 1353WAT      O 6117   5.375   5.036   6.691 -0.0682  0.1429  0.0913
 1353WAT     H1 6118   5.363   4.949   6.686  0.2824  0.1325 -0.7089
 1353WAT     H2 6119   5.306   5.069   6.649 -0.6976  0.3064  1.1860
 1353WAT    EPW 6120   5.363   5.028   6.684  0.1226  0.0316 -0.3998
 1354WAT      O 6121   0.507   6.750   1.179 -0.2876 -0.1220  0.4124
 1354WAT     H1 6122   0.495   6.786   1.100  0.9968 -0.0490  0.2206
 1354WAT     H2 6123   0.594   6.743   1.185 -0.4185 -1.3990  1.2586
 1354WAT    EPW 6124   0.518   6.754   1.168  0.0592 -0.3187 -0.0947
 1355WAT      O 6125   5.067   6.976   5.510 -0.2378  0.9764  0.0057
 1355WAT     H1 6126   5.078   7.019   5.585 -1.0660 -0.1731  0.8261
 1355WAT     H2 6127   5.004   6.919   5.528 -3.0775  2.9532 -2.5405
 1355WAT    EPW 6128   5.060   6.974   5.524  0.2647  0.4180  0.2015
 1356WAT      O 6129   5.623   1.153   0.829  0.9250 -0.0510  0.1579
 1356WAT     H1 6130   5.581   1.166   0.754 -0.1351 -1.6581  0.4064
 1356WAT     H2 6131   5.575   1.091   0.868  2.3165 -0.3554  1.4653
 1356WAT    EPW 6132   5.610   1.146   0.823  0.2289  0.3060  0.2880
 1357WAT      O 6133   3.796   1.601   2.679 -0.5085  0.3452 -0.1409
 1357WAT     H1 6134   3.879   1.579   2.663 -0.8063 -2.0711  1.2096
 1357WAT     H2 6135   3.793   1.686   2.658  2.2922  0.5174 -0.1852
 1357WAT    EPW 6136   3.808   1.611   2.673  0.1963  0.1856  0.1513
 1358WAT      O 6137   3.825   1.021   6.358 -0.0057  0.0865 -0.1377
 1358WAT     H1 6138   3.786   0.946   6.379  0.7283 -0.5222 -0.9105
 1358WAT     H2 6139   3.831   1.063   6.435  0.0913 -0.8826  0.3988
 1358WAT    EPW 6140   3.820   1.016   6.373 -0.3064 -0.3652  0.2254
 1359WAT      O 6141   2.797   3.041   3.236  0.4128  0.1922  0.1733
 1359WAT     H1 6142   2.845   3.098   3.190  1.9043 -1.1859 -0.0914
 1359WAT     H2 6143   2.846   3.024   3.306  1.1334 -2.3794 -0.8268
 1359WAT    EPW 6144   2.812   3.047   3.239 -0.2782  0.0041  0.6942
 1360WAT      O 6145   2.522   0.651   3.756  0.2803 -0.3409  0.2531
 1360WAT     H1 6146   2.436   0.633   3.761  0.4653 -1.1896  0.6621
 1360WAT     H2 6147   2.559   0.578   3.786  1.1240  0.4261  1.1424
 1360WAT    EPW 6148   2.515   0.637   3.761 -0.0221  1.0653  0.4604
 1361WAT      O 6149   4.816   2.199   5.315  0.2122  0.2442  0.3530
 1361WAT     H1 6150   4.815   2.167   5.234  0.7899  1.8984 -0.3447
 1361WAT     H2 6151   4.817   2.286   5.303 -2.7810  0.6720  2.1287
 1361WAT    EPW 6152   4.816   2.207   5.302 -0.2623  0.8930  0.1913
 1362WAT      O 6153   7.352   1.308   3.893  0.2074  0.1860 -0.7224
 1362WAT     H1 6154   7.316   1.268   3.825  1.0870  0.2287 -1.2286
 1362WAT     H2 6155   7.286   1.351   3.930 -0.4895 -0.7231 -0.8990
 1362WAT    EPW 6156   7.337   1.308   3.889  0.4321 -0.1445  0.0158
 1363WAT      O 6157   6.078   3.195   5.496 -0.2688 -0.3109  0.9957
 1363WAT     H1 6158   6.085   3.109   5.501 -1.1214 -0.4825 -0.2109
 1363WAT     H2 6159   6.160   3.223   5.490  0.0631 -0.9428  2.2499
 1363WAT    EPW 6160   6.091   3.187   5.496 -0.0647  0.1661  0.2165
 1364WAT      O 6161   0.825   5.983   0.917 -0.3534  0.3348 -0.2793
 1364WAT     H1 6162   0.824   5.905   0.956 -0.2942  0.5119  0.0846
 1364WAT     H2 6163   0.890   6.025   0.957  0.7216  0.0113 -1.6109
 1364WAT    EPW 6164   0.834   5.978   0.929  0.3782  0.1625  0.0472
 1365WAT      O 6165   6.130   2.572   3.872  0.4361  0.0771  0.2882
 1365WAT     H1 6166   6.174   2.630   3.921  2.7137 -0.9546 -0.3963
 1365WAT     H2 6167   6.127   2.501   3.922 -0.7321  0.2098  0.4225
 1365WAT    EPW 6168   6.136   2.570   3.886 -0.6552  0.1959  0.9419
 1366WAT      O 6169   6.037   2.944   3.693 -0.3766 -0.2146  0.2677
 1366WAT     H1 6170   6.033   2.908   3.772 -0.7251 -1.7631 -0.4091
 1366WAT     H2 6171   6.116   2.981   3.691 -0.8343  0.8983  1.7392
 1366WAT    EPW 6172   6.048   2.944   3.704  0.2644  0.6156 -0.0233
 1367WAT      O 6173   5.864   7.504   1.034  0.4982 -0.5168 -0.0445
 1367WAT     H1 6174   5.828   7.583   1.037 -1.5086 -1.3356 -0.6478
 1367WAT     H2 6175   5.874   7.483   1.118 -2.0804 -0.8793  0.2483
 1367WAT    EPW 6176   5.860   7.512   1.047 -0.6950  0.5654  0.3619
 1368WAT      O 6177   5.406   2.789   5.759 -0.6358  0.2904  0.1691
 1368WAT     H1 6178   5.465   2.726   5.773 -0.3081  0.6783  0.5686
 1368WAT     H2 6179   5.391   2.783   5.673  3.0669  2.7785 -0.9080
 1368WAT    EPW 6180   5.413   2.779   5.748  0.5564  0.6066 -0.2007
 1369WAT      O 6181   4.922   4.499   3.919  0.0563  0.0119  0.1779
 1369WAT     H1 6182   4.923   4.586   3.930 -1.2505  0.0203  0.3569
 1369WAT     H2 6183   4.846   4.475   3.954  1.0606 -1.4048  1.5022
 1369WAT    EPW 6184   4.911   4.508   3.926  0.1499 -0.0155 -0.6107
 1370WAT      O 6185   4.257   0.411   7.123  0.6307  0.2158 -0.2483
 1370WAT     H1 6186   4.216   0.457   7.061 -1.0755  0.4243  0.9768
 1370WAT     H2 6187   4.258   0.330   7.090  1.8801  0.7211 -1.5472
 1370WAT    EPW 6188   4.251   0.405   7.109  0.8238 -0.3318 -0.3449
 1371WAT      O 6189   3.841   2.823   4.662  0.2351 -0.0590  0.3152
 1371WAT     H1 6190   3.773   2.784   4.624 -0.7128  0.1517  1.7075
 1371WAT     H2 6191   3.806   2.862   4.732  1.3633  2.2394 -0.3207
 1371WAT    EPW 6192   3.826   2.823   4.667 -0.2942  0.0482 -0.1723
 1372WAT      O 6193   4.392   5.535   5.004  0.4405  0.4521  0.0375
 1372WAT     H1 6194   4.337   5.532   5.072  0.3751 -0.3647 -0.0495
 1372WAT     H2 6195   4.339   5.545   4.935  0.3558 -0.6859 -0.0825
 1372WAT    EPW 6196   4.376   5.536   5.004  0.5026 -0.0098 -0.3260
 1373WAT      O 6197   5.602   2.607   1.565 -0.0595  0.4925 -0.2704
 1373WAT     H1 6198   5.569   2.541   1.611 -0.7370  0.3937 -0.8758
 1373WAT     H2 6199   5.534   2.634   1.517  0.5725  0.7497 -1.0270
 1373WAT    EPW 6200   5.587   2.602   1.565 -0.2286  0.4919  0.3266
 1374WAT      O 6201   4.075   1.743   2.981 -0.7603 -0.0098  0.5067
 1374WAT     H1 6202   4.123   1.723   3.051 -0.9961 -0.6866  0.4833
 1374WAT     H2 6203   4.062   1.666   2.942 -3.2637 -0.1276  1.4066
 1374WAT    EPW 6204   4.080   1.729   2.985 -0.3641 -0.3082  0.4047
 1375WAT      O 6205   1.083   4.308   2.852  0.1292 -0.0330 -0.1919
 1375WAT     H1 6206   1.052   4.226   2.847 -2.2590  0.7068  0.8600
 1375WAT     H2 6207   1.095   4.331   2.769  1.3984 -1.6081 -0.4919
 1375WAT    EPW 6208   1.080   4.299   2.839 -0.0222  0.3054  0.0071
 1376WAT      O 6209   5.617   7.445   7.895  0.0512  0.5586 -0.3014
 1376WAT     H1 6210   5.538   7.414   7.876 -1.0908  2.2395  1.3028
 1376WAT     H2 6211   5.645   7.392   7.959  0.6944 -0.5922 -1.4730
 1376WAT    EPW 6212   5.610   7.432   7.902  0.0998 -0.0585  0.1194
 1377WAT      O 6213   2.986   0.690   6.635 -0.2224  0.3153  0.5365
 1377WAT     H1 6214   2.903   0.716   6.631 -0.4021 -0.1177  1.2217
 1377WAT     H2 6215   3.010   0.711   6.715  0.0721 -0.2966  0.6150
 1377WAT    EPW 6216   2.977   0.697   6.646  0.2566 -0.4258  0.8927
 1378WAT      O 6217   2.785   2.776   7.968  0.1012 -0.0688  0.2103
 1378WAT     H1 6218   2.721   2.738   7.923 -1.2725  0.7496  1.3682
 1378WAT     H2 6219   2.810   2.842   7.917 -1.8023  1.1750  0.7803
 1378WAT    EPW 6220   2.779   2.780   7.954  0.1891 -0.0909 -0.1790
 1379WAT      O 6221   6.583   2.114   1.455 -0.1324 -0.0734 -0.3688
 1379WAT     H1 6222   6.586   2.198   1.479  0.4768 -0.2094  0.0565
 1379WAT     H2 6223   6.639   2.075   1.509 -1.3717 -0.9789  0.3046
 1379WAT    EPW 6224   6.592   2.121   1.466  0.1044 -0.1129  0.2052
 1380WAT      O 6225   6.652   3.040   4.792  0.5985  0.2401  0.0859
 1380WAT     H1 6226   6.618   2.985   4.733  0.4045  1.4704 -0.9927
 1380WAT     H2 6227   6.595   3.106   4.794  1.6613  1.1899  0.0902
 1380WAT    EPW 6228   6.639   3.042   4.784 -0.4194 -0.4113 -0.1064
 1381WAT      O 6229   5.137   4.432   7.052  0.0535  0.0185 -0.0433
 1381WAT     H1 6230   5.120   4.350   7.026  1.8717 -0.8371  1.2146
 1381WAT     H2 6231   5.220   4.428   7.077  0.6216  2.6399 -1.2616
 1381WAT    EPW 6232   5.147   4.419   7.052  0.1482  0.1737  0.0618
 1382WAT      O 6233   1.677   4.265   7.892  0.3322  0.0244  0.1521
 1382WAT     H1 6234   1.609   4.308   7.859 -0.5119 -1.1570  0.2916
 1382WAT     H2 6235   1.641   4.212   7.952  1.1218 -1.8615 -0.9590
 1382WAT    EPW 6236   1.662   4.263   7.896  0.4516 -0.2374 -0.2195
 1383WAT      O 6237   2.142   0.821   5.711  0.0998  0.0480  0.8454
 1383WAT     H1 6238   2.119   0.900   5.681 -0.3152 -0.1935  0.5186
 1383WAT     H2 6239   2.213   0.837   5.758 -0.3134  0.7089  1.2667
 1383WAT    EPW 6240   2.149   0.835   5.714 -0.1492 -0.1142  0.2256
 1384WAT      O 6241   2.164   2.396   5.504  0.0130  0.7590  0.1460
 1384WAT     H1 6242   2.179   2.472   5.464  3.5473  0.9971  1.6047
 1384WAT     H2 6243   2.144   2.419   5.586  0.8245  0.1813  0.5261
 1384WAT    EPW 6244   2.163   2.410   5.510  0.8880 -0.0076  0.1727
 1385WAT      O 6245   3.356   3.933   0.236  0.7496 -0.2677  0.4034
 1385WAT     H1 6246   3.301   3.880   0.277 -2.6498  0.7445 -2.3727
 1385WAT     H2 6247   3.385   3.884   0.169 -2.0038  0.9355 -1.8712
 1385WAT    EPW 6248   3.352   3.918   0.232 -0.1126 -0.1425  0.0009
 1386WAT      O 6249   6.010   1.212   1.310 -0.3104 -0.2365  0.3872
 1386WAT     H1 6250   6.016   1.293   1.280  1.1511 -0.3489  0.2854
 1386WAT     H2 6251   5.944   1.215   1.367 -0.1663  1.0606  0.5008
 1386WAT    EPW 6252   6.001   1.224   1.314  0.4370 -0.3256 -0.1861
 1387WAT      O 6253   4.023   3.061   6.403 -0.3709  0.2817 -0.0465
 1387WAT     H1 6254   4.051   2.987   6.440 -0.1528  0.2850 -0.2054
 1387WAT     H2 6255   4.010   3.039   6.319  1.1687  0.8009 -0.4475
 1387WAT    EPW 6256   4.025   3.047   6.396 -0.4070 -0.0462 -0.1462
 1388WAT      O 6257   3.743   2.732   6.691  0.2021  1.1377  0.4598
 1388WAT     H1 6258   3.792   2.668   6.659 -1.6192 -0.9683  1.6263
 1388WAT     H2 6259   3.801   2.785   6.729  1.8378  0.6502 -1.2239
 1388WAT    EPW 6260   3.759   2.731   6.692  0.4053 -0.1438 -0.7283
 1389WAT      O 6261   1.223   5.588   0.481  0.2171  0.2152 -0.3707
 1389WAT     H1 6262   1.168   5.586   0.549  0.8115 -0.2957  0.1095
 1389WAT     H2 6263   1.254   5.507   0.477  1.0450  0.5338 -0.5310
 1389WAT    EPW 6264   1.219   5.576   0.491 -0.1766 -0.1026 -0.2552
 1390WAT      O 6265   6.494   4.118   0.801 -0.0619 -0.0037  0.0140
 1390WAT     H1 6266   6.570   4.152   0.826  0.5184 -1.5858  0.5741
 1390WAT     H2 6267   6.512   4.082   0.724 -0.0726 -0.8201  0.3754
 1390WAT    EPW 6268   6.508   4.118   0.794  0.0296  0.1116  0.1617
 1391WAT      O 6269   4.152   1.066   4.382  0.4484  0.1187 -0.1189
 1391WAT     H1 6270   4.201   1.077   4.311 -1.4822 -1.0842 -1.7415
 1391WAT     H2 6271   4.126   0.983   4.376 -1.9574  0.7525  0.4784
 1391WAT    EPW 6272   4.155   1.055   4.371  0.5499  0.3068  0.3263
 1392WAT      O 6273   6.269   6.009   3.218 -0.2347 -0.6265 -0.3128
 1392WAT     H1 6274   6.231   5.937   3.248  0.2472 -0.9244 -0.4018
 1392WAT     H2 6275   6.257   6.068   3.281  0.5118 -1.1579  0.3374
 1392WAT    EPW 6276   6.262   6.007   3.231  0.3546 -0.8704  0.4757
 1393WAT      O 6277   5.056   1.654   5.744 -0.2094 -0.1721  0.1344
 1393WAT     H1 6278   5.108   1.591   5.775  0.7414 -0.4310 -1.7950
 1393WAT     H2 6279   5.098   1.680   5.672 -2.7326 -0.3917 -1.5383
 1393WAT    EPW 6280   5.070   1.648   5.738  0.0068  0.2865  0.1269
 1394WAT      O 6281   0.089   1.764   2.633 -0.2506 -0.1679  0.2652
 1394WAT     H1 6282   0.050   1.693   2.666  0.0853  0.0862  1.2368
 1394WAT     H2 6283   0.029   1.796   2.579 -1.1012 -0.2369  1.1335
 1394WAT    EPW 6284   0.074   1.758   2.630  0.2789 -0.0804 -0.0953
 1395WAT      O 6285   6.254   4.041   2.756 -0.1202 -0.3590  0.2415
 1395WAT     H1 6286   6.211   3.980   2.711  0.1067 -0.7566  0.5552
 1395WAT     H2 6287   6.283   3.998   2.826 -0.8417  0.3593  0.9919
 1395WAT    EPW 6288   6.252   4.026   2.760  0.5378 -0.0207  0.4253
 1396WAT      O 6289   5.880   1.278   4.577 -0.4088  0.0096  0.0678
 1396WAT     H1 6290   5.867   1.318   4.653  0.7341  1.3492 -0.4068
 1396WAT     H2 6291   5.928   1.208   4.598 -2.8148 -1.5194  0.9662
 1396WAT    EPW 6292   5.885   1.273   4.592 -0.2684 -0.0581 -0.1387
 1397WAT      O 6293   4.854   4.606   1.397 -0.2460  0.1559 -0.0119
 1397WAT     H1 6294   4.934   4.603   1.432  0.0384  0.1427 -0.6449
 1397WAT     H2 6295   4.840   4.691   1.383 -1.0474  0.3376  1.6391
 1397WAT    EPW 6296   4.864   4.618   1.400 -0.4322 -0.9354  0.0843
 1398WAT      O 6297   0.092   3.370   3.786  0.1256  0.2473 -0.6016
 1398WAT     H1 6298   0.104   3.293   3.747 -0.0673  0.3194 -0.8026
 1398WAT     H2 6299   0.133   3.426   3.733  0.5744  0.2408 -0.2713
 1398WAT    EPW 6300   0.100   3.367   3.772 -0.3264 -0.0192  0.2520
 1399WAT      O 6301   5.794   5.896   4.735  0.1634 -0.5152  0.0702
 1399WAT     H1 6302   5.712   5.894   4.704 -0.3683 -0.6092  1.3915
 1399WAT     H2 6303   5.802   5.819   4.775  1.9708 -1.7809 -2.5241
 1399WAT    EPW 6304   5.783   5.884   4.737  0.2486  0.1543  0.6048
 1400WAT      O 6305   5.774   6.402   5.942  0.1313 -0.9517  0.2032
 1400WAT     H1 6306   5.845   6.386   5.990 -1.4241  0.7540  3.3813
 1400WAT     H2 6307   5.803   6.454   5.879  1.7571 -0.3025  1.4176
 1400WAT    EPW 6308   5.789   6.407   5.940  0.3760 -0.2487 -0.2287
 1401WAT      O 6309   4.449   3.007   6.993 -0.0206  0.5724 -0.6759
 1401WAT     H1 6310   4.370   3.010   6.957  0.4060  0.4014 -1.6598
 1401WAT     H2 6311   4.478   3.089   6.986 -0.5643  0.9235  0.7898
 1401WAT    EPW 6312   4.442   3.020   6.987 -0.4681 -0.1505  0.6688
 1402WAT      O 6313   6.056   5.063   5.331  0.4558 -0.0636  0.5497
 1402WAT     H1 6314   6.063   5.030   5.411  1.2928  0.4131  0.6863
 1402WAT     H2 6315   6.085   5.145   5.340 -1.9336  0.8976  0.3047
 1402WAT    EPW 6316   6.061   5.070   5.344  0.1269  0.1597  0.0444
 1403WAT      O 6317   0.899   6.758   2.798 -0.2062 -0.4650 -0.4208
 1403WAT     H1 6318   0.909   6.695   2.857  1.1912  1.1022  1.1284
 1403WAT     H2 6319   0.976   6.762   2.759 -0.6340 -0.4419 -1.2778
 1403WAT    EPW 6320   0.912   6.749   2.801  0.0408  0.2614 -0.1313
 1404WAT      O 6321   1.625   3.352   3.524  0.4817 -0.3225  0.0465
 1404WAT     H1 6322   1.578   3.411   3.568  1.9138  0.5442  0.4778
 1404WAT     H2 6323   1.708   3.374   3.541  1.0883 -0.8337 -1.9546
 1404WAT    EPW 6324   1.631   3.364   3.533 -0.2299 -0.7566  0.1043
 1405WAT      O 6325   6.462   6.759   0.384 -0.5602  0.0246 -0.3296
 1405WAT     H1 6326   6.513   6.807   0.333  0.1418 -1.5485 -1.1692
 1405WAT     H2 6327   6.505   6.757   0.460 -1.4742  2.1443  0.3114
 1405WAT    EPW 6328   6.476   6.766   0.388  0.3090  0.0464  0.4727
 1406WAT      O 6329   5.371   3.386   3.293  0.6278 -0.0798  0.3428
 1406WAT     H1 6330   5.386   3.457   3.244  0.2652  1.3188  2.1855
 1406WAT     H2 6331   5.352   3.325   3.233  0.3552  1.4958 -1.2875
 1406WAT    EPW 6332   5.370   3.387   3.277 -0.5516  0.3488  0.5039
 1407WAT      O 6333   5.235   7.662   2.371  0.1024 -0.2984 -0.9177
 1407WAT     H1 6334   5.226   7.594   2.425  1.3843 -0.6484 -1.1213
 1407WAT     H2 6335   5.222   7.628   2.292 -2.5256  0.3501 -0.8690
 1407WAT    EPW 6336   5.232   7.647   2.367 -0.3784  0.0744 -0.2068
 1408WAT      O 6337   5.721   2.957   6.538 -0.1519 -0.4230 -0.0653
 1408WAT     H1 6338   5.729   2.892   6.597  0.5561 -0.8503 -0.6071
 1408WAT     H2 6339   5.802   2.992   6.536  0.1308 -1.0954 -1.5344
 1408WAT    EPW 6340   5.734   2.952   6.547 -0.6146  0.1403  0.5567
 1409WAT      O 6341   3.894   4.470   5.750 -0.1253  0.1879  0.9323
 1409WAT     H1 6342   3.950   4.510   5.696  2.1668 -1.4225  1.9868
 1409WAT     H2 6343   3.819   4.513   5.736  1.1794  2.0623 -0.9924
 1409WAT    EPW 6344   3.891   4.482   5.740  0.2737  0.0513  0.3779
 1410WAT      O 6345   6.155   7.599   1.110 -0.0735 -0.7155  0.1700
 1410WAT     H1 6346   6.126   7.582   1.191  0.4648  1.6583  0.9250
 1410WAT     H2 6347   6.093   7.651   1.077 -0.1020 -1.3658 -0.8432
 1410WAT    EPW 6348   6.142   7.604   1.117 -0.4292 -0.1991 -0.1415
 1411WAT      O 6349   2.734   3.964   6.632 -0.3059 -0.2889 -0.0952
 1411WAT     H1 6350   2.706   4.011   6.700 -0.5113 -1.5191  0.6999
 1411WAT     H2 6351   2.668   3.969   6.575  0.1608  1.3595 -0.5634
 1411WAT    EPW 6352   2.720   3.972   6.634 -0.5055 -0.5809  0.5612
 1412WAT      O 6353   1.459   3.403   1.475 -0.0701 -0.1569  0.1013
 1412WAT     H1 6354   1.477   3.409   1.390  2.1863 -1.6683  0.3783
 1412WAT     H2 6355   1.434   3.484   1.496  1.4455  0.8339 -1.5714
 1412WAT    EPW 6356   1.458   3.416   1.465 -0.0164 -0.3081 -0.0477
 1413WAT      O 6357   6.006   6.352   2.117 -0.0272  0.1093  0.2139
 1413WAT     H1 6358   5.979   6.300   2.182  1.9873  0.5846  1.5526
 1413WAT     H2 6359   6.057   6.300   2.069 -0.7403  0.0094 -0.4497
 1413WAT    EPW 6360   6.009   6.336   2.120 -0.0526  0.5710  0.2637
 1414WAT      O 6361   1.972   0.633   5.312 -0.0680 -0.3331 -0.3969
 1414WAT     H1 6362   2.022   0.641   5.383 -0.1883 -1.2622 -0.1918
 1414WAT     H2 6363   2.016   0.575   5.263 -0.3560 -0.2552 -0.7542
 1414WAT    EPW 6364   1.986   0.626   5.315 -0.1351  0.4681  0.1975
 1415WAT      O 6365   5.757   0.628   2.982 -0.5008  0.2509  0.1497
 1415WAT     H1 6366   5.827   0.645   3.032  0.2607 -0.3636 -0.6693
 1415WAT     H2 6367   5.696   0.603   3.039  0.0097  0.5947  0.8615
 1415WAT    EPW 6368   5.759   0.627   2.998 -0.1767  0.0622 -0.8355
 1416WAT      O 6369   5.739   4.088   5.512  0.0730 -0.0076  0.0997
 1416WAT     H1 6370   5.678   4.040   5.552 -0.7531  0.5301 -0.4994
 1416WAT     H2 6371   5.721   4.077   5.428  1.2924 -0.4639 -0.1285
 1416WAT    EPW 6372   5.727   4.079   5.506 -0.3006  0.2831 -0.0814
 1417WAT      O 6373   6.152   8.043   1.059  0.1600  0.0764  0.0397
 1417WAT     H1 6374   6.152   8.052   1.146  1.5892 -0.3638  0.1140
 1417WAT     H2 6375   6.132   7.958   1.048  1.1892 -0.1703  0.0059
 1417WAT    EPW 6376   6.149   8.032   1.070  0.5630 -0.1549  0.1135
 1418WAT      O 6377   2.486   1.242   7.919 -0.2633 -0.1900 -0.1067
 1418WAT     H1 6378   2.542   1.178   7.902 -0.0031 -0.4810  1.7351
 1418WAT     H2 6379   2.536   1.314   7.920 -0.4904  0.0292 -1.7537
 1418WAT    EPW 6380   2.501   1.243   7.916  0.0722  0.1425  0.1318
 1419WAT      O 6381   5.388   1.007   5.311 -0.0954 -0.6036 -0.0133
 1419WAT     H1 6382   5.370   1.031   5.229  0.2395 -0.4248 -0.0360
 1419WAT     H2 6383   5.403   0.921   5.305 -1.4280 -0.8667  0.0880
 1419WAT    EPW 6384   5.387   0.998   5.298  0.0873  0.1760  1.1741
 1420WAT      O 6385   5.170   0.252   2.295  0.6291 -0.2978  0.0529
 1420WAT     H1 6386   5.159   0.247   2.209  0.1424 -4.0336  0.1583
 1420WAT     H2 6387   5.089   0.258   2.326  0.3933 -3.2036  0.2402
 1420WAT    EPW 6388   5.157   0.252   2.287  0.1410  0.4158 -0.0168
 1421WAT      O 6389   6.284   3.964   0.142  0.1322 -0.5073  0.5969
 1421WAT     H1 6390   6.329   3.913   0.197 -0.5941 -0.4394  1.2823
 1421WAT     H2 6391   6.335   3.969   0.072  0.9969 -0.7661  1.1880
 1421WAT    EPW 6392   6.298   3.957   0.140  0.0808  0.2241 -0.1460
 1422WAT      O 6393   5.948   4.208   4.570 -0.5664 -0.0440 -0.5479
 1422WAT     H1 6394   5.960   4.126   4.541 -0.6227  0.2340 -1.3799
 1422WAT     H2 6395   6.029   4.236   4.585 -0.2697  0.7192 -3.0570
 1422WAT    EPW 6396   5.962   4.200   4.568 -0.6174  0.3431 -0.0183
 1423WAT      O 6397   0.450   0.836   2.459  0.2401 -0.4333  0.3440
 1423WAT     H1 6398   0.529   0.803   2.444 -0.3784 -3.2861  2.5535
 1423WAT     H2 6399   0.395   0.775   2.429 -1.1591  0.9634 -0.0923
 1423WAT    EPW 6400   0.454   0.822   2.452  0.1290 -0.0908  0.0027
 1424WAT      O 6401   4.566   2.508   6.664  0.2058 -0.3061  0.1522
 1424WAT     H1 6402   4.625   2.444   6.672  1.7469  0.9597 -0.5205
 1424WAT     H2 6403   4.539   2.500   6.581 -1.0551 -1.2401  0.6218
 1424WAT    EPW 6404   4.571   2.497   6.653 -0.3468  0.1023  0.1841
 1425WAT      O 6405   6.244   4.940   3.876  0.2581 -0.1687  0.5913
 1425WAT     H1 6406   6.266   5.002   3.818  0.2075  0.4225  1.1846
 1425WAT     H2 6407   6.288   4.870   3.850  1.8853  0.6506  1.0405
 1425WAT    EPW 6408   6.254   4.939   3.863 -0.3358  0.0769 -0.0258
 1426WAT      O 6409   5.610   7.845   5.990  0.2136  0.0230 -0.2099
 1426WAT     H1 6410   5.642   7.919   6.024  0.3292 -0.4197  0.6786
 1426WAT     H2 6411   5.538   7.871   5.948 -0.4948  0.4765  1.2106
 1426WAT    EPW 6412   5.604   7.859   5.989  0.5693 -0.5738 -0.0380
 1427WAT      O 6413   5.859   4.383   4.775  0.2547  0.1337 -0.0102
 1427WAT     H1 6414   5.891   4.334   4.710  1.2121  1.7175 -0.7631
 1427WAT     H2 6415   5.930   4.414   4.815 -0.2688  2.3794 -0.6995
 1427WAT    EPW 6416   5.874   4.380   4.771  0.2690 -0.0799  0.1857
 1428WAT      O 6417   3.730   0.659   4.418  0.1801 -0.2248  0.2574
 1428WAT     H1 6418   3.721   0.746   4.417 -2.3858 -0.4059  0.7458
 1428WAT     H2 6419   3.772   0.643   4.343  1.3348  1.4564  0.4816
 1428WAT    EPW 6420   3.735   0.670   4.407  0.1341 -0.3520 -0.3170
 1429WAT      O 6421   0.798   3.233   1.225 -0.5301 -0.0221 -0.0894
 1429WAT     H1 6422   0.809   3.178   1.159  1.2040  0.5874 -0.3550
 1429WAT     H2 6423   0.753   3.299   1.190  4.7710  2.9486 -2.4359
 1429WAT    EPW 6424   0.793   3.235   1.210 -0.0748 -0.4395  0.6945
 1430WAT      O 6425   3.651   4.428   1.750  0.0799 -0.0998 -0.1532
 1430WAT     H1 6426   3.582   4.379   1.728  0.6177 -0.7279 -0.4672
 1430WAT     H2 6427   3.632   4.506   1.716 -1.1844  0.1770  1.0977
 1430WAT    EPW 6428   3.638   4.432   1.742  0.2774 -0.0085 -0.2265
 1431WAT      O 6429   6.703   5.510   4.844  0.1135  0.2481  0.2332
 1431WAT     H1 6430   6.656   5.463   4.788  1.3280 -1.8418  0.8359
 1431WAT     H2 6431   6.655   5.582   4.857 -0.9464  0.0755 -2.2139
 1431WAT    EPW 6432   6.689   5.514   4.838 -0.1984 -0.2169 -0.5483
 1432WAT      O 6433   5.751   2.050   3.774 -0.2951 -0.2338 -0.2322
 1432WAT     H1 6434   5.827   2.054   3.732  0.8033 -0.7498  1.5746
 1432WAT     H2 6435   5.748   2.126   3.818 -0.7986 -0.2472 -0.2401
 1432WAT    EPW 6436   5.762   2.062   3.774 -0.3350 -0.5411 -0.4802
 1433WAT      O 6437   0.090   4.357   2.917  0.7886 -0.2352 -0.1269
 1433WAT     H1 6438   0.078   4.314   2.842  2.5773  0.4223 -0.8445
 1433WAT     H2 6439   0.113   4.294   2.973 -2.3507 -1.0222  0.4547
 1433WAT    EPW 6440   0.092   4.341   2.914 -0.1161  0.0519  1.0767
 1434WAT      O 6441   5.367   3.134   7.244  0.4477  0.2092 -0.0765
 1434WAT     H1 6442   5.404   3.072   7.195 -0.1270 -0.7338  0.6348
 1434WAT     H2 6443   5.362   3.203   7.190  0.6781 -0.5060 -1.0457
 1434WAT    EPW 6444   5.372   3.135   7.229  0.5276 -0.4387  0.0610
 1435WAT      O 6445   2.796   2.798   5.463 -0.1280  0.0676 -0.3980
 1435WAT     H1 6446   2.846   2.804   5.392  0.1282  1.1127 -0.1427
 1435WAT     H2 6447   2.722   2.840   5.440 -0.5706 -0.7466 -0.4917
 1435WAT    EPW 6448   2.792   2.805   5.449  0.1716 -0.1013 -0.1960
 1436WAT      O 6449   6.757   0.696   4.857 -0.4788  0.1725 -0.1211
 1436WAT     H1 6450   6.693   0.749   4.831 -1.5573 -0.5626  0.9337
 1436WAT     H2 6451   6.826   0.723   4.811 -1.4522  1.2193 -1.0285
 1436WAT    EPW 6452   6.758   0.708   4.846  0.4276 -0.0784 -0.4396
 1437WAT      O 6453   5.651   4.402   3.564  0.4501 -0.0227  0.6006
 1437WAT     H1 6454   5.670   4.363   3.640  0.6573 -1.5352 -0.2060
 1437WAT     H2 6455   5.699   4.475   3.566  2.0687 -1.0488  1.0285
 1437WAT    EPW 6456   5.661   4.407   3.576 -0.3326 -0.2433 -0.4653
 1438WAT      O 6457   6.783   1.449   4.575  0.1011 -0.2913  0.4260
 1438WAT     H1 6458   6.749   1.523   4.542  2.4534  0.8472  0.3316
 1438WAT     H2 6459   6.779   1.394   4.508 -0.1096  0.2925 -0.0569
 1438WAT    EPW 6460   6.777   1.452   4.560 -0.6597  0.5311  0.6761
 1439WAT      O 6461   2.064   5.585   3.734 -0.0430  0.7271  0.0042
 1439WAT     H1 6462   2.129   5.547   3.690  1.1967  0.5910  1.7954
 1439WAT     H2 6463   2.051   5.531   3.801 -1.4594  1.1782  0.1216
 1439WAT    EPW 6464   2.072   5.571   3.738 -0.2178 -0.5216  0.1832
 1440WAT      O 6465   4.706   2.437   0.364  0.2521  0.6598 -0.2137
 1440WAT     H1 6466   4.699   2.524   0.374 -0.2236  0.6217 -0.2041
 1440WAT     H2 6467   4.636   2.406   0.406 -0.2069  0.3396 -1.2069
 1440WAT    EPW 6468   4.695   2.446   0.372 -0.0917 -0.4350 -0.1382
 1441WAT      O 6469   0.313   4.166   2.150  0.5570  0.0663 -0.2517
 1441WAT     H1 6470   0.240   4.173   2.103  0.5997  0.5930 -0.2504
 1441WAT     H2 6471   0.373   4.206   2.100  0.6336  0.5095  0.1817
 1441WAT    EPW 6472   0.311   4.173   2.136 -0.0519 -0.7321  0.3747
 1442WAT      O 6473   4.593   5.936   1.330 -0.6953  0.3318 -0.1415
 1442WAT     H1 6474   4.643   6.006   1.345  0.4100 -0.3943 -0.3277
 1442WAT     H2 6475   4.651   5.871   1.320 -1.3499  0.0623 -4.0193
 1442WAT    EPW 6476   4.609   5.937   1.331  0.4126  0.0787  0.0841
 1443WAT      O 6477   6.136   3.296   2.459  0.2985  0.1314  0.2347
 1443WAT     H1 6478   6.103   3.361   2.507 -0.0114  1.3199 -1.4726
 1443WAT     H2 6479   6.172   3.338   2.392  0.8701 -1.4436 -0.4834
 1443WAT    EPW 6480   6.137   3.312   2.456  0.0387 -0.5218  0.7470
 1444WAT      O 6481   6.959   1.837   4.770 -0.2171  0.1319  0.0058
 1444WAT     H1 6482   7.012   1.816   4.836  0.1379  1.7818  0.3041
 1444WAT     H2 6483   6.880   1.822   4.802  0.0021 -0.4746  0.2768
 1444WAT    EPW 6484   6.955   1.832   4.784  0.8084  0.4723  0.2889
 1445WAT      O 6485   5.842   6.896   0.581 -0.3988 -0.2533 -0.1302
 1445WAT     H1 6486   5.760   6.877   0.558 -1.0364  1.0487  0.9255
 1445WAT     H2 6487   5.839   6.902   0.668 -0.2615  3.9203 -0.2042
 1445WAT    EPW 6488   5.829   6.894   0.590  0.7383 -0.0530  0.2416
 1446WAT      O 6489   5.166   4.834   7.919  0.5504 -0.0371 -0.1903
 1446WAT     H1 6490   5.156   4.783   7.989 -1.2788  0.7370  0.1599
 1446WAT     H2 6491   5.220   4.788   7.868  1.5474 -0.8364  1.4966
 1446WAT    EPW 6492   5.172   4.819   7.921  0.2889 -0.1895 -0.0515
 1447WAT      O 6493   3.140   4.501   2.945  0.1785 -0.1420  1.3846
 1447WAT     H1 6494   3.222   4.473   2.934  0.2096  0.1520  0.8145
 1447WAT     H2 6495   3.109   4.449   3.007  1.0276  0.2098  2.1301
 1447WAT    EPW 6496   3.148   4.489   2.952 -0.3559  0.0003 -0.1999
 1448WAT      O 6497   4.086   7.826   0.190  0.3431 -0.0098  0.1173
 1448WAT     H1 6498   4.134   7.760   0.159  1.7238  0.4442  1.2115
 1448WAT     H2 6499   4.137   7.862   0.250 -1.3878  0.4578  1.3907
 1448WAT    EPW 6500   4.100   7.821   0.194 -0.3372 -0.1405  0.4115
 1449WAT      O 6501   4.313   2.091   0.561 -0.1754  0.0470  0.1885
 1449WAT     H1 6502   4.266   2.034   0.607  0.8079 -1.2329 -0.3427
 1449WAT     H2 6503   4.304   2.064   0.479 -0.1784  1.0370 -0.1529
 1449WAT    EPW 6504   4.305   2.079   0.556 -0.0124 -0.2852  0.4524
 1450WAT      O 6505   0.673   2.001   2.606 -0.6692  0.9466  0.9539
 1450WAT     H1 6506   0.659   2.033   2.686  0.4343  3.6920  0.1629
 1450WAT     H2 6507   0.749   1.960   2.613 -0.1197  1.9555  1.1737
 1450WAT    EPW 6508   0.682   2.000   2.619 -0.2509  0.3935  0.1945
 1451WAT      O 6509   2.820   5.189   2.946  0.3832 -0.2784  0.8543
 1451WAT     H1 6510   2.826   5.182   3.033  0.7888  0.5514  0.9067
 1451WAT     H2 6511   2.747   5.236   2.934  0.2352 -0.5360  0.7351
 1451WAT    EPW 6512   2.810   5.195   2.957  0.2406  0.1159 -0.3138
 1452WAT      O 6513   2.695   1.385   1.903 -0.2110 -0.4308  0.6997
 1452WAT     H1 6514   2.728   1.415   1.978 -0.8183  2.9014 -0.1933
 1452WAT     H2 6515   2.613   1.417   1.902  0.1601  0.6996 -1.8371
 1452WAT    EPW 6516   2.687   1.394   1.914  0.0410  0.3583 -0.9174
 1453WAT      O 6517   6.976   7.807   1.042 -0.4073  0.2065 -0.2554
 1453WAT     H1 6518   7.017   7.872   1.001 -0.9253  0.2676 -0.6860
 1453WAT     H2 6519   7.039   7.769   1.089  0.4103 -0.4199 -1.7919
 1453WAT    EPW 6520   6.992   7.811   1.043 -0.6232 -0.6151  0.1335
 1454WAT      O 6521   4.689   0.145   6.702 -0.4926 -0.3955 -0.2408
 1454WAT     H1 6522   4.760   0.188   6.729 -1.2609  0.5953  0.2828
 1454WAT     H2 6523   4.709   0.122   6.620  0.3222  0.0834 -0.1912
 1454WAT    EPW 6524   4.703   0.148   6.694 -0.4048  0.2924  0.7750
 1455WAT      O 6525   1.554   6.581   1.770 -0.8075  0.6896 -0.4643
 1455WAT     H1 6526   1.601   6.621   1.709 -0.0824  0.1903 -0.2470
 1455WAT     H2 6527   1.604   6.586   1.842 -1.2765  0.5349 -0.1187
 1455WAT    EPW 6528   1.568   6.587   1.772  0.3186 -0.0285 -0.1164
 1456WAT      O 6529   4.951   4.796   6.151  0.0622  0.5495  0.1447
 1456WAT     H1 6530   5.018   4.844   6.181  0.0038  0.9676 -0.3676
 1456WAT     H2 6531   4.914   4.764   6.223  0.7334  0.4249  0.4375
 1456WAT    EPW 6532   4.956   4.799   6.166 -0.0210  0.6714 -0.0565
 1457WAT      O 6533   8.083   4.221   4.393 -0.4466  0.2233  0.1009
 1457WAT     H1 6534   8.005   4.257   4.411  0.1624  0.3021  3.1111
 1457WAT     H2 6535   8.082   4.146   4.437  0.4689 -0.7564 -1.4544
 1457WAT    EPW 6536   8.071   4.215   4.402  0.2946 -0.5222  0.2596
 1458WAT      O 6537   6.527   6.146   3.519  0.3819 -0.0833 -0.1861
 1458WAT     H1 6538   6.563   6.217   3.553  0.7350 -0.1697 -0.3714
 1458WAT     H2 6539   6.586   6.118   3.461 -0.2549  0.1214 -0.9506
 1458WAT    EPW 6540   6.541   6.152   3.516  0.4975  0.4188 -0.3793
 1459WAT      O 6541   6.845   5.771   2.985 -0.3249  0.7360 -0.3737
 1459WAT     H1 6542   6.800   5.753   3.057  0.5306  0.5228  0.1171
 1459WAT     H2 6543   6.878   5.694   2.961 -0.7622  0.7629 -1.1191
 1459WAT    EPW 6544   6.843   5.757   2.992 -0.6711  0.4649  0.7358
 1460WAT      O 6545   0.436   3.117   1.260 -0.3246  0.0592  0.3994
 1460WAT     H1 6546   0.498   3.178   1.259  1.9379 -2.0999 -0.8722
 1460WAT     H2 6547   0.388   3.137   1.189 -0.7246  1.2974  0.9721
 1460WAT    EPW 6548   0.438   3.129   1.249  0.1906 -0.4548 -0.0213
 1461WAT      O 6549   0.514   3.781   0.170  1.2901 -0.0730 -0.0734
 1461WAT     H1 6550   0.502   3.734   0.097  0.2614 -0.4453  0.3083
 1461WAT     H2 6551   0.438   3.823   0.179  2.1594  1.6452 -0.3631
 1461WAT    EPW 6552   0.501   3.780   0.160 -0.0956  0.1736 -0.6182
 1462WAT      O 6553   7.587   1.843   2.266 -0.5905 -0.3180 -0.3603
 1462WAT     H1 6554   7.505   1.840   2.238 -0.8365 -0.1203  0.3210
 1462WAT     H2 6555   7.598   1.765   2.304 -0.6468 -0.1367  0.0345
 1462WAT    EPW 6556   7.577   1.831   2.268  0.4307 -0.0371  0.1684
 1463WAT      O 6557   0.149   3.472   2.925  0.0267  0.3420 -0.2428
 1463WAT     H1 6558   0.229   3.463   2.892  0.7237  0.3995  1.3270
 1463WAT     H2 6559   0.124   3.390   2.940  0.3394  0.3688  0.4643
 1463WAT    EPW 6560   0.157   3.459   2.923  0.4075 -0.2582  0.0780
 1464WAT      O 6561   1.536   3.226   4.353  0.6169  0.3671 -0.1238
 1464WAT     H1 6562   1.613   3.250   4.320  1.1928  2.3526  2.3975
 1464WAT     H2 6563   1.555   3.152   4.396  0.7206 -0.0621 -0.8890
 1464WAT    EPW 6564   1.550   3.219   4.354  0.2990 -0.0130 -0.4612
 1465WAT      O 6565   7.702   2.729   4.592  0.1563 -0.3226  0.1517
 1465WAT     H1 6566   7.767   2.737   4.534  0.7138 -0.7727  0.6904
 1465WAT     H2 6567   7.631   2.719   4.543  0.2657  1.6323 -0.4715
 1465WAT    EPW 6568   7.701   2.729   4.577  0.0164  0.2090 -0.8743
 1466WAT      O 6569   4.864   2.810   2.468 -0.1513  0.3240 -0.0505
 1466WAT     H1 6570   4.852   2.738   2.421 -4.0187  0.0213  1.0571
 1466WAT     H2 6571   4.912   2.782   2.536  1.6508 -0.2205 -1.4595
 1466WAT    EPW 6572   4.869   2.795   2.471  0.1086 -0.0612 -0.3739
 1467WAT      O 6573   0.756   2.529   2.898  0.0220  0.6878 -0.5166
 1467WAT     H1 6574   0.692   2.572   2.858 -0.8203  1.2449  1.3384
 1467WAT     H2 6575   0.736   2.535   2.983  2.7428  1.2744  0.1940
 1467WAT    EPW 6576   0.744   2.536   2.905 -0.1329 -0.1249 -0.2111
 1468WAT      O 6577   5.562   2.098   4.555 -0.0342  0.4234  0.6182
 1468WAT     H1 6578   5.492   2.149   4.558 -0.1543  0.2345  2.1653
 1468WAT     H2 6579   5.533   2.020   4.580  0.3685 -0.1507 -0.6209
 1468WAT    EPW 6580   5.548   2.094   4.559  0.1893 -0.3129  0.2014
 1469WAT      O 6581   4.093   7.690   2.465 -0.1987  0.2819 -0.4548
 1469WAT     H1 6582   4.054   7.623   2.426  0.2318 -0.7842  0.9062
 1469WAT     H2 6583   4.111   7.661   2.545  2.9758  0.8042 -0.8127
 1469WAT    EPW 6584   4.090   7.676   2.471  0.4252  1.0410 -0.0674
 1470WAT      O 6585   0.492   3.140   4.879  0.0555 -0.3212 -0.2810
 1470WAT     H1 6586   0.407   3.124   4.883 -0.3209  1.4215 -0.3836
 1470WAT     H2 6587   0.525   3.096   4.946 -0.9861 -0.6288  0.0479
 1470WAT    EPW 6588   0.484   3.132   4.889 -0.3482 -0.1532  0.5730
 1471WAT      O 6589   1.918   7.504   2.120 -0.8549 -0.8177  0.1171
 1471WAT     H1 6590   1.918   7.494   2.207  2.4508  1.6405  0.5702
 1471WAT     H2 6591   1.865   7.572   2.107  0.2146  0.1108  0.4934
 1471WAT    EPW 6592   1.910   7.512   2.131  0.2111  0.2867  0.0647
 1472WAT      O 6593   5.492   6.290   6.859 -0.1785 -0.5333  0.0509
 1472WAT     H1 6594   5.451   6.357   6.822  1.6968  1.2270  1.0176
 1472WAT     H2 6595   5.446   6.274   6.931  0.0193  0.4918  0.4095
 1472WAT    EPW 6596   5.480   6.297   6.864 -0.2494  0.1646 -0.3635
 1473WAT      O 6597   6.972   1.505   2.831  0.0137  0.1882  0.0108
 1473WAT     H1 6598   6.943   1.472   2.907  0.4298  0.2425  0.1984
 1473WAT     H2 6599   6.901   1.505   2.780  0.2950 -2.3905 -0.5118
 1473WAT    EPW 6600   6.957   1.500   2.835 -1.0608 -0.3156  0.0421
 1474WAT      O 6601   2.655   5.287   3.871 -0.4568 -0.3264 -0.0832
 1474WAT     H1 6602   2.726   5.337   3.877 -0.6602 -0.2068  2.7643
 1474WAT     H2 6603   2.593   5.344   3.847 -0.3252  0.4733  1.3499
 1474WAT    EPW 6604   2.656   5.303   3.869  0.3175 -0.1409  0.2668
 1475WAT      O 6605   5.836   2.096   2.997  0.0406 -0.0958  0.4870
 1475WAT     H1 6606   5.760   2.125   3.029 -2.0324 -3.4436 -0.9094
 1475WAT     H2 6607   5.873   2.168   2.964 -3.5373  1.4243 -0.7275
 1475WAT    EPW 6608   5.830   2.111   2.997  0.3434  0.0528 -0.0222
 1476WAT      O 6609   4.543   5.449   3.360  0.1521 -0.3392 -0.0833
 1476WAT     H1 6610   4.485   5.396   3.323  0.7344  0.0959 -1.6740
 1476WAT     H2 6611   4.531   5.525   3.319  0.3275  0.3833  1.1493
 1476WAT    EPW 6612   4.533   5.453   3.349  0.1123 -0.6271 -0.3602
 1477WAT      O 6613   7.634   2.368   1.534  0.8594  0.0250  0.1643
 1477WAT     H1 6614   7.643   2.451   1.559  0.2500 -0.0707  0.7188
 1477WAT     H2 6615   7.683   2.363   1.462 -0.6359  1.3496 -1.0002
 1477WAT    EPW 6616   7.643   2.379   1.527 -0.4772 -0.5493 -0.1543
 1478WAT      O 6617   5.281   5.601   7.724 -0.0257  0.0153  0.3790
 1478WAT     H1 6618   5.206   5.645   7.713  0.5519  0.7481 -0.7938
 1478WAT     H2 6619   5.284   5.587   7.810 -1.3485  0.2491  0.4854
 1478WAT    EPW 6620   5.270   5.605   7.735 -0.6371 -0.7129 -0.1677
 1479WAT      O 6621   4.690   2.517   1.881  0.9696  0.1755  0.0333
 1479WAT     H1 6622   4.681   2.444   1.833  1.6529  0.5915 -0.7569
 1479WAT     H2 6623   4.776   2.531   1.879  0.7889  1.2763 -0.2260
 1479WAT    EPW 6624   4.702   2.508   1.873  0.1723 -0.4301 -0.3889
 1480WAT      O 6625   5.283   2.943   6.705  0.3665 -0.0547 -0.3138
 1480WAT     H1 6626   5.308   3.009   6.653 -0.6026 -0.2938 -1.1211
 1480WAT     H2 6627   5.355   2.924   6.751  0.9742  0.8144 -0.8785
 1480WAT    EPW 6628   5.297   2.950   6.704 -0.0683 -0.0611 -0.5034
 1481WAT      O 6629   7.313   4.043   2.316  0.9264 -0.2300  0.5084
 1481WAT     H1 6630   7.312   4.009   2.396  0.0455  0.5322  0.8561
 1481WAT     H2 6631   7.310   4.129   2.331  0.0580 -0.0947 -0.3301
 1481WAT    EPW 6632   7.312   4.051   2.330 -0.0545  0.0546 -0.3322
 1482WAT      O 6633   4.555   0.219   0.890  0.3213  0.5447 -0.0918
 1482WAT     H1 6634   4.586   0.256   0.818 -1.6131  0.3963 -1.0406
 1482WAT     H2 6635   4.470   0.234   0.887  0.1101  0.0464  1.8961
 1482WAT    EPW 6636   4.547   0.226   0.879 -0.6992 -0.6381  0.1440
 1483WAT      O 6637   5.909   0.396   1.875 -0.0585 -0.2671  0.0432
 1483WAT     H1 6638   5.952   0.419   1.802 -0.6007  0.4304 -0.0662
 1483WAT     H2 6639   5.875   0.319   1.855  0.7300 -0.6048 -0.0414
 1483WAT    EPW 6640   5.910   0.388   1.861  0.1850 -0.1034 -0.6671
 1484WAT      O 6641   1.036   2.119   4.260 -0.0868 -0.7450  0.6983
 1484WAT     H1 6642   1.076   2.172   4.317  0.6124  1.5039 -1.6498
 1484WAT     H2 6643   1.099   2.064   4.235 -0.4251 -1.8150  2.0641
 1484WAT    EPW 6644   1.051   2.119   4.265 -0.1706 -0.2366 -0.1811
 1485WAT      O 6645   0.789   1.885   2.985 -0.1439 -0.3245  0.3483
 1485WAT     H1 6646   0.866   1.911   2.954 -0.9034  1.1486 -0.4245
 1485WAT     H2 6647   0.733   1.946   2.955 -1.7865 -1.9348 -0.0939
 1485WAT    EPW 6648   0.792   1.898   2.976 -0.1523 -0.0956 -0.1759
 1486WAT      O 6649   6.489   3.263   1.603 -0.2491 -0.1036 -0.0464
 1486WAT     H1 6650   6.498   3.333   1.655 -0.2673  0.3555 -0.6537
 1486WAT     H2 6651   6.525   3.198   1.650 -0.1922  0.3186  0.5028
 1486WAT    EPW 6652   6.496   3.264   1.618  0.2077  0.3623 -0.4446
 1487WAT      O 6653   0.601   2.804   2.368 -0.3202 -0.7667 -0.1669
 1487WAT     H1 6654   0.543   2.767   2.314 -1.2269  1.3912 -0.7754
 1487WAT     H2 6655   0.677   2.769   2.344 -0.8496 -0.6964 -2.0981
 1487WAT    EPW 6656   0.604   2.794   2.357 -0.1421 -0.1899 -0.3497
 1488WAT      O 6657   2.407   6.935   5.043 -0.1660  0.0280 -0.0155
 1488WAT     H1 6658   2.439   6.977   5.112  0.4591  0.6934 -0.7046
 1488WAT     H2 6659   2.477   6.897   5.007 -0.7385 -1.9883  0.7973
 1488WAT    EPW 6660   2.422   6.935   5.048 -0.5146 -0.2119  0.2282
 1489WAT      O 6661   6.571   5.420   3.349 -0.4182 -0.2016  0.8417
 1489WAT     H1 6662   6.487   5.407   3.367 -0.0485 -0.8009  2.2957
 1489WAT     H2 6663   6.591   5.355   3.294 -0.5695 -1.0052  1.6957
 1489WAT    EPW 6664   6.562   5.408   3.344  0.4889 -0.0854  0.7690
 1490WAT      O 6665   2.167   0.390   1.379  0.1379  0.5414  0.4350
 1490WAT     H1 6666   2.228   0.339   1.344  0.8227 -0.1339  2.5162
 1490WAT     H2 6667   2.098   0.337   1.385 -1.2034  1.5919 -2.9643
 1490WAT    EPW 6668   2.166   0.375   1.375  0.7637  0.1515 -0.5877
 1491WAT      O 6669   6.227   3.588   4.333  0.7437 -0.2811 -0.0641
 1491WAT     H1 6670   6.279   3.563   4.398  0.3247  0.9881  0.7994
 1491WAT     H2 6671   6.149   3.556   4.354  0.8056 -0.7216 -0.4767
 1491WAT    EPW 6672   6.223   3.580   4.346  0.6752 -0.3027 -0.6297
 1492WAT      O 6673   5.958   5.879   3.175 -0.6832 -0.0951  0.4582
 1492WAT     H1 6674   5.921   5.802   3.193 -0.1583 -0.2058  1.1248
 1492WAT     H2 6675   5.961   5.881   3.088  2.3425 -2.3305  0.3670
 1492WAT    EPW 6676   5.953   5.868   3.165  0.0201 -0.0157  0.3894
 1493WAT      O 6677   4.292   7.425   3.893 -0.0736 -0.4148  0.0880
 1493WAT     H1 6678   4.209   7.396   3.896  0.2939 -1.4020  1.3636
 1493WAT     H2 6679   4.292   7.478   3.823 -1.3707 -1.7029 -0.9648
 1493WAT    EPW 6680   4.280   7.428   3.883  0.1843 -0.2057  0.1760
 1494WAT      O 6681   7.588   6.892   1.159 -0.1302  0.1718  0.9190
 1494WAT     H1 6682   7.660   6.872   1.114  0.7982  0.3608  2.2477
 1494WAT     H2 6683   7.563   6.815   1.192  0.4773  0.3645  1.8586
 1494WAT    EPW 6684   7.595   6.878   1.157 -0.5973 -0.5860  0.5639
 1495WAT      O 6685   2.701   2.004   4.547 -0.9743  0.5036 -0.2297
 1495WAT     H1 6686   2.735   1.935   4.505 -1.1295  0.0778  0.3333
 1495WAT     H2 6687   2.631   1.971   4.587 -1.3113  1.0950 -0.3291
 1495WAT    EPW 6688   2.696   1.989   4.547 -0.2558 -0.1919  0.3858
 1496WAT      O 6689   6.900   0.670   1.599 -0.0953  0.0126 -0.3963
 1496WAT     H1 6690   6.857   0.618   1.655  1.9446  0.0137  1.3049
 1496WAT     H2 6691   6.953   0.715   1.651 -0.5079  2.5421 -2.0400
 1496WAT    EPW 6692   6.901   0.669   1.615  0.0804  0.1043  0.6958
 1497WAT      O 6693   2.082   3.960   0.096  0.8275 -0.8428  0.3198
 1497WAT     H1 6694   2.012   4.000   0.129  1.3862 -0.5417  1.1789
 1497WAT     H2 6695   2.098   3.896   0.153  0.2536 -1.9859 -0.7737
 1497WAT    EPW 6696   2.074   3.957   0.109  0.4405  0.3425 -0.2978
 1498WAT      O 6697   6.149   4.337   3.344 -0.1281  0.2994 -0.1874
 1498WAT     H1 6698   6.092   4.271   3.341  1.3135 -1.0150 -0.1161
 1498WAT     H2 6699   6.100   4.405   3.368 -1.8868 -0.4764 -1.3182
 1498WAT    EPW 6700   6.133   4.337   3.347  0.2291 -0.2451  0.3973
 1499WAT      O 6701   2.004   7.777   3.303  0.4849  0.0213 -0.6947
 1499WAT     H1 6702   1.996   7.852   3.346 -0.3767  0.1652 -1.1059
 1499WAT     H2 6703   1.929   7.735   3.319  0.5072 -0.2871 -1.3565
 1499WAT    EPW 6704   1.992   7.782   3.312  0.2183 -0.2900  0.1552
 1500WAT      O 6705   6.141   3.610   6.040  0.0220 -0.2279 -1.1036
 1500WAT     H1 6706   6.120   3.530   6.013 -0.4241 -0.3471 -0.4442
 1500WAT     H2 6707   6.161   3.598   6.124  0.7924  0.2178 -1.2148
 1500WAT    EPW 6708   6.141   3.596   6.049  0.2180 -0.2622  0.4579
 1501WAT      O 6709   5.661   7.698   0.694  0.4442 -0.4017  0.6809
 1501WAT     H1 6710   5.674   7.742   0.620 -0.7183  1.5948  1.5688
 1501WAT     H2 6711   5.676   7.615   0.672 -1.3265 -0.0951 -2.1957
 1501WAT    EPW 6712   5.665   7.693   0.680 -0.0444  1.0995 -0.5087
 1502WAT      O 6713   7.425   0.551   3.282  0.2422  0.2062 -0.4901
 1502WAT     H1 6714   7.447   0.615   3.337  1.2757  0.1293 -0.7946
 1502WAT     H2 6715   7.462   0.480   3.317 -2.7764 -0.7729  1.1218
 1502WAT    EPW 6716   7.434   0.550   3.296  0.1166  0.4090 -0.4615
 1503WAT      O 6717   6.577   3.704   4.321  0.2634 -0.4069 -0.1478
 1503WAT     H1 6718   6.528   3.756   4.372  0.9467 -1.0320  1.2079
 1503WAT     H2 6719   6.554   3.624   4.346  1.2062 -0.7158 -0.2327
 1503WAT    EPW 6720   6.567   3.700   4.332  0.0133 -0.7220  0.5932
 1504WAT      O 6721   0.807   2.526   2.194 -0.5242 -0.5960 -0.5391
 1504WAT     H1 6722   0.843   2.448   2.205 -0.2672 -0.3912  0.1672
 1504WAT     H2 6723   0.727   2.517   2.226  0.5854  0.3043  2.9053
 1504WAT    EPW 6724   0.801   2.513   2.200  0.3567 -0.1461 -0.9251
 1505WAT      O 6725   7.075   3.291   2.934  0.6187  0.9598 -0.3146
 1505WAT     H1 6726   7.087   3.293   3.020 -1.4275  0.1482  0.0503
 1505WAT     H2 6727   7.152   3.265   2.902  0.5700 -1.8582  1.5300
 1505WAT    EPW 6728   7.088   3.287   2.942  0.2470 -0.0797 -0.3167
 1506WAT      O 6729   5.540   6.392   7.296 -0.3779 -0.1754 -0.5445
 1506WAT     H1 6730   5.542   6.472   7.330 -0.9340  0.4406 -1.9019
 1506WAT     H2 6731   5.457   6.367   7.309 -0.7553  0.3011 -1.9241
 1506WAT    EPW 6732   5.528   6.400   7.303 -0.3072  0.4830  0.0793
 1507WAT      O 6733   2.178   4.577   2.420 -0.3905 -0.0990 -0.1218
 1507WAT     H1 6734   2.228   4.514   2.386  1.5237  1.6805 -0.8600
 1507WAT     H2 6735   2.198   4.647   2.371 -1.8258  1.2761  1.1452
 1507WAT    EPW 6736   2.188   4.578   2.407  0.4712 -0.0597 -0.0946
 1508WAT      O 6737   0.781   0.884   2.944 -0.2981  0.1561  0.6664
 1508WAT     H1 6738   0.694   0.884   2.941 -0.3083 -0.4370  0.7687
 1508WAT     H2 6739   0.802   0.802   2.921  0.2224  0.2184  0.9060
 1508WAT    EPW 6740   0.771   0.872   2.940  0.3883  0.0873  0.4820
 1509WAT      O 6741   1.846   1.165   3.662 -0.1718 -0.3264  0.2928
 1509WAT     H1 6742   1.828   1.088   3.698  0.3310 -1.1553 -1.1552
 1509WAT     H2 6743   1.853   1.147   3.577 -1.0753  1.4988 -0.2273
 1509WAT    EPW 6744   1.844   1.151   3.655 -0.1982  0.3787  0.6682
 1510WAT      O 6745   3.283   4.877   7.017  0.1665  0.0160  0.4585
 1510WAT     H1 6746   3.271   4.821   6.952 -0.6249  0.7549 -0.0488
 1510WAT     H2 6747   3.214   4.864   7.069 -0.6678  1.2909 -0.2602
 1510WAT    EPW 6748   3.271   4.867   7.015 -0.1920 -0.0583  0.3201
 1511WAT      O 6749   0.598   8.032   2.776 -0.2639  0.1121 -0.0289
 1511WAT     H1 6750   0.635   7.987   2.711 -1.5625  0.4875 -1.0641
 1511WAT     H2 6751   0.666   8.051   2.828  0.5004 -1.9962 -0.1401
 1511WAT    EPW 6752   0.613   8.028   2.774  0.7228 -0.2508  0.0154
 1512WAT      O 6753   3.173   6.354   5.980  0.6281 -0.2820  0.2642
 1512WAT     H1 6754   3.224   6.419   6.007 -0.0895  0.7984 -0.8500
 1512WAT     H2 6755   3.207   6.331   5.903  0.1970 -0.4227  0.1072
 1512WAT    EPW 6756   3.185   6.360   5.973 -0.0697 -0.1851  0.0739
 1513WAT      O 6757   3.699   0.170   6.023  0.3500 -0.6836 -0.7888
 1513WAT     H1 6758   3.776   0.208   6.034  0.9937 -1.9259 -0.8539
 1513WAT     H2 6759   3.667   0.164   6.104  0.3877 -0.3448 -0.7440
 1513WAT    EPW 6760   3.706   0.175   6.036  0.7758 -0.7192 -0.2076
 1514WAT      O 6761   3.079   6.148   4.447  0.6234 -0.1492 -0.6761
 1514WAT     H1 6762   3.160   6.118   4.439  1.8881  2.2938  1.6083
 1514WAT     H2 6763   3.064   6.144   4.533 -0.6228  1.8422 -0.7283
 1514WAT    EPW 6764   3.089   6.143   4.459 -0.9237  0.6381 -0.0526
 1515WAT      O 6765   0.932   7.990   0.622 -0.1124 -0.3629  0.4448
 1515WAT     H1 6766   0.891   8.046   0.569 -0.8308 -0.7410  0.5842
 1515WAT     H2 6767   0.967   8.042   0.682  0.8123  0.0808 -0.4517
 1515WAT    EPW 6768   0.931   8.006   0.623  0.1092  0.0649 -0.3700
 1516WAT      O 6769   6.481   0.317   4.774  0.2694 -0.0069  0.2307
 1516WAT     H1 6770   6.422   0.259   4.745 -1.8114  2.4298 -0.8019
 1516WAT     H2 6771   6.445   0.349   4.846  2.7229 -1.8176  2.4700
 1516WAT    EPW 6772   6.467   0.313   4.780  0.1608  0.3656 -0.1108
 1517WAT      O 6773   5.302   1.921   6.649 -0.3481  0.7663  0.3747
 1517WAT     H1 6774   5.376   1.883   6.626 -0.3196  0.7059  0.5654
 1517WAT     H2 6775   5.242   1.860   6.635 -0.1276  0.0812  2.1616
 1517WAT    EPW 6776   5.304   1.907   6.644 -0.0750 -0.0599  0.1824
 1518WAT      O 6777   5.697   2.295   4.937 -0.2847  0.6346  0.3593
 1518WAT     H1 6778   5.670   2.215   4.915  1.6541 -0.1605  0.7540
 1518WAT     H2 6779   5.686   2.298   5.023  3.6107 -0.9285  1.1084
 1518WAT    EPW 6780   5.691   2.284   4.946  0.0509 -0.0234 -0.1313
 1519WAT      O 6781   7.006   5.788   4.279 -0.5765  0.3878  0.3056
 1519WAT     H1 6782   6.979   5.866   4.250  0.7398  0.9075  0.3720
 1519WAT     H2 6783   7.030   5.805   4.362 -0.1734 -0.0604  0.2817
 1519WAT    EPW 6784   7.006   5.802   4.287  0.4910  0.0046 -0.2310
 1520WAT      O 6785   0.800   3.190   4.768 -0.5814  0.4876 -0.1575
 1520WAT     H1 6786   0.846   3.116   4.778  0.1405  1.1164  1.4517
 1520WAT     H2 6787   0.748   3.191   4.837 -0.6161  1.4565 -0.1901
 1520WAT    EPW 6788   0.799   3.179   4.779 -0.1141  0.1239  0.4977
 1521WAT      O 6789   2.943   2.236   2.865 -0.3170  0.2783 -0.0047
 1521WAT     H1 6790   2.925   2.294   2.803  1.6233  0.5852 -0.3435
 1521WAT     H2 6791   3.030   2.231   2.864 -0.3075 -0.7494  1.7572
 1521WAT    EPW 6792   2.953   2.244   2.855  0.2420  0.0360 -0.0260
 1522WAT      O 6793   1.770   0.100   2.703 -0.2692  0.3588  0.7159
 1522WAT     H1 6794   1.727   0.060   2.639 -1.3186  0.8276  1.1129
 1522WAT     H2 6795   1.853   0.096   2.677 -0.4746 -0.9825  0.1627
 1522WAT    EPW 6796   1.776   0.093   2.690  0.4372 -0.1638 -0.1001
 1523WAT      O 6797   3.992   1.591   4.145  0.0090  0.3012  0.0397
 1523WAT     H1 6798   3.986   1.517   4.190  3.0579 -0.2463 -0.2806
 1523WAT     H2 6799   3.969   1.652   4.203 -2.1009 -0.7653  0.4353
 1523WAT    EPW 6800   3.988   1.589   4.160 -0.4754 -1.2416 -0.2366
 1524WAT      O 6801   6.664   2.598   2.715  0.4708  0.4741 -0.1320
 1524WAT     H1 6802   6.742   2.578   2.681  0.4545  0.9805 -0.4719
 1524WAT     H2 6803   6.642   2.673   2.675 -0.5064 -0.0158 -0.5661
 1524WAT    EPW 6804   6.672   2.606   2.704  0.3942  0.1081 -0.6656
 1525WAT      O 6805   4.382   2.639   2.632 -0.1388 -0.2033  0.4962
 1525WAT     H1 6806   4.432   2.683   2.576 -1.4996 -1.3999 -1.8152
 1525WAT     H2 6807   4.328   2.699   2.664  0.1382  0.3887 -0.1355
 1525WAT    EPW 6808   4.381   2.654   2.628  0.0688 -0.1736 -0.2223
 1526WAT      O 6809   6.280   2.242   2.886 -0.1723  0.1530  0.4753
 1526WAT     H1 6810   6.319   2.305   2.840 -1.4517  0.2172 -0.5782
 1526WAT     H2 6811   6.227   2.285   2.940 -0.3773  0.0173  0.3865
 1526WAT    EPW 6812   6.278   2.258   2.887 -0.0530  0.0855 -0.8712
 1527WAT      O 6813   8.104   2.268   0.885  0.2327  0.0665  0.5067
 1527WAT     H1 6814   8.128   2.267   0.969  2.1537 -0.7414 -0.0083
 1527WAT     H2 6815   8.036   2.213   0.883  0.2682 -0.0413  1.4918
 1527WAT    EPW 6816   8.097   2.260   0.897 -0.3229  0.3350 -0.3221
 1528WAT      O 6817   2.379   6.928   3.225 -0.2790 -0.1852  0.5805
 1528WAT     H1 6818   2.384   6.855   3.178 -0.4043  1.1250 -1.6147
 1528WAT     H2 6819   2.320   6.908   3.287  0.2793 -2.1542  0.5512
 1528WAT    EPW 6820   2.371   6.914   3.227 -0.0748  0.0351 -0.0096
 1529WAT      O 6821   7.312   2.623   2.840 -0.6404 -0.0247 -0.4741
 1529WAT     H1 6822   7.322   2.589   2.761 -0.3033 -0.1979 -0.3602
 1529WAT     H2 6823   7.237   2.667   2.834 -0.3689  0.3761 -1.0339
 1529WAT    EPW 6824   7.302   2.624   2.828 -0.5073  0.0192 -0.0709
 1530WAT      O 6825   3.031   5.401   5.223  0.0186 -0.0710  1.1355
 1530WAT     H1 6826   3.083   5.438   5.283  1.9842 -2.1272  0.8495
 1530WAT     H2 6827   3.064   5.320   5.215  1.0439  0.5420 -3.8888
 1530WAT    EPW 6828   3.044   5.394   5.231 -0.0094  0.0603  0.2331
 1531WAT      O 6829   1.325   2.885   3.639  0.1803  0.4876 -0.0876
 1531WAT     H1 6830   1.328   2.802   3.615 -0.4161  0.9403 -1.8430
 1531WAT     H2 6831   1.372   2.926   3.578 -0.5379  1.5783  0.0634
 1531WAT    EPW 6832   1.333   2.879   3.627  0.0366 -0.0353  0.1426
 1532WAT      O 6833   4.815   7.654   4.856  0.1533 -0.6444 -0.1979
 1532WAT     H1 6834   4.880   7.684   4.807  1.4662 -1.3955  0.9988
 1532WAT     H2 6835   4.843   7.667   4.937  0.0002 -3.3045  0.3742
 1532WAT    EPW 6836   4.829   7.660   4.861  0.0659  0.0200  0.2843
 1533WAT      O 6837   3.170   5.725   6.496 -0.7946  0.5702 -0.0045
 1533WAT     H1 6838   3.235   5.774   6.466 -0.8565 -0.5151 -2.1831
 1533WAT     H2 6839   3.100   5.757   6.455 -0.7361 -1.6261 -2.0312
 1533WAT    EPW 6840   3.169   5.737   6.485  0.0501 -0.0990  0.0181
 1534WAT      O 6841   5.731   2.064   5.353  0.1807 -0.0088  0.6679
 1534WAT     H1 6842   5.696   1.987   5.372 -1.7636  0.9247  1.1520
 1534WAT     H2 6843   5.805   2.066   5.399  0.3588 -1.6339  0.4936
 1534WAT    EPW 6844   5.737   2.053   5.362  0.4272 -0.1600  0.0493
 1535WAT      O 6845   0.205   0.795   3.047 -0.1205  1.2796 -0.0858
 1535WAT     H1 6846   0.145   0.782   2.985  1.8300 -1.0385 -1.7056
 1535WAT     H2 6847   0.164   0.774   3.121 -1.7530  1.4180 -0.9142
 1535WAT    EPW 6848   0.190   0.790   3.048 -0.1889  0.0732  0.0000
 1536WAT      O 6849   3.444   1.244   5.245  0.4430  0.2427 -0.4907
 1536WAT     H1 6850   3.379   1.261   5.301  0.0531 -0.1960 -0.7966
 1536WAT     H2 6851   3.448   1.316   5.196  0.6078  0.5203 -0.0730
 1536WAT    EPW 6852   3.435   1.257   5.246  0.1107 -0.4223  0.5967
 1537WAT      O 6853   0.316   2.470   0.307  0.0921 -0.7751  0.5151
 1537WAT     H1 6854   0.247   2.523   0.316  0.0518 -0.7516  0.1075
 1537WAT     H2 6855   0.298   2.403   0.360 -0.1379 -0.6628  0.5809
 1537WAT    EPW 6856   0.303   2.468   0.316  0.3685 -0.9652 -0.6267
 1538WAT      O 6857   6.565   0.220   2.691 -0.1207  0.0434 -0.5582
 1538WAT     H1 6858   6.506   0.238   2.629 -2.8825 -0.3483  1.7883
 1538WAT     H2 6859   6.599   0.144   2.665 -2.1517 -0.7731 -0.9760
 1538WAT    EPW 6860   6.562   0.211   2.678  0.3945 -0.8070  0.1694
 1539WAT      O 6861   8.057   3.024   4.528 -0.1572 -0.3791 -0.1800
 1539WAT     H1 6862   8.139   3.019   4.556  0.0570 -0.7412 -0.8378
 1539WAT     H2 6863   8.046   3.108   4.508  0.5610 -0.6030 -1.5609
 1539WAT    EPW 6864   8.067   3.035   4.529  0.8686  0.4038 -0.1588
 1540WAT      O 6865   1.267   1.905   4.296  0.3375 -0.3805  0.4177
 1540WAT     H1 6866   1.222   1.840   4.332 -0.1237  1.0637  2.6725
 1540WAT     H2 6867   1.318   1.933   4.361  0.7819  1.2516 -0.5691
 1540WAT    EPW 6868   1.268   1.900   4.311 -0.4941 -0.0767  0.1474
 1541WAT      O 6869   6.766   6.141   3.812 -0.4427  0.2436 -0.8880
 1541WAT     H1 6870   6.747   6.212   3.766  0.7363 -0.5689 -2.7627
 1541WAT     H2 6871   6.824   6.169   3.871 -1.3769  1.1582 -0.3758
 1541WAT    EPW 6872   6.772   6.155   3.814 -0.5978  0.2093 -0.1080
 1542WAT      O 6873   7.782   1.216   1.305  0.0713 -0.0424 -0.1074
 1542WAT     H1 6874   7.808   1.140   1.340 -1.8568 -0.4476  0.5989
 1542WAT     H2 6875   7.824   1.276   1.352  0.1838 -0.6525  0.5947
 1542WAT    EPW 6876   7.792   1.213   1.317 -0.3286  0.2076 -0.2590
 1543WAT      O 6877   5.547   5.545   0.306  0.7652  0.0210 -0.6193
 1543WAT     H1 6878   5.620   5.592   0.317 -0.2788  1.7134 -0.5692
 1543WAT     H2 6879   5.503   5.590   0.245 -0.9620 -0.0283  0.5321
 1543WAT    EPW 6880   5.551   5.559   0.299  0.2733  0.4959 -0.1413
 1544WAT      O 6881   4.773   2.174   4.181  0.2192 -0.0092  0.6366
 1544WAT     H1 6882   4.772   2.214   4.258  0.1409  1.0688  0.0901
 1544WAT     H2 6883   4.826   2.106   4.194  1.5966  1.1202  1.1794
 1544WAT    EPW 6884   4.781   2.170   4.194 -0.2014 -0.3228 -0.2670
 1545WAT      O 6885   1.281   2.011   3.390 -0.0551  0.7282  0.2698
 1545WAT     H1 6886   1.254   1.941   3.435  2.0351 -0.9098 -0.8384
 1545WAT     H2 6887   1.363   2.022   3.416  0.3221  1.4510 -1.1102
 1545WAT    EPW 6888   1.289   2.002   3.400  0.2003  0.4234  0.1801
 1546WAT      O 6889   6.143  -0.011   4.042  0.4594  0.0683 -0.3774
 1546WAT     H1 6890   6.118   0.068   4.015  1.4117  1.3309  2.1267
 1546WAT     H2 6891   6.229  -0.003   4.054  0.5799 -1.3425 -0.1033
 1546WAT    EPW 6892   6.152   0.002   4.040  0.0911  0.3844 -0.3137
 1547WAT      O 6893   5.378   3.674   3.906 -0.0895  0.0435 -0.1481
 1547WAT     H1 6894   5.375   3.606   3.852  0.7480 -1.4946  1.6090
 1547WAT     H2 6895   5.324   3.652   3.970  0.4162  0.8964  0.6091
 1547WAT    EPW 6896   5.370   3.661   3.908 -0.1681  0.2566  0.2397
 1548WAT      O 6897   6.689   6.265   1.776  0.1316 -0.2779 -0.8704
 1548WAT     H1 6898   6.611   6.305   1.779  0.2378 -0.1500  0.9269
 1548WAT     H2 6899   6.683   6.215   1.704 -1.7608 -0.5745 -0.5656
 1548WAT    EPW 6900   6.677   6.263   1.766  0.2352 -0.3515 -0.3307
 1549WAT      O 6901   0.473   5.563   2.859  0.5106 -0.2644  0.1724
 1549WAT     H1 6902   0.534   5.625   2.851 -0.2907  0.5217  0.0076
 1549WAT     H2 6903   0.514   5.491   2.833  1.6705  0.0608  1.0246
 1549WAT    EPW 6904   0.488   5.562   2.854 -0.1848 -0.4589  1.1287
 1550WAT      O 6905   0.020   2.861   2.668  0.8336  0.2883 -0.0929
 1550WAT     H1 6906   0.073   2.897   2.727 -0.8456 -0.9360  2.3669
 1550WAT     H2 6907   0.034   2.775   2.678 -0.4588  0.0073 -0.5047
 1550WAT    EPW 6908   0.030   2.853   2.678 -0.1449 -0.1169  0.0828
 1551WAT      O 6909   2.020   1.057   2.528 -0.6667  0.0631  0.1382
 1551WAT     H1 6910   1.982   1.133   2.544 -1.6515 -0.4171  0.1724
 1551WAT     H2 6911   1.962   1.014   2.479 -0.1389 -0.6729  0.1229
 1551WAT    EPW 6912   2.006   1.062   2.523  0.1313  0.0290 -0.7881
 1552WAT      O 6913   2.533   2.384   7.830  0.0408  0.5139  0.3247
 1552WAT     H1 6914   2.459   2.362   7.789  0.3452 -1.1204  0.5923
 1552WAT     H2 6915   2.536   2.330   7.899  1.4442  0.5646  0.3470
 1552WAT    EPW 6916   2.523   2.373   7.834  0.6170 -0.5257 -0.1825
 1553WAT      O 6917   7.137   3.518   3.357 -0.4686  0.1725  0.4815
 1553WAT     H1 6918   7.194   3.543   3.418  0.0610  1.9258 -0.6532
 1553WAT     H2 6919   7.080   3.584   3.355 -0.9718 -0.2741 -0.3030
 1553WAT    EPW 6920   7.137   3.531   3.366 -0.6807 -0.3953 -0.5898
 1554WAT      O 6921   7.478   2.730   4.418 -0.0934  0.1440  0.1707
 1554WAT     H1 6922   7.434   2.656   4.436  1.3527 -0.9115 -0.4469
 1554WAT     H2 6923   7.494   2.724   4.333  0.2237  1.0817  0.1571
 1554WAT    EPW 6924   7.474   2.718   4.408 -0.1182 -0.0929  0.1958
 1555WAT      O 6925   2.387   2.505   0.754 -0.6001 -0.1409 -0.2440
 1555WAT     H1 6926   2.371   2.420   0.765  0.3489 -0.2048  0.7939
 1555WAT     H2 6927   2.447   2.523   0.814 -2.2355  1.7471  0.9651
 1555WAT    EPW 6928   2.393   2.495   0.764  0.2071  0.6563 -0.0589
 1556WAT      O 6929   5.858   2.179   7.520  0.8061  0.3465  0.0804
 1556WAT     H1 6930   5.921   2.127   7.550 -0.9671 -2.3280 -0.4549
 1556WAT     H2 6931   5.801   2.183   7.587 -0.0411 -0.1559 -0.5899
 1556WAT    EPW 6932   5.859   2.172   7.535  0.2206 -0.0378  0.6657
 1557WAT      O 6933   6.240   4.033   1.928 -0.9492 -0.5267 -0.4417
 1557WAT     H1 6934   6.169   4.084   1.922 -0.8609  0.0704  2.2118
 1557WAT     H2 6935   6.207   3.955   1.950 -0.8508 -0.6045 -0.5681
 1557WAT    EPW 6936   6.225   4.029   1.930  0.3497 -0.0936  0.1957
 1558WAT      O 6937   5.910   5.904   5.561 -0.2737 -0.9050 -0.1513
 1558WAT     H1 6938   5.980   5.862   5.531  0.0808 -0.8063  0.5237
 1558WAT     H2 6939   5.888   5.858   5.632 -0.0706 -0.1447  0.4162
 1558WAT    EPW 6940   5.917   5.891   5.567 -0.5240 -0.4206 -0.0217
 1559WAT      O 6941   1.345   1.659   3.710  0.3983  0.3445 -0.5647
 1559WAT     H1 6942   1.320   1.674   3.793  0.7513  2.0008 -0.7215
 1559WAT     H2 6943   1.387   1.583   3.715  0.3695  0.3805  0.7707
 1559WAT    EPW 6944   1.347   1.650   3.723  0.3870 -0.4429 -0.0600
 1560WAT      O 6945   6.110   4.464   5.286 -0.1918 -0.6983  0.5139
 1560WAT     H1 6946   6.193   4.442   5.304  0.7464 -0.5941 -2.9808
 1560WAT     H2 6947   6.066   4.391   5.298  0.4724 -0.9309  1.7855
 1560WAT    EPW 6948   6.116   4.450   5.291 -0.2982 -0.3276  0.0459
 1561WAT      O 6949   5.244   3.251   4.426  0.3813  0.0164  0.7282
 1561WAT     H1 6950   5.270   3.250   4.509  1.8718  1.5213  0.3281
 1561WAT     H2 6951   5.270   3.329   4.397 -0.4203 -0.3279 -1.0608
 1561WAT    EPW 6952   5.252   3.262   4.434 -0.5900 -0.1354 -0.3612
 1562WAT      O 6953   4.061   6.465   0.084  0.6518  0.1346 -0.3700
 1562WAT     H1 6954   4.144   6.488   0.092  1.1897 -1.6472 -0.4266
 1562WAT     H2 6955   4.059   6.421   0.008 -0.1155 -0.7214  0.1344
 1562WAT    EPW 6956   4.073   6.462   0.074 -0.0951  0.3356  0.3046
 1563WAT      O 6957   1.013   4.453   1.957  0.9600  0.1943  0.3991
 1563WAT     H1 6958   1.026   4.371   1.934 -1.2031 -0.0114 -0.3218
 1563WAT     H2 6959   0.955   4.482   1.899  0.4880  1.7377  1.5606
 1563WAT    EPW 6960   1.006   4.445   1.945 -0.6275  0.4582 -0.1462
 1564WAT      O 6961   7.079   2.380   3.108  0.1888  0.2162  1.0237
 1564WAT     H1 6962   7.159   2.368   3.074  0.1589  0.2506  0.9410
 1564WAT     H2 6963   7.092   2.373   3.194  0.1546 -0.4912  0.9709
 1564WAT    EPW 6964   7.093   2.377   3.116  0.5969  0.1137 -0.2327
 1565WAT      O 6965   0.633   4.923   1.803  0.2996  0.4326 -0.0498
 1565WAT     H1 6966   0.563   4.950   1.757 -0.6152 -0.4024  0.7871
 1565WAT     H2 6967   0.611   4.841   1.825  1.4115  0.2752  0.5181
 1565WAT    EPW 6968   0.619   4.915   1.799  0.6213 -0.3916  0.0869
 1566WAT      O 6969   5.623   2.803   2.469 -0.7921  0.2032 -0.3551
 1566WAT     H1 6970   5.659   2.876   2.439  2.1358 -0.2795  1.5179
 1566WAT     H2 6971   5.647   2.743   2.410  2.6254 -0.2739  1.2911
 1566WAT    EPW 6972   5.632   2.805   2.456  0.0791  0.1378  0.4948
 1567WAT      O 6973   5.956   0.060   0.856 -0.1700 -0.2080 -0.1276
 1567WAT     H1 6974   5.926  -0.021   0.851  0.1616 -0.4902  1.8386
 1567WAT     H2 6975   6.042   0.050   0.864  0.1165  0.4554 -1.8505
 1567WAT    EPW 6976   5.965   0.047   0.857 -0.4900 -0.6805  0.0645
 1568WAT      O 6977   6.638   3.489   4.056  0.1104 -0.9748 -0.1146
 1568WAT     H1 6978   6.631   3.466   3.972 -2.0272  0.2808 -0.3591
 1568WAT     H2 6979   6.590   3.430   4.098  0.1358 -0.8659  0.0707
 1568WAT    EPW 6980   6.630   3.477   4.050  0.2526  0.2833  0.2579
 1569WAT      O 6981   5.930   3.701   7.390 -0.1080 -0.3830 -0.4160
 1569WAT     H1 6982   5.859   3.651   7.396 -0.5551  0.0639 -1.6689
 1569WAT     H2 6983   5.944   3.726   7.473 -1.8921  0.1724 -0.2305
 1569WAT    EPW 6984   5.921   3.698   7.404  0.0156 -0.2747 -0.2757
 1570WAT      O 6985   5.468   1.654   0.792 -0.0825  0.4100  0.1399
 1570WAT     H1 6986   5.487   1.730   0.753  1.5620  0.6341  1.3075
 1570WAT     H2 6987   5.464   1.598   0.725 -1.6956  1.5306 -0.7837
 1570WAT    EPW 6988   5.470   1.657   0.776  0.2166  0.8199  0.3030
 1571WAT      O 6989   3.028   2.396   7.341 -0.4607  0.2621  0.2437
 1571WAT     H1 6990   3.008   2.480   7.335  2.8261  1.1442 -0.2898
 1571WAT     H2 6991   2.995   2.373   7.419 -0.2468  2.4542  1.0683
 1571WAT    EPW 6992   3.020   2.405   7.352 -0.6126  0.8312  0.1978
 1572WAT      O 6993   6.724   2.887   2.561  0.2312 -0.0522  0.0053
 1572WAT     H1 6994   6.779   2.929   2.508  0.5596 -0.2901  0.1581
 1572WAT     H2 6995   6.648   2.928   2.548  0.2381 -0.2995 -0.8833
 1572WAT    EPW 6996   6.721   2.899   2.551 -0.5344 -0.9119 -0.3909
 1573WAT      O 6997   6.663   7.633   2.753  0.4015  0.1625  0.0870
 1573WAT     H1 6998   6.656   7.704   2.804 -0.8773  0.6245 -0.6771
 1573WAT     H2 6999   6.685   7.570   2.809  2.4105  1.2864  0.6674
 1573WAT    EPW 7000   6.665   7.634   2.769 -0.1855 -0.3515 -0.1521
 1574WAT      O 7001   5.503   6.460   2.651 -0.2587  0.4901  0.5098
 1574WAT     H1 7002   5.467   6.538   2.634 -1.6073 -0.1594  0.2191
 1574WAT     H2 7003   5.443   6.404   2.622  0.1130 -0.6529  1.8694
 1574WAT    EPW 7004   5.489   6.464   2.644 -0.0972  0.6294 -0.6107
 1575WAT      O 7005   6.237   5.229   0.050 -0.8023  0.5230 -0.1563
 1575WAT     H1 7006   6.201   5.222   0.129 -0.2498  0.0660  0.0645
 1575WAT     H2 7007   6.169   5.229  -0.004 -1.1202 -1.2311  0.1870
 1575WAT    EPW 7008   6.222   5.228   0.054  0.5195 -0.5350  0.2747
 1576WAT      O 7009   1.805   4.783   4.636  0.4017 -0.3633  0.0884
 1576WAT     H1 7010   1.833   4.705   4.610 -0.5620 -0.8869  0.5301
 1576WAT     H2 7011   1.852   4.798   4.708  1.0716 -0.2168 -0.3744
 1576WAT    EPW 7012   1.816   4.773   4.643  0.5362 -0.1655  0.3798
 1577WAT      O 7013   7.583   0.720   4.199 -0.0012  0.2735 -0.7131
 1577WAT     H1 7014   7.566   0.702   4.282 -0.7000  1.1106 -0.6609
 1577WAT     H2 7015   7.541   0.795   4.185 -2.7582 -1.4536 -2.7368
 1577WAT    EPW 7016   7.575   0.728   4.209  0.1107  0.1316  0.7347
 1578WAT      O 7017   3.109   3.635   1.786  0.1411 -0.1564 -0.5740
 1578WAT     H1 7018   3.143   3.651   1.707  1.6588  1.9160  0.4070
 1578WAT     H2 7019   3.041   3.689   1.790  0.9893  0.9031  0.0680
 1578WAT    EPW 7020   3.104   3.645   1.775  0.9437  0.2325  0.3670
 1579WAT      O 7021   7.657   1.817   3.540  0.1789  0.4871  0.1701
 1579WAT     H1 7022   7.613   1.892   3.536  0.2201  0.5374  0.5770
 1579WAT     H2 7023   7.733   1.835   3.502  0.1407  0.6148  0.1545
 1579WAT    EPW 7024   7.661   1.831   3.534  0.1682  0.3063 -0.3375
 1580WAT      O 7025   2.502   0.724   0.236 -0.1472  0.0768  0.3109
 1580WAT     H1 7026   2.452   0.654   0.225  1.4656 -0.7892 -2.2182
 1580WAT     H2 7027   2.574   0.693   0.274  0.8220  0.1540 -1.3457
 1580WAT    EPW 7028   2.505   0.709   0.240  0.2562 -0.7154  0.5264
 1581WAT      O 7029   2.187   1.372   5.021  0.5726  0.1895 -0.1013
 1581WAT     H1 7030   2.114   1.398   4.981 -1.2255  0.1860  2.9414
 1581WAT     H2 7031   2.243   1.437   5.005 -1.1912  1.8836  0.3073
 1581WAT    EPW 7032   2.184   1.385   5.012 -0.1208 -0.0885 -0.2124
 1582WAT      O 7033   1.032   3.398   1.262  0.0962 -0.0881 -0.4544
 1582WAT     H1 7034   0.963   3.344   1.257  0.2772 -0.4052  0.3226
 1582WAT     H2 7035   1.070   3.390   1.184 -0.8566  0.2530 -0.9802
 1582WAT    EPW 7036   1.027   3.389   1.250  0.1747  0.3568 -0.3037
 1583WAT      O 7037   0.835   2.650   4.013  0.1268  0.4271  0.2338
 1583WAT     H1 7038   0.842   2.580   4.065  1.9557  0.8544  0.6510
 1583WAT     H2 7039   0.827   2.616   3.933  4.1895 -0.5068 -0.0312
 1583WAT    EPW 7040   0.835   2.635   4.009 -0.2598 -0.0978  0.4728
 1584WAT      O 7041   6.466   2.653   1.307  0.1681 -0.7547  0.8201
 1584WAT     H1 7042   6.549   2.671   1.330  0.2468  0.9040 -0.6053
 1584WAT     H2 7043   6.475   2.603   1.236  0.0932  2.1705 -1.4300
 1584WAT    EPW 7044   6.480   2.648   1.300  0.0571  0.4403  0.4659
 1585WAT      O 7045   6.046   5.543   2.017  0.4057  0.0653 -0.6642
 1585WAT     H1 7046   5.988   5.505   2.071 -0.5763  0.3243 -1.5091
 1585WAT     H2 7047   6.093   5.476   1.987  2.1065  0.0442  1.7310
 1585WAT    EPW 7048   6.044   5.528   2.021 -0.2648  0.5918 -0.1628
 1586WAT      O 7049   1.461   2.131   3.785 -0.7302 -0.3920 -0.2678
 1586WAT     H1 7050   1.381   2.109   3.760 -1.3872  0.4828  0.9764
 1586WAT     H2 7051   1.471   2.090   3.861  0.3438 -1.1732 -0.8071
 1586WAT    EPW 7052   1.451   2.122   3.792  0.7602  0.2468 -0.1625
 1587WAT      O 7053   7.964   4.304   2.422 -0.2224  0.6204 -0.1958
 1587WAT     H1 7054   8.009   4.377   2.405 -0.4708  0.3117 -2.4186
 1587WAT     H2 7055   8.024   4.241   2.417 -0.2355  0.5484  0.5027
 1587WAT    EPW 7056   7.980   4.305   2.419 -0.5451  0.7126 -0.1934
 1588WAT      O 7057   0.695   2.687   1.626  0.0092  0.3386 -0.1154
 1588WAT     H1 7058   0.743   2.663   1.695 -1.5229 -0.8885  0.5805
 1588WAT     H2 7059   0.623   2.638   1.632 -1.1132  1.7071 -1.4231
 1588WAT    EPW 7060   0.692   2.677   1.637 -0.4206  0.3081  0.4171
 1589WAT      O 7061   2.399   0.785   1.202 -0.2146  0.1050 -0.5000
 1589WAT     H1 7062   2.366   0.865   1.193 -1.5469 -0.4092 -0.5059
 1589WAT     H2 7063   2.485   0.797   1.198 -0.2641  1.8124  1.7167
 1589WAT    EPW 7064   2.407   0.799   1.200 -0.1257  0.7728  0.3346
 1590WAT      O 7065   7.622   3.378   2.232 -0.1617 -0.3338  0.6834
 1590WAT     H1 7066   7.600   3.302   2.269  0.0476 -1.1814 -0.8234
 1590WAT     H2 7067   7.585   3.438   2.283 -3.2799 -1.5429  0.0403
 1590WAT    EPW 7068   7.613   3.375   2.245  0.2384 -0.0228  0.1454
 1591WAT      O 7069   5.685   0.261   2.391 -0.1156 -0.0686  0.0637
 1591WAT     H1 7070   5.676   0.318   2.326 -0.7048 -1.5936 -1.2538
 1591WAT     H2 7071   5.685   0.311   2.462  0.7055  1.6738 -1.0950
 1591WAT    EPW 7072   5.684   0.277   2.392 -0.1956  0.4936 -0.0580
 1592WAT      O 7073   3.588   7.249   4.507  0.2495 -0.0065 -0.0018
 1592WAT     H1 7074   3.607   7.327   4.474  1.0506 -0.5928 -0.9866
 1592WAT     H2 7075   3.604   7.194   4.441  1.8907 -1.2301  1.3067
 1592WAT    EPW 7076   3.594   7.252   4.492 -0.2053  0.4243  0.1711
 1593WAT      O 7077   6.868   0.202   4.525  0.9367 -0.0272  0.0321
 1593WAT     H1 7078   6.819   0.266   4.491  1.1942  0.9172  1.3716
 1593WAT     H2 7079   6.890   0.233   4.604  3.1005 -0.7402 -0.2507
 1593WAT    EPW 7080   6.864   0.216   4.532  0.4635 -0.1358 -0.1911
 1594WAT      O 7081   7.271   3.464   2.643 -0.5709 -0.3761 -0.0425
 1594WAT     H1 7082   7.216   3.467   2.711 -1.2148 -0.0233 -0.5636
 1594WAT     H2 7083   7.220   3.441   2.576 -0.0327 -0.2960 -0.4923
 1594WAT    EPW 7084   7.255   3.461   2.643  0.4486 -0.1911 -0.5013
 1595WAT      O 7085   5.697   7.845   3.681 -0.2820  0.3487 -0.0425
 1595WAT     H1 7086   5.777   7.810   3.679 -0.4380 -0.0023 -1.4493
 1595WAT     H2 7087   5.644   7.775   3.676 -0.6563  0.6276 -0.0360
 1595WAT    EPW 7088   5.701   7.829   3.680 -0.0338 -0.2333 -0.2199
 1596WAT      O 7089   5.307   4.342   1.105 -0.1151 -0.1469 -0.3921
 1596WAT     H1 7090   5.295   4.377   1.026 -1.3617 -0.3059 -0.3009
 1596WAT     H2 7091   5.252   4.274   1.106 -1.0493  0.5762  1.0381
 1596WAT    EPW 7092   5.297   4.337   1.094  0.1006  0.0655  0.0646
 1597WAT      O 7093   1.712   0.618   3.930 -0.3357  0.0209  0.7805
 1597WAT     H1 7094   1.677   0.689   3.967  0.3693  0.7372  0.1214
 1597WAT     H2 7095   1.667   0.608   3.856  0.6627  0.8169  0.0371
 1597WAT    EPW 7096   1.700   0.627   3.925 -0.4352  0.4820 -0.0839
 1598WAT      O 7097   0.408   4.531   4.736  0.0040 -0.0193  0.4278
 1598WAT     H1 7098   0.412   4.448   4.710 -0.6813 -0.1593  0.7522
 1598WAT     H2 7099   0.438   4.528   4.818  0.9946  0.2321  0.0961
 1598WAT    EPW 7100   0.413   4.519   4.745 -0.1291  0.5776  0.3067
 1599WAT      O 7101   6.535   3.388   0.783  0.2569  0.0726 -0.3558
 1599WAT     H1 7102   6.593   3.454   0.775 -0.0970  0.3597 -0.5683
 1599WAT     H2 7103   6.475   3.421   0.836 -0.0508  0.0081 -0.6631
 1599WAT    EPW 7104   6.535   3.403   0.790 -0.3622  0.1387 -0.5311
 1600WAT      O 7105   6.026   2.301   3.427 -0.0103 -0.4484 -0.4540
 1600WAT     H1 7106   6.009   2.339   3.504  0.6105  0.1521 -0.6077
 1600WAT     H2 7107   6.023   2.216   3.446 -0.3195 -0.3181  0.1344
 1600WAT    EPW 7108   6.023   2.294   3.441  0.0780  0.2313 -0.7919
 1601WAT      O 7109   0.994   5.472   2.728  0.0603 -0.7543 -0.4116
 1601WAT     H1 7110   0.953   5.540   2.691 -2.1758 -1.8997 -0.2286
 1601WAT     H2 7111   1.013   5.421   2.660  2.1943  0.1961 -0.6044
 1601WAT    EPW 7112   0.991   5.475   2.712 -0.1889 -0.1455 -0.2579
 1602WAT      O 7113   7.638   7.980   8.005  0.4013  0.4068 -0.1042
 1602WAT     H1 7114   7.639   8.008   7.923  0.3282  1.9268  0.3850
 1602WAT     H2 7115   7.720   7.991   8.031  1.0821 -2.4487 -0.6743
 1602WAT    EPW 7116   7.650   7.986   7.997  0.2401  0.0363  0.2759
 1603WAT      O 7117   1.392   1.620   0.644 -0.6351  0.0861  0.2177
 1603WAT     H1 7118   1.327   1.568   0.618 -1.8980  0.8584  1.6559
 1603WAT     H2 7119   1.351   1.695   0.664  0.1389 -0.3688  4.2051
 1603WAT    EPW 7120   1.376   1.624   0.643  0.6139  0.4461 -0.0046
 1604WAT      O 7121   2.722   1.682   7.709  0.3601  0.2190  0.8902
 1604WAT     H1 7122   2.793   1.687   7.760  0.8323  0.0134  0.2701
 1604WAT     H2 7123   2.701   1.765   7.694  1.7887  0.3410 -0.6902
 1604WAT    EPW 7124   2.729   1.695   7.715  0.0717  0.1412 -0.1686
 1605WAT      O 7125   5.361   4.998   4.102  0.3477 -0.1351 -0.2124
 1605WAT     H1 7126   5.294   5.003   4.158  0.1008 -0.0793 -0.5041
 1605WAT     H2 7127   5.331   4.944   4.040  0.2977  0.4474 -0.7109
 1605WAT    EPW 7128   5.347   4.991   4.101  0.0945  0.6666  0.1601
 1606WAT      O 7129   4.364   4.409   2.719 -0.4684 -0.6113 -0.6067
 1606WAT     H1 7130   4.279   4.400   2.733 -0.2381 -1.6550  0.2370
 1606WAT     H2 7131   4.401   4.387   2.795  0.5161  1.3299 -0.4532
 1606WAT    EPW 7132   4.357   4.404   2.732  0.0985 -0.0993  0.1620
 1607WAT      O 7133   2.180   3.184   5.089  0.1942  0.3905 -0.1871
 1607WAT     H1 7134   2.148   3.232   5.023 -0.4947  0.3941  0.1379
 1607WAT     H2 7135   2.266   3.197   5.085  0.0350  1.4605 -0.2569
 1607WAT    EPW 7136   2.188   3.193   5.079 -0.3194  0.1315 -0.3031
 1608WAT      O 7137   6.806   7.159   4.437 -0.6866 -0.9508 -0.5369
 1608WAT     H1 7138   6.823   7.238   4.471  1.0970 -2.8445  3.7240
 1608WAT     H2 7139   6.880   7.138   4.396 -0.3227 -1.2001  0.2265
 1608WAT    EPW 7140   6.820   7.168   4.436  0.1608 -0.5104  0.3478
 1609WAT      O 7141   7.369   1.918   1.198  0.2237  0.4253  0.2208
 1609WAT     H1 7142   7.292   1.950   1.170  0.0111 -1.1264 -1.1676
 1609WAT     H2 7143   7.350   1.887   1.277 -0.9970 -1.0955 -0.5894
 1609WAT    EPW 7144   7.355   1.918   1.205  0.1022 -0.2804  0.6192
 1610WAT      O 7145   7.468   3.228   0.691 -0.4345  0.3262 -0.8261
 1610WAT     H1 7146   7.530   3.253   0.747 -1.0161  0.8911 -0.4105
 1610WAT     H2 7147   7.481   3.143   0.681 -1.1626 -0.0766  1.2542
 1610WAT    EPW 7148   7.479   3.219   0.698  0.1070  0.4200  0.2125
 1611WAT      O 7149   0.829   8.014   4.596 -0.0449  0.3819  0.3636
 1611WAT     H1 7150   0.841   8.082   4.649  0.2143  0.0693  0.7114
 1611WAT     H2 7151   0.865   8.040   4.521  0.3861  0.4905  0.6053
 1611WAT    EPW 7152   0.836   8.028   4.593  0.3559  0.0592 -0.0058
 1612WAT      O 7153   6.877   2.619   3.839 -0.3943  0.3534  0.0427
 1612WAT     H1 7154   6.840   2.635   3.917 -0.9369 -0.3286 -0.0573
 1612WAT     H2 7155   6.909   2.696   3.815 -2.3634  1.1867 -0.1614
 1612WAT    EPW 7156   6.876   2.632   3.847  0.1150 -0.2055 -0.0886
 1613WAT      O 7157   0.761   4.892   3.108  0.3537 -0.9810 -0.3783
 1613WAT     H1 7158   0.792   4.875   3.188 -0.2546 -0.1648  0.0512
 1613WAT     H2 7159   0.767   4.979   3.102  0.5950 -1.0588 -1.3124
 1613WAT    EPW 7160   0.766   4.902   3.119 -0.1086  0.1316 -0.4018
 1614WAT      O 7161   0.928   3.706   2.915  0.2725  0.5071  0.0201
 1614WAT     H1 7162   0.981   3.659   2.966 -0.2805  1.0951  1.1783
 1614WAT     H2 7163   0.955   3.788   2.927 -0.1635  0.6964 -0.2829
 1614WAT    EPW 7164   0.940   3.711   2.924  0.0623  0.1705  0.1487
 1615WAT      O 7165   0.102   4.162   3.733  0.3476  0.9579 -0.2255
 1615WAT     H1 7166   0.170   4.216   3.745  0.4807  0.6453  0.4858
 1615WAT     H2 7167   0.137   4.095   3.690  0.3905  1.0080 -0.2691
 1615WAT    EPW 7168   0.117   4.160   3.728 -0.1907 -0.2310  0.5004
 1616WAT      O 7169   1.132   6.589   4.891  0.4872 -0.0171  0.1722
 1616WAT     H1 7170   1.115   6.667   4.925  0.5829  2.3069 -4.4534
 1616WAT     H2 7171   1.053   6.551   4.885 -0.1257  1.3563 -0.8912
 1616WAT    EPW 7172   1.118   6.595   4.895  0.4177 -0.2654  0.5216
 1617WAT      O 7173   3.158   5.300   2.035  0.3070  0.1065 -0.0899
 1617WAT     H1 7174   3.191   5.330   2.110  0.5520 -0.0435 -0.1359
 1617WAT     H2 7175   3.073   5.288   2.053  0.3299  0.2423  0.1092
 1617WAT    EPW 7176   3.150   5.302   2.049 -0.5356 -0.0106  0.5041
 1618WAT      O 7177   7.204   7.791   0.143 -0.1787 -0.5224  0.2324
 1618WAT     H1 7178   7.141   7.798   0.083  0.5444 -1.3179 -0.6385
 1618WAT     H2 7179   7.257   7.858   0.125  0.6787 -1.4486 -0.8189
 1618WAT    EPW 7180   7.202   7.802   0.132 -0.6976 -0.4386 -0.2600
 1619WAT      O 7181   7.837   1.042   4.483 -0.0318 -0.2666  0.2069
 1619WAT     H1 7182   7.766   1.027   4.532 -1.0369 -0.5449 -1.2459
 1619WAT     H2 7183   7.840   1.129   4.479 -1.1832 -0.2476 -0.8813
 1619WAT    EPW 7184   7.827   1.053   4.490 -0.5261  0.2817 -0.4061
 1620WAT      O 7185   7.516   7.094   4.534 -0.3157 -0.2441 -0.2404
 1620WAT     H1 7186   7.599   7.123   4.530 -0.2178 -0.6116 -1.2134
 1620WAT     H2 7187   7.474   7.159   4.573  0.7765 -0.8930  2.2314
 1620WAT    EPW 7188   7.522   7.108   4.539 -0.2775 -0.0137  0.1948
 1621WAT      O 7189   5.616   4.810   3.378 -0.3136 -0.4755  0.4020
 1621WAT     H1 7190   5.563   4.809   3.447 -0.1312  2.1272  0.6983
 1621WAT     H2 7191   5.613   4.728   3.347 -2.6931 -0.9635  1.7434
 1621WAT    EPW 7192   5.608   4.798   3.384 -0.1287 -0.2259  0.3043
 1622WAT      O 7193   0.524   4.847   4.220  0.0031 -0.1579  0.3178
 1622WAT     H1 7194   0.464   4.802   4.175 -1.2249  1.7918 -0.1173
 1622WAT     H2 7195   0.543   4.914   4.168  2.5928 -0.6544  0.4750
 1622WAT    EPW 7196   0.518   4.850   4.206 -0.3483 -0.3980 -0.2140
 1623WAT      O 7197   7.738   1.387   2.872 -0.1914  0.2912 -0.0663
 1623WAT     H1 7198   7.773   1.341   2.807 -1.3710 -0.0533 -0.4780
 1623WAT     H2 7199   7.717   1.326   2.932 -1.8675  0.2194 -0.6623
 1623WAT    EPW 7200   7.740   1.371   2.871  0.1959 -0.0419  0.0471
 1624WAT      O 7201   5.965   0.839   7.951  0.1297 -0.4229 -0.0712
 1624WAT     H1 7202   5.967   0.755   7.931  0.9603 -1.3422  3.2098
 1624WAT     H2 7203   6.049   0.860   7.962 -0.0656  0.8704 -0.8287
 1624WAT    EPW 7204   5.977   0.830   7.950 -0.1909  0.0319 -0.6254
 1625WAT      O 7205   0.799   2.681   0.399  0.1858  0.4235 -0.2357
 1625WAT     H1 7206   0.812   2.663   0.483  0.0436 -1.5909 -0.5846
 1625WAT     H2 7207   0.716   2.708   0.396  0.3251  0.9290  0.3132
 1625WAT    EPW 7208   0.789   2.682   0.411 -0.1183 -0.0764 -0.3591
 1626WAT      O 7209   7.236   3.172   2.664 -0.1603  0.0244  0.2286
 1626WAT     H1 7210   7.289   3.131   2.720 -1.0967 -0.1496  1.0179
 1626WAT     H2 7211   7.249   3.256   2.681 -0.5769 -0.0329  0.8506
 1626WAT    EPW 7212   7.245   3.178   2.675  0.4960  0.2042 -0.2659
 1627WAT      O 7213   0.527   1.203   4.075  0.0658  0.1608 -0.0739
 1627WAT     H1 7214   0.447   1.170   4.079  0.4370 -0.9362 -1.2547
 1627WAT     H2 7215   0.515   1.288   4.091 -1.2080 -0.1278  0.6006
 1627WAT    EPW 7216   0.513   1.211   4.078 -0.4429  0.6376  0.6022
 1628WAT      O 7217   6.338   4.479   2.733  0.3347 -0.2245  0.4435
 1628WAT     H1 7218   6.353   4.565   2.743  1.1031  0.0237 -2.0947
 1628WAT     H2 7219   6.254   4.470   2.753  0.2151  1.1514  0.6544
 1628WAT    EPW 7220   6.328   4.491   2.737 -0.2225 -0.6262  0.7555
 1629WAT      O 7221   3.418   7.749   3.434 -0.7690 -0.1576 -0.0825
 1629WAT     H1 7222   3.415   7.675   3.386 -1.0226  0.4711 -1.0608
 1629WAT     H2 7223   3.486   7.736   3.486 -0.8541 -1.1227 -0.1864
 1629WAT    EPW 7224   3.427   7.736   3.434 -0.0382 -0.4865  0.2847
 1630WAT      O 7225   0.719   6.074   1.766 -0.1456  0.1487  0.4093
 1630WAT     H1 7226   0.740   6.046   1.687  1.7917  0.0032  0.9333
 1630WAT     H2 7227   0.637   6.104   1.756  0.8542  2.4200 -2.2474
 1630WAT    EPW 7228   0.710   6.074   1.753 -0.0348 -0.0313 -0.0423
 1631WAT      O 7229   5.242   1.671   8.064 -0.3501 -0.3551 -0.2706
 1631WAT     H1 7230   5.234   1.697   7.981 -0.9454 -2.0410 -0.7830
 1631WAT     H2 7231   5.161   1.644   8.084 -0.3757  0.6256  1.1004
 1631WAT    EPW 7232   5.229   1.671   8.055 -0.0329  0.4342 -0.3144
 1632WAT      O 7233   1.798   6.638   5.907  0.0909  0.3045 -0.4466
 1632WAT     H1 7234   1.763   6.704   5.861  0.9512  0.7647 -0.4413
 1632WAT     H2 7235   1.871   6.672   5.940  0.0931 -0.3965  0.2740
 1632WAT    EPW 7236   1.803   6.653   5.905  0.0722 -0.3362 -0.5695
 1633WAT      O 7237   0.791   7.575   4.047  0.0375  0.6384  0.0136
 1633WAT     H1 7238   0.849   7.614   3.994 -0.8941 -0.1916 -1.7039
 1633WAT     H2 7239   0.832   7.501   4.070  0.2149  0.7276 -0.0072
 1633WAT    EPW 7240   0.806   7.570   4.042  0.0246  0.5285  0.3076
 1634WAT      O 7241   0.162   6.550   1.469 -0.1498  0.0187 -0.0472
 1634WAT     H1 7242   0.165   6.507   1.545 -1.4924 -0.4462 -0.2197
 1634WAT     H2 7243   0.159   6.634   1.493 -1.1643 -0.1443  0.4662
 1634WAT    EPW 7244   0.162   6.556   1.484  0.1189 -0.1524 -0.2677
 1635WAT      O 7245   6.263   3.715   7.289 -0.0841  0.2928  0.2370
 1635WAT     H1 7246   6.180   3.725   7.314 -0.6768 -1.0275 -1.0616
 1635WAT     H2 7247   6.259   3.651   7.230  1.8704  0.1904  0.1538
 1635WAT    EPW 7248   6.250   3.707   7.284 -0.3839  0.4442 -0.4144
 1636WAT      O 7249   4.339   1.151   3.026 -0.2467 -0.2235 -0.0184
 1636WAT     H1 7250   4.296   1.145   3.102 -0.1849  1.5227  0.2089
 1636WAT     H2 7251   4.347   1.069   3.000  0.3616 -0.9589  2.2324
 1636WAT    EPW 7252   4.334   1.138   3.033 -0.1022 -0.1244  0.1647
 1637WAT      O 7253   2.874   1.456   0.231 -0.8827 -0.2148 -0.0063
 1637WAT     H1 7254   2.837   1.459   0.310  0.2546 -0.0396  0.5490
 1637WAT     H2 7255   2.877   1.539   0.206 -1.5175 -0.3008 -0.3710
 1637WAT    EPW 7256   2.869   1.468   0.239 -0.3337 -0.6928  0.2271
 1638WAT      O 7257   0.166   3.087   0.401 -0.1077 -0.0057  0.2010
 1638WAT     H1 7258   0.191   3.105   0.483  1.4989  1.0196 -0.4657
 1638WAT     H2 7259   0.133   3.162   0.373 -1.2452 -0.5272  0.0728
 1638WAT    EPW 7260   0.165   3.101   0.409  0.2196  0.0671 -0.2110
 1639WAT      O 7261   1.109   1.536   2.579  0.1108  0.4054  0.1586
 1639WAT     H1 7262   1.150   1.479   2.631  0.0088 -0.3556 -0.5696
 1639WAT     H2 7263   1.062   1.585   2.635  1.5011  0.8921  0.9502
 1639WAT    EPW 7264   1.108   1.535   2.595  0.1379  0.4119  0.1255
 1640WAT      O 7265   7.060   7.787   0.676 -0.3253 -0.0710  0.2065
 1640WAT     H1 7266   7.109   7.805   0.606 -1.2212  1.9142  0.0219
 1640WAT     H2 7267   6.996   7.737   0.645 -1.1243  1.3865 -0.6101
 1640WAT    EPW 7268   7.058   7.783   0.661  0.5436  0.2173 -0.3866
 1641WAT      O 7269   5.980   3.632   0.800  0.0895  0.1429  0.0755
 1641WAT     H1 7270   6.044   3.670   0.754  0.3491 -0.0677  0.2600
 1641WAT     H2 7271   5.935   3.587   0.740  0.7280 -0.5405  0.1028
 1641WAT    EPW 7272   5.983   3.631   0.784  0.0547  0.7300 -0.2549
 1642WAT      O 7273   0.719   7.580   1.525  0.1464  0.5446  0.5835
 1642WAT     H1 7274   0.643   7.542   1.547  0.1667  1.0462  1.6056
 1642WAT     H2 7275   0.742   7.624   1.598  0.6974  1.5675 -0.1698
 1642WAT    EPW 7276   0.711   7.581   1.539  0.0001 -0.5100 -0.1047
 1643WAT      O 7277   2.664   4.035   4.869 -0.0617 -0.1894 -0.4172
 1643WAT     H1 7278   2.694   3.989   4.802  1.4358  0.4441 -0.2282
 1643WAT     H2 7279   2.733   4.083   4.894 -0.9330  0.5206  0.7709
 1643WAT    EPW 7280   2.679   4.036   4.863 -0.0182 -0.0397  0.1217
 1644WAT      O 7281   7.551   1.796   2.859 -0.5618 -0.6138 -0.3935
 1644WAT     H1 7282   7.560   1.794   2.945 -2.0976 -0.4878 -0.2009
 1644WAT     H2 7283   7.510   1.721   2.841 -0.4896 -0.5194 -0.9751
 1644WAT    EPW 7284   7.546   1.785   2.869 -0.0881  0.2649  0.1332
 1645WAT      O 7285   3.139   1.621   2.515  0.3243  0.1249 -0.4206
 1645WAT     H1 7286   3.221   1.614   2.487 -0.3427 -1.6434 -2.0924
 1645WAT     H2 7287   3.092   1.629   2.442 -1.1572 -0.7776  0.3772
 1645WAT    EPW 7288   3.144   1.621   2.500  0.3282  0.6678  0.2942
 1646WAT      O 7289   7.163   1.253   4.909  0.3862  0.3191  0.2598
 1646WAT     H1 7290   7.092   1.246   4.959  2.6757 -1.4636  3.6327
 1646WAT     H2 7291   7.176   1.339   4.903 -1.7116  0.6635 -0.0167
 1646WAT    EPW 7292   7.155   1.264   4.915  0.2622  0.2694 -0.0645
 1647WAT      O 7293   3.310   0.372   0.742  0.2177 -0.0063 -0.8751
 1647WAT     H1 7294   3.260   0.356   0.811  0.9950 -0.9762 -0.5106
 1647WAT     H2 7295   3.301   0.458   0.729 -0.4896  0.0607 -0.0123
 1647WAT    EPW 7296   3.301   0.382   0.750 -0.5321  0.1393 -0.2665
 1648WAT      O 7297   0.523   5.672   3.577  0.0501  0.1131 -0.2840
 1648WAT     H1 7298   0.587   5.716   3.616 -0.2962 -0.8330  1.4666
 1648WAT     H2 7299   0.455   5.727   3.578  0.2007  0.2946 -0.0204
 1648WAT    EPW 7300   0.522   5.686   3.583 -0.1146 -0.1460  1.1700
 1649WAT      O 7301   3.587   3.531   2.547 -0.0011  0.2632  0.0343
 1649WAT     H1 7302   3.530   3.589   2.514  0.9542  0.6225 -1.0381
 1649WAT     H2 7303   3.644   3.581   2.590 -0.4621 -0.0982  1.1098
 1649WAT    EPW 7304   3.587   3.547   2.549  0.1007  0.0243  0.3477
 1650WAT      O 7305   0.865   7.810   2.853 -0.1459  0.0670  0.2121
 1650WAT     H1 7306   0.939   7.764   2.858  0.4389  0.9221 -0.2554
 1650WAT     H2 7307   0.826   7.796   2.930  1.0735  0.5334  0.9488
 1650WAT    EPW 7308   0.870   7.801   2.865 -0.0492  0.5550 -0.3147
 1651WAT      O 7309   1.336   3.846   5.219  0.3309  0.4216  0.1100
 1651WAT     H1 7310   1.382   3.918   5.235  1.8681 -0.4713 -0.1374
 1651WAT     H2 7311   1.396   3.783   5.215 -0.8413 -0.6932 -0.9450
 1651WAT    EPW 7312   1.352   3.847   5.221 -0.4767 -0.2470  0.2745
 1652WAT      O 7313   7.953   1.651   3.248  0.1910  0.3829 -0.0546
 1652WAT     H1 7314   7.960   1.650   3.161  0.2131 -0.2253 -0.0491
 1652WAT     H2 7315   7.902   1.582   3.265 -0.0649  0.6783  0.3952
 1652WAT    EPW 7316   7.946   1.641   3.238 -0.0145  0.8496  0.1379
 1653WAT      O 7317   7.851   7.702   4.217  1.0267 -0.2522  0.3385
 1653WAT     H1 7318   7.832   7.739   4.294  2.0667 -2.0204  1.5058
 1653WAT     H2 7319   7.931   7.731   4.199  0.5718  0.6007 -0.3991
 1653WAT    EPW 7320   7.860   7.711   4.226 -0.0479 -0.4686  0.4502
 1654WAT      O 7321   5.927   4.985   6.439 -0.3210 -0.5551  0.4496
 1654WAT     H1 7322   5.840   4.991   6.427 -0.2370 -1.1051 -0.5797
 1654WAT     H2 7323   5.934   4.933   6.509 -0.8272 -0.9698  0.2007
 1654WAT    EPW 7324   5.915   4.978   6.447 -0.1531  0.4093 -0.2536
 1655WAT      O 7325   3.589   5.304   2.333  0.0396  0.0095 -0.6076
 1655WAT     H1 7326   3.635   5.318   2.406 -1.0672  0.2633  0.0716
 1655WAT     H2 7327   3.567   5.220   2.337  0.1662 -0.0319 -0.7632
 1655WAT    EPW 7328   3.593   5.294   2.344  0.4007 -0.7970 -0.4343
 1656WAT      O 7329   7.035   7.093   3.330 -0.4192  0.1196  0.5925
 1656WAT     H1 7330   7.032   7.136   3.254  1.0693 -0.8674 -0.0750
 1656WAT     H2 7331   7.114   7.056   3.329  0.1573  1.0944  3.1939
 1656WAT    EPW 7332   7.047   7.094   3.318 -0.4813 -0.1039 -0.2430
 1657WAT      O 7333   6.657   2.448   4.543 -0.1228  0.2609  0.1798
 1657WAT     H1 7334   6.612   2.385   4.503  1.3192 -1.9984  1.8813
 1657WAT     H2 7335   6.715   2.472   4.483  0.1512 -0.9827 -0.0893
 1657WAT    EPW 7336   6.659   2.442   4.528  0.0885  0.1630  0.0866
 1658WAT      O 7337   1.529   3.061   3.206  0.0405  0.3540 -0.7453
 1658WAT     H1 7338   1.579   2.990   3.197  0.9088  0.8406  0.0958
 1658WAT     H2 7339   1.586   3.125   3.220 -0.8514  0.7013  1.7412
 1658WAT    EPW 7340   1.544   3.060   3.207 -0.0255  0.0472 -0.3086
 1659WAT      O 7341   1.890   6.442   1.778 -0.1387 -0.0887 -0.2473
 1659WAT     H1 7342   1.822   6.483   1.814 -0.3725  0.7505 -1.5777
 1659WAT     H2 7343   1.936   6.506   1.741  0.5977 -0.8024 -0.6043
 1659WAT    EPW 7344   1.886   6.458   1.778  0.4170  0.1535 -0.3401
 1660WAT      O 7345   6.815   1.271   4.356  0.1608  0.2097  0.1812
 1660WAT     H1 7346   6.748   1.215   4.354  1.3811 -1.3588  0.9026
 1660WAT     H2 7347   6.880   1.227   4.319  0.9942  1.4219  0.1514
 1660WAT    EPW 7348   6.815   1.256   4.350 -0.5617 -0.6120 -0.0570
 1661WAT      O 7349   7.491   3.043   1.788  0.0777 -0.1794 -0.1482
 1661WAT     H1 7350   7.504   3.129   1.789  0.3714 -0.0600 -3.1689
 1661WAT     H2 7351   7.405   3.036   1.773 -0.2961 -0.5223  1.8938
 1661WAT    EPW 7352   7.480   3.055   1.786 -0.3179  0.3987 -0.7960
 1662WAT      O 7353   2.808   1.778   5.409 -0.0137 -0.1723  0.2872
 1662WAT     H1 7354   2.782   1.802   5.329  0.4956  0.6031  0.3455
 1662WAT     H2 7355   2.886   1.815   5.418  0.8084 -1.8198  0.4243
 1662WAT    EPW 7356   2.815   1.787   5.399 -0.0879 -0.2781  0.0491
 1663WAT      O 7357   7.358   7.781   1.637 -0.1213  0.2949  0.4082
 1663WAT     H1 7358   7.417   7.723   1.608 -0.2875 -0.0856  0.8277
 1663WAT     H2 7359   7.342   7.755   1.719 -1.5714 -0.1800  0.0099
 1663WAT    EPW 7360   7.365   7.768   1.645 -0.0243 -0.2772 -0.2720
 1664WAT      O 7361   7.312   2.428   0.390 -0.3852 -0.5251  0.2369
 1664WAT     H1 7362   7.375   2.421   0.450 -0.8659 -0.6343  0.7455
 1664WAT     H2 7363   7.249   2.470   0.432 -0.4429  0.0821 -0.4429
 1664WAT    EPW 7364   7.312   2.433   0.405  0.0784  0.4979  0.2039
 1665WAT      O 7365   1.781   7.138   6.625 -0.1742  0.0375  0.5630
 1665WAT     H1 7366   1.816   7.112   6.701  0.9190  2.0746  0.8340
 1665WAT     H2 7367   1.794   7.225   6.625 -1.8711  0.3631 -1.0985
 1665WAT    EPW 7368   1.788   7.147   6.636 -0.1546 -0.3885  0.0353
 1666WAT      O 7369   0.954   1.651   1.337  0.1397 -0.3048 -0.1448
 1666WAT     H1 7370   0.898   1.654   1.404  1.4934  0.3935  1.0089
 1666WAT     H2 7371   0.904   1.669   1.268 -0.9448  1.0717  0.9286
 1666WAT    EPW 7372   0.938   1.655   1.336  0.1602  0.9378 -0.5572
 1667WAT      O 7373   1.967   2.842   3.882  0.3400  0.1573  0.3267
 1667WAT     H1 7374   2.030   2.896   3.858  0.6543 -0.3799 -0.0966
 1667WAT     H2 7375   1.968   2.781   3.820 -0.7477  0.2626  0.1905
 1667WAT    EPW 7376   1.976   2.841   3.870  0.1112  0.1254 -0.3946
 1668WAT      O 7377   1.794   2.298   4.813  0.2882 -0.3546  0.0496
 1668WAT     H1 7378   1.709   2.281   4.807  0.2708  0.0163 -0.9167
 1668WAT     H2 7379   1.830   2.220   4.826  0.1170 -1.0890 -3.1426
 1668WAT    EPW 7380   1.787   2.284   4.814 -0.0647  0.7737  0.1679
 1669WAT      O 7381   5.953   2.615   2.604  0.0988 -0.2195  0.0877
 1669WAT     H1 7382   6.026   2.581   2.637  0.0109 -0.7026 -0.2019
 1669WAT     H2 7383   5.972   2.627   2.520  0.4438  1.3435  0.3490
 1669WAT    EPW 7384   5.966   2.612   2.596  0.8496  0.3637 -0.2645
 1670WAT      O 7385   0.218   1.513   0.913 -0.3337  0.3575  0.8828
 1670WAT     H1 7386   0.279   1.568   0.883 -1.3392  1.6162  1.0434
 1670WAT     H2 7387   0.168   1.564   0.964 -2.7509 -0.0694 -0.8417
 1670WAT    EPW 7388   0.219   1.529   0.916 -0.1599 -0.1721 -0.3549
 1671WAT      O 7389   2.682   2.024   1.430  0.3603 -0.1871  0.8280
 1671WAT     H1 7390   2.689   2.080   1.495  0.4568 -0.3700  0.9749
 1671WAT     H2 7391   2.677   1.946   1.469  1.4386 -0.3945  0.5889
 1671WAT    EPW 7392   2.682   2.021   1.445 -0.0800 -1.3940 -0.1226
 1672WAT      O 7393   0.694   0.788   0.289 -0.0541  0.3201  0.3259
 1672WAT     H1 7394   0.751   0.853   0.277 -0.2297  0.1861 -1.3448
 1672WAT     H2 7395   0.692   0.747   0.212 -1.6171 -0.3113  0.6712
 1672WAT    EPW 7396   0.702   0.792   0.276  0.1176 -0.0689  0.1365
 1673WAT      O 7397   2.532   4.868   2.873  0.3299 -0.4194  0.0610
 1673WAT     H1 7398   2.558   4.951   2.869  0.1341 -0.1576  2.5815
 1673WAT     H2 7399   2.499   4.853   2.793  1.1565  1.6322 -0.7288
 1673WAT    EPW 7400   2.531   4.878   2.861  0.0405 -0.6448  0.1795
 1674WAT      O 7401   3.524   1.165   6.022  0.0824 -0.1190  0.0779
 1674WAT     H1 7402   3.475   1.237   6.014 -0.5998 -0.0974  3.0777
 1674WAT     H2 7403   3.491   1.126   6.093  1.8292 -2.2573 -0.1903
 1674WAT    EPW 7404   3.512   1.170   6.032 -0.0871  0.1007 -0.0830
 1675WAT      O 7405   5.721   1.344   6.217 -0.0717 -0.2012 -0.3898
 1675WAT     H1 7406   5.758   1.287   6.163 -0.5159 -1.4641  0.5876
 1675WAT     H2 7407   5.638   1.348   6.191 -0.5814 -1.7298  0.8836
 1675WAT    EPW 7408   5.714   1.336   6.205  0.6122 -0.3276 -0.0165
 1676WAT      O 7409   2.022   2.385   6.198  0.0341 -0.2586 -0.2806
 1676WAT     H1 7410   2.105   2.364   6.216  0.4883  1.5423 -0.1265
 1676WAT     H2 7411   1.980   2.371   6.273  0.1697 -1.1950 -0.3658
 1676WAT    EPW 7412   2.028   2.380   6.211 -0.2055  0.2590  0.5400
 1677WAT      O 7413   2.259   2.463   0.520  0.4639 -0.3614 -0.2027
 1677WAT     H1 7414   2.225   2.382   0.526 -1.1267  0.3660  1.7258
 1677WAT     H2 7415   2.295   2.475   0.598  3.6345 -0.3432 -1.5527
 1677WAT    EPW 7416   2.259   2.453   0.532 -0.8557  0.0139  0.2104
 1678WAT      O 7417   0.221   5.187   7.993 -0.3482 -0.1901 -0.0849
 1678WAT     H1 7418   0.204   5.267   8.022  1.4506  0.4807 -0.7262
 1678WAT     H2 7419   0.162   5.175   7.930 -0.7580  0.5417  0.1485
 1678WAT    EPW 7420   0.210   5.197   7.988  0.0055  0.0610  0.5090
 1679WAT      O 7421   6.987   4.551   0.679 -0.0574  0.1554  0.5633
 1679WAT     H1 7422   7.023   4.481   0.718  1.8721  0.3888 -0.6343
 1679WAT     H2 7423   6.954   4.519   0.606  1.8677  0.5850 -0.5668
 1679WAT    EPW 7424   6.988   4.536   0.674 -0.4265  0.5715  0.0099
 1680WAT      O 7425   7.180   3.339   0.027 -0.2300 -0.4893  0.6956
 1680WAT     H1 7426   7.215   3.369   0.101 -0.3658 -2.6503  1.7177
 1680WAT     H2 7427   7.227   3.268   0.009  1.6031  1.3699 -2.9023
 1680WAT    EPW 7428   7.192   3.333   0.035  0.0802  0.4148 -0.1184
 1681WAT      O 7429   0.551   3.708   2.885 -0.1789 -0.2204 -0.4105
 1681WAT     H1 7430   0.502   3.653   2.839  0.1780 -0.3363 -0.6605
 1681WAT     H2 7431   0.556   3.778   2.833 -0.0506 -0.2249 -0.4042
 1681WAT    EPW 7432   0.545   3.710   2.870 -0.7171 -0.8593 -0.4255
 1682WAT      O 7433   2.740   3.011   1.702 -0.2252  0.4590  0.1590
 1682WAT     H1 7434   2.670   3.059   1.685  0.5639  2.0748  1.2002
 1682WAT     H2 7435   2.727   2.938   1.655 -2.0910  1.1197 -0.4424
 1682WAT    EPW 7436   2.728   3.007   1.693 -0.3878  0.0422 -0.5206
 1683WAT      O 7437   7.482   3.367   4.784 -0.3103  0.5523 -0.1812
 1683WAT     H1 7438   7.487   3.281   4.771 -0.7393  0.1849  1.6908
 1683WAT     H2 7439   7.399   3.379   4.809  0.3255  1.0688  1.9216
 1683WAT    EPW 7440   7.471   3.356   4.786 -0.1313 -0.2069 -0.0553
 1684WAT      O 7441   4.540   7.186   2.123  0.8907  0.1272  0.1261
 1684WAT     H1 7442   4.580   7.222   2.054  1.2475  1.4600  0.9927
 1684WAT     H2 7443   4.602   7.136   2.158  0.0108 -2.6748 -1.8702
 1684WAT    EPW 7444   4.555   7.184   2.118  0.2062  0.2674  0.1257
 1685WAT      O 7445   5.380   3.586   6.221 -0.0995 -0.1826 -0.3713
 1685WAT     H1 7446   5.460   3.554   6.234  0.3752  0.3726 -1.7227
 1685WAT     H2 7447   5.328   3.516   6.230  0.7128 -0.9146 -1.2095
 1685WAT    EPW 7448   5.384   3.571   6.224 -0.2837 -0.0548 -0.0472
 1686WAT      O 7449   4.695   2.577   1.456 -0.1239  0.0903 -0.0734
 1686WAT     H1 7450   4.665   2.569   1.375 -2.4205  0.8035  0.6114
 1686WAT     H2 7451   4.641   2.527   1.503  2.5354 -2.1788  0.8364
 1686WAT    EPW 7452   4.682   2.568   1.451 -0.1792 -0.4017  0.4017
 1687WAT      O 7453   5.651   4.275   2.243  0.8586  0.3333 -0.0298
 1687WAT     H1 7454   5.618   4.262   2.163  0.9827  0.4684 -0.1041
 1687WAT     H2 7455   5.592   4.238   2.296  2.2514 -2.6374 -0.3308
 1687WAT    EPW 7456   5.637   4.267   2.239  0.4852  0.0962  0.0531
 1688WAT      O 7457   7.339   3.669   0.181  0.6523  0.7779  0.0353
 1688WAT     H1 7458   7.418   3.637   0.162  0.3305 -0.2735  0.4007
 1688WAT     H2 7459   7.294   3.659   0.107  0.0759 -1.1778  0.6003
 1688WAT    EPW 7460   7.344   3.663   0.167 -0.2753  0.0634 -0.8386
 1689WAT      O 7461   4.975   3.748   6.907  0.2593  0.0095  0.8083
 1689WAT     H1 7462   4.915   3.803   6.876  0.3193  0.5322  1.6046
 1689WAT     H2 7463   5.043   3.760   6.854  0.4653  1.1086  1.2861
 1689WAT    EPW 7464   4.976   3.758   6.895 -0.0765  0.1223  0.3964
 1690WAT      O 7465   7.885   1.263   3.512 -0.0361 -0.0143  0.2551
 1690WAT     H1 7466   7.924   1.309   3.575  2.4143  1.2509 -1.9825
 1690WAT     H2 7467   7.862   1.323   3.454  0.1125 -1.3066 -1.2024
 1690WAT    EPW 7468   7.888   1.279   3.513  0.5302 -0.0873  0.2533
 1691WAT      O 7469   5.167   1.102   0.584  0.1005  0.3395  0.0395
 1691WAT     H1 7470   5.152   1.139   0.506  0.5911 -1.2411 -0.8568
 1691WAT     H2 7471   5.226   1.155   0.621  1.1745  0.2212 -1.4118
 1691WAT    EPW 7472   5.173   1.116   0.578  0.1883 -0.3833  0.2089
 1692WAT      O 7473   5.263   0.204   7.834  0.5534  0.0649  0.2183
 1692WAT     H1 7474   5.340   0.238   7.810  0.4164 -0.4417 -1.0081
 1692WAT     H2 7475   5.285   0.131   7.877  0.8263  1.3101  2.3485
 1692WAT    EPW 7476   5.277   0.198   7.837 -0.3633 -0.5375 -0.1626
 1693WAT      O 7477   6.347   2.843   7.355 -0.1082 -0.4457 -0.3764
 1693WAT     H1 7478   6.376   2.813   7.431  0.6172 -0.7220 -0.7499
 1693WAT     H2 7479   6.415   2.888   7.324 -1.1769  1.7292  0.2172
 1693WAT    EPW 7480   6.361   2.845   7.362  0.1415  0.0489 -0.3196
 1694WAT      O 7481   0.980   2.195   1.978  0.6450 -0.1092  0.2605
 1694WAT     H1 7482   1.064   2.213   1.994  0.3183 -0.4798  2.7095
 1694WAT     H2 7483   0.940   2.216   2.052 -1.6598  1.1397 -1.2029
 1694WAT    EPW 7484   0.987   2.201   1.991  0.0668  0.0845 -0.1934
 1695WAT      O 7485   1.834   1.692   0.405  0.1712  0.7422  0.2196
 1695WAT     H1 7486   1.900   1.647   0.369 -0.1997 -1.2466  1.7935
 1695WAT     H2 7487   1.774   1.694   0.342  0.3821 -0.6694 -0.0739
 1695WAT    EPW 7488   1.834   1.685   0.390  0.1419  0.0982  0.0029
 1696WAT      O 7489   3.605   3.607   6.843  0.0005 -0.5072  0.1972
 1696WAT     H1 7490   3.601   3.668   6.780  2.1614 -1.0790 -0.5825
 1696WAT     H2 7491   3.596   3.532   6.800 -0.0059 -0.8428  0.7736
 1696WAT    EPW 7492   3.603   3.605   6.827 -0.0530 -0.2023  0.9539
 1697WAT      O 7493   2.644   7.135   0.707 -0.2710 -0.7509 -0.1226
 1697WAT     H1 7494   2.713   7.088   0.682 -0.1495 -0.7310  0.1676
 1697WAT     H2 7495   2.664   7.216   0.681  0.8318 -0.3140  1.8743
 1697WAT    EPW 7496   2.658   7.140   0.700 -0.5413  0.4829 -0.8094
 1698WAT      O 7497   7.085   4.614   3.891 -0.6202 -0.2820 -0.8997
 1698WAT     H1 7498   7.070   4.541   3.936 -0.6469 -1.4119 -2.6377
 1698WAT     H2 7499   7.166   4.637   3.915 -1.0694 -0.1625  0.5720
 1698WAT    EPW 7500   7.095   4.607   3.901 -0.5124 -0.1908 -0.4824
 1699WAT      O 7501   7.483   2.222   4.449  0.7820 -0.0003 -0.1294
 1699WAT     H1 7502   7.455   2.301   4.426  1.1100 -0.0749 -0.8410
 1699WAT     H2 7503   7.461   2.215   4.533  0.8537  0.8921 -0.0245
 1699WAT    EPW 7504   7.476   2.233   4.458  0.2585  0.4391 -0.2914
 1700WAT      O 7505   1.816   0.609   0.525  0.3837 -0.1578  0.2726
 1700WAT     H1 7506   1.892   0.610   0.482 -0.0820 -1.2331 -0.6504
 1700WAT     H2 7507   1.827   0.668   0.588  1.0733  1.5728 -1.3721
 1700WAT    EPW 7508   1.829   0.618   0.528  0.1934 -0.4794 -0.0647
 1701WAT      O 7509   5.221   1.431   7.487 -0.5797 -0.1848  0.2368
 1701WAT     H1 7510   5.168   1.498   7.470  0.0922  1.1239  2.7740
 1701WAT     H2 7511   5.167   1.364   7.498 -1.5901  0.7302  1.0604
 1701WAT    EPW 7512   5.205   1.431   7.486  0.2581  0.0167  0.1493
 1702WAT      O 7513   7.877   4.774   2.505 -0.3674  0.2708  0.1353
 1702WAT     H1 7514   7.911   4.839   2.552 -1.2424  0.2666  0.8052
 1702WAT     H2 7515   7.910   4.786   2.425 -2.1323  2.8147 -0.3148
 1702WAT    EPW 7516   7.887   4.785   2.500 -0.2562 -0.0163  0.2264
 1703WAT      O 7517   4.739   1.850   2.506  0.2097 -0.1044 -0.2006
 1703WAT     H1 7518   4.793   1.894   2.454 -0.6684 -0.1362 -1.1676
 1703WAT     H2 7519   4.738   1.770   2.472 -0.6276 -0.0392 -0.3620
 1703WAT    EPW 7520   4.747   1.845   2.493  0.0794  0.4998 -0.0769
 1704WAT      O 7521   0.637   0.659   0.910  0.2956  0.2972  0.1654
 1704WAT     H1 7522   0.575   0.653   0.849  0.7496 -1.0003 -0.2016
 1704WAT     H2 7523   0.708   0.628   0.871  0.9525  0.8190  0.8982
 1704WAT    EPW 7524   0.638   0.653   0.896 -0.1132  0.2127 -0.8006
 1705WAT      O 7525   6.061   3.170   1.201  0.0012 -0.4886  0.2357
 1705WAT     H1 7526   6.140   3.156   1.236  0.2172  1.3478  0.6315
 1705WAT     H2 7527   6.033   3.242   1.242 -1.0670 -0.0178 -1.2131
 1705WAT    EPW 7528   6.069   3.179   1.212 -0.5659  0.2468  0.3007
 1706WAT      O 7529   0.736   5.880   2.302  0.2193  0.0501  0.2983
 1706WAT     H1 7530   0.805   5.886   2.356  0.4808  0.9391 -0.1060
 1706WAT     H2 7531   0.768   5.837   2.233  0.3699  0.4317  0.1256
 1706WAT    EPW 7532   0.751   5.875   2.300 -0.4238  0.5732 -0.5983
 1707WAT      O 7533   2.167   7.122   2.272  0.3116  0.2771  0.1034
 1707WAT     H1 7534   2.089   7.094   2.300  0.6060 -0.0656  0.5744
 1707WAT     H2 7535   2.216   7.124   2.344  0.5324  1.2239 -0.0588
 1707WAT    EPW 7536   2.162   7.118   2.286 -0.9038 -0.2708  0.1716
 1708WAT      O 7537   3.894   0.605   1.071 -0.0046  0.6409  0.8540
 1708WAT     H1 7538   3.946   0.543   1.103 -0.8520 -0.3307  0.3964
 1708WAT     H2 7539   3.847   0.630   1.141 -0.4514 -0.0509  0.8118
 1708WAT    EPW 7540   3.895   0.600   1.086 -0.4566  0.2926  0.6936
 1709WAT      O 7541   4.794   6.665   6.170 -0.3062  0.3195  0.2519
 1709WAT     H1 7542   4.871   6.649   6.132 -1.6276 -0.3251 -2.3355
 1709WAT     H2 7543   4.755   6.587   6.172 -1.0362  0.6901  1.2421
 1709WAT    EPW 7544   4.800   6.651   6.165 -0.2560  0.0580  0.1317
 1710WAT      O 7545   4.392   2.531   6.437  0.5155  0.6051 -0.2973
 1710WAT     H1 7546   4.316   2.512   6.475  0.6722 -0.4742 -0.5020
 1710WAT     H2 7547   4.406   2.464   6.384  2.1361  0.2239  0.5494
 1710WAT    EPW 7548   4.383   2.519   6.435 -0.1844 -0.1455  0.2489
 1711WAT      O 7549   5.582   4.791   3.922 -0.0379  0.0277  0.1222
 1711WAT     H1 7550   5.591   4.876   3.902  2.5185 -0.2338 -0.1737
 1711WAT     H2 7551   5.551   4.756   3.848 -1.8073  0.7569  0.4703
 1711WAT    EPW 7552   5.579   4.799   3.908  0.7253  0.0332  0.5455
 1712WAT      O 7553   7.182   1.738   0.876  0.1299  0.3597 -0.1959
 1712WAT     H1 7554   7.177   1.734   0.789 -0.0286 -1.1359 -0.1399
 1712WAT     H2 7555   7.216   1.661   0.898 -2.2218 -0.3673  1.2194
 1712WAT    EPW 7556   7.186   1.726   0.866  0.1780 -0.5804  0.4458
 1713WAT      O 7557   2.184   2.657   5.407 -0.1492 -0.8644 -0.5345
 1713WAT     H1 7558   2.162   2.706   5.338  0.9060 -1.0496 -1.0110
 1713WAT     H2 7559   2.171   2.711   5.475  1.8649  0.4421 -1.1001
 1713WAT    EPW 7560   2.179   2.672   5.407 -0.4953 -0.0510  0.6404
 1714WAT      O 7561   7.386   2.132   2.281 -0.0755 -1.0234  0.5784
 1714WAT     H1 7562   7.332   2.175   2.335  0.0530  0.0526 -0.1279
 1714WAT     H2 7563   7.465   2.148   2.314  0.0197 -0.1765 -0.0529
 1714WAT    EPW 7564   7.390   2.141   2.294  0.7507  0.0089 -0.1044
 1715WAT      O 7565   7.530   3.756   1.481  0.1819 -0.4564  0.1775
 1715WAT     H1 7566   7.577   3.724   1.415  1.4170  1.4281  0.0738
 1715WAT     H2 7567   7.587   3.762   1.547 -0.6184 -0.6988  0.9213
 1715WAT    EPW 7568   7.545   3.752   1.481 -0.9454  0.0437  0.6428
 1716WAT      O 7569   4.832   5.403   3.392 -0.4463 -0.1247 -0.2519
 1716WAT     H1 7570   4.761   5.435   3.431  0.3869  1.2964  0.1473
 1716WAT     H2 7571   4.852   5.333   3.440 -1.2384 -0.1952 -0.0221
 1716WAT    EPW 7572   4.825   5.397   3.405  0.1231  0.4723 -0.7726
 1717WAT      O 7573   6.708   3.844   7.996 -0.0538 -0.2203 -0.1104
 1717WAT     H1 7574   6.707   3.762   8.023  1.8284  0.2963  1.7447
 1717WAT     H2 7575   6.793   3.862   7.988 -0.4314  0.7941 -3.0601
 1717WAT    EPW 7576   6.720   3.835   7.999 -0.0127  0.0256  0.3434
 1718WAT      O 7577   6.744   7.157   0.723  0.0006 -0.6099  0.1838
 1718WAT     H1 7578   6.758   7.241   0.707 -1.2420 -0.2203  0.9429
 1718WAT     H2 7579   6.719   7.124   0.646  0.7682 -0.3501 -0.1757
 1718WAT    EPW 7580   6.742   7.164   0.709 -0.1218 -0.3385  0.0659
 1719WAT      O 7581   2.343   0.978   7.544  0.4826 -0.7930  0.3534
 1719WAT     H1 7582   2.329   0.959   7.460  1.4897 -0.1961  0.0453
 1719WAT     H2 7583   2.342   0.899   7.583  1.9179 -1.2755 -0.5078
 1719WAT    EPW 7584   2.341   0.963   7.537  0.4381 -0.5584 -0.8836
 1720WAT      O 7585   4.489   1.876   6.393  0.1537  1.1591  0.4252
 1720WAT     H1 7586   4.445   1.807   6.364 -0.6387  1.9403 -0.2453
 1720WAT     H2 7587   4.566   1.869   6.353  0.1648  0.5381  0.5444
 1720WAT    EPW 7588   4.494   1.865   6.383 -0.2704  0.7581  0.6081
 1721WAT      O 7589   0.454   0.249   3.417  0.2130 -0.3132 -0.6375
 1721WAT     H1 7590   0.464   0.246   3.330  1.3369  2.3106 -0.7164
 1721WAT     H2 7591   0.404   0.319   3.429 -0.3408 -0.9364  0.8309
 1721WAT    EPW 7592   0.448   0.259   3.406  0.4261  0.3810 -0.3850
 1722WAT      O 7593   4.402   4.344   5.207  0.0716 -0.1598  0.6290
 1722WAT     H1 7594   4.439   4.407   5.159 -1.2196 -0.1660 -0.4298
 1722WAT     H2 7595   4.333   4.384   5.243 -0.2083 -0.7186  0.7187
 1722WAT    EPW 7596   4.398   4.360   5.205  0.1882  0.0761  0.3835
 1723WAT      O 7597   1.766   6.390   5.314  0.1465  0.0741  0.3211
 1723WAT     H1 7598   1.679   6.396   5.323  0.2434  0.5959  1.0651
 1723WAT     H2 7599   1.776   6.350   5.238 -0.7609 -1.0379  0.7593
 1723WAT    EPW 7600   1.755   6.385   5.304 -0.9661 -0.4292  0.0881
 1724WAT      O 7601   6.822   7.486   3.779 -0.4199 -0.4480 -0.4198
 1724WAT     H1 7602   6.784   7.562   3.800  0.7810 -0.0001  0.2625
 1724WAT     H2 7603   6.820   7.442   3.854 -0.0229 -0.6011 -0.4990
 1724WAT    EPW 7604   6.816   7.491   3.793  0.2782  0.1293 -0.4781
 1725WAT      O 7605   2.885   1.040   7.948 -0.0237  0.3895  0.2759
 1725WAT     H1 7606   2.937   1.009   7.884 -1.7041 -0.1515 -0.8891
 1725WAT     H2 7607   2.895   1.127   7.943  0.9787  0.2843  0.2815
 1725WAT    EPW 7608   2.894   1.048   7.938 -0.5979  0.1252 -0.5776
 1726WAT      O 7609   2.122   5.944   0.115 -0.5679 -0.3883  0.1096
 1726WAT     H1 7610   2.172   6.016   0.120 -1.1936  0.1776 -1.2443
 1726WAT     H2 7611   2.145   5.898   0.185  0.5058  0.7190  0.5177
 1726WAT    EPW 7612   2.133   5.948   0.126 -0.5480 -0.2564 -0.2852
 1727WAT      O 7613   5.080   0.679   7.000 -0.3297  0.1703  0.8554
 1727WAT     H1 7614   5.148   0.653   7.047  0.3671  1.8894  0.8507
 1727WAT     H2 7615   5.062   0.758   7.031  0.4630  1.5921 -2.0018
 1727WAT    EPW 7616   5.087   0.687   7.011 -0.0761 -0.4665 -0.4609
 1728WAT      O 7617   3.716   0.718   0.015 -0.3317  0.0330  0.5630
 1728WAT     H1 7618   3.680   0.795   0.037 -0.4869 -0.0126  0.4695
 1728WAT     H2 7619   3.647   0.668  -0.003 -0.2150 -0.0299  0.2959
 1728WAT    EPW 7620   3.701   0.722   0.016 -0.6992 -0.2094  0.2611
 1729WAT      O 7621   1.059   1.811   0.936 -0.4560  0.2599 -0.3762
 1729WAT     H1 7622   1.130   1.838   0.980 -1.3365 -0.0815  1.3376
 1729WAT     H2 7623   1.043   1.732   0.970 -1.4331  0.1653 -1.0202
 1729WAT    EPW 7624   1.067   1.803   0.948 -0.2543 -0.4447 -0.2190
 1730WAT      O 7625   5.357   0.939   7.118 -0.3427  0.9919  0.0831
 1730WAT     H1 7626   5.283   0.907   7.151 -1.4539  2.3608 -0.9497
 1730WAT     H2 7627   5.369   0.893   7.045  0.0811  0.4802  0.4671
 1730WAT    EPW 7628   5.348   0.927   7.112  0.6350 -0.0796  0.1261
 1731WAT      O 7629   6.251   1.150   3.681 -0.0368  0.1718 -0.0150
 1731WAT     H1 7630   6.327   1.156   3.723  0.1842 -1.1359 -0.1681
 1731WAT     H2 7631   6.196   1.195   3.731 -0.1562 -2.6215  2.6748
 1731WAT    EPW 7632   6.254   1.157   3.695  0.1708 -0.2430  0.2060
 1732WAT      O 7633   1.332   1.793   1.082 -0.3030  0.6733  0.0910
 1732WAT     H1 7634   1.378   1.737   1.035 -0.6125  0.0834  0.4744
 1732WAT     H2 7635   1.392   1.850   1.111 -0.3855  2.5589 -2.9745
 1732WAT    EPW 7636   1.348   1.793   1.080  0.3734 -0.6831  0.0606
 1733WAT      O 7637   3.403   2.540   7.044 -0.1992 -0.3285  0.6773
 1733WAT     H1 7638   3.452   2.612   7.037 -0.2885 -0.3280  0.0299
 1733WAT     H2 7639   3.322   2.567   7.027 -0.0947 -0.7583 -0.6858
 1733WAT    EPW 7640   3.399   2.555   7.040  0.7828  0.1643 -0.4433
 1734WAT      O 7641   5.005   3.261   6.752  0.3324 -0.1345  0.2339
 1734WAT     H1 7642   4.948   3.317   6.786  1.1181  1.7068 -1.3337
 1734WAT     H2 7643   4.971   3.240   6.675  1.7528  1.1075 -0.7982
 1734WAT    EPW 7644   4.992   3.266   6.746  0.4053  0.5538 -0.6203
 1735WAT      O 7645   1.439   0.904   2.924 -0.0977  0.4285  0.2076
 1735WAT     H1 7646   1.379   0.875   2.979 -0.0410 -1.2936 -0.5825
 1735WAT     H2 7647   1.514   0.877   2.959 -0.0785 -0.9070 -0.8038
 1735WAT    EPW 7648   1.441   0.896   2.937 -0.1653  0.0905  0.2579
 1736WAT      O 7649   0.647   3.486   3.255  0.2755 -0.0955  0.0247
 1736WAT     H1 7650   0.662   3.428   3.191 -0.9412 -3.1187  2.2743
 1736WAT     H2 7651   0.724   3.526   3.264  0.1312  1.8318 -4.3071
 1736WAT    EPW 7652   0.661   3.484   3.247  0.8719  0.1292  0.0078
 1737WAT      O 7653   5.810   3.793   2.621 -0.0219 -0.5311  0.9052
 1737WAT     H1 7654   5.867   3.788   2.687  0.9376  0.0071  0.1485
 1737WAT     H2 7655   5.854   3.758   2.554 -0.7036 -0.3740  0.3648
 1737WAT    EPW 7656   5.825   3.787   2.621 -0.5267 -0.0265 -0.1016
 1738WAT      O 7657   2.685   3.532   4.101  0.3373 -0.5285 -0.2106
 1738WAT     H1 7658   2.719   3.600   4.058 -0.3955 -0.6958 -1.0847
 1738WAT     H2 7659   2.635   3.493   4.041 -0.1173 -1.2086  0.5922
 1738WAT    EPW 7660   2.683   3.537   4.086  0.2551 -0.1424 -0.8381
 1739WAT      O 7661   3.940   6.880   6.311 -0.4000  0.0768  0.0923
 1739WAT     H1 7662   3.937   6.793   6.317  1.3687  0.0242  0.7903
 1739WAT     H2 7663   3.974   6.904   6.388 -0.1186  1.3298 -0.4058
 1739WAT    EPW 7664   3.945   6.871   6.323 -0.3815  0.4670  0.5732
 1740WAT      O 7665   5.920   3.037   6.172 -0.3173  0.2496 -0.2369
 1740WAT     H1 7666   5.968   3.000   6.109 -2.0783  0.4292 -1.7690
 1740WAT     H2 7667   5.861   2.975   6.192 -0.4806  0.6126  0.4382
 1740WAT    EPW 7668   5.918   3.022   6.166  0.1851  0.0148 -0.4069
 1741WAT      O 7669   5.211   2.349   7.079 -0.1977  0.2225  0.0785
 1741WAT     H1 7670   5.188   2.272   7.113 -0.2270  0.1699 -0.0611
 1741WAT     H2 7671   5.250   2.390   7.145  1.7793 -0.7507 -0.4159
 1741WAT    EPW 7672   5.214   2.344   7.094  0.0041 -0.2013  0.5767
 1742WAT      O 7673   3.006   0.035   6.439 -0.4298 -0.4873 -0.2392
 1742WAT     H1 7674   2.945   0.060   6.382  0.6304  0.5962 -0.9556
 1742WAT     H2 7675   3.024   0.109   6.482  1.1933 -0.4757 -0.8578
 1742WAT    EPW 7676   3.000   0.050   6.437  0.2650 -0.6883  0.1305
 1743WAT      O 7677   5.029   4.550   6.791 -0.0640  0.0421  0.1138
 1743WAT     H1 7678   5.075   4.551   6.717 -0.3652 -2.6454 -0.2128
 1743WAT     H2 7679   5.090   4.541   6.853  0.0316 -0.8918 -0.1017
 1743WAT    EPW 7680   5.045   4.549   6.789 -0.3041  0.7661 -0.1256
 1744WAT      O 7681   7.198   3.095   1.788  0.3315  0.5770  0.2916
 1744WAT     H1 7682   7.166   3.044   1.852  0.3705 -1.0794 -0.9438
 1744WAT     H2 7683   7.134   3.095   1.729  1.4077 -0.3245 -0.9131
 1744WAT    EPW 7684   7.184   3.087   1.789 -0.1777  0.6784  0.5194
 1745WAT      O 7685   4.217   1.026   0.426  0.0201 -0.3225 -0.2784
 1745WAT     H1 7686   4.163   1.004   0.491  0.2795 -0.1830 -0.0119
 1745WAT     H2 7687   4.171   1.008   0.354 -0.3529 -0.2753 -0.0567
 1745WAT    EPW 7688   4.202   1.020   0.425  0.0252 -0.0746 -0.2506
 1746WAT      O 7689   5.828   4.944   4.671 -0.1479  0.0926  0.4160
 1746WAT     H1 7690   5.806   4.862   4.649  1.1502  0.0653 -0.8770
 1746WAT     H2 7691   5.846   4.938   4.757 -0.2504 -0.9285  0.3765
 1746WAT    EPW 7692   5.827   4.931   4.681 -0.0681  0.0520  0.7150
 1747WAT      O 7693   4.018   4.989   2.405  0.3453 -0.0767  0.1390
 1747WAT     H1 7694   3.983   5.055   2.361  2.2628  1.1066  0.2907
 1747WAT     H2 7695   3.981   4.995   2.484  1.0691  1.3185  0.3874
 1747WAT    EPW 7696   4.007   4.999   2.410 -0.1113 -0.1269  0.4413
 1748WAT      O 7697   2.483   3.049   1.048  0.0935 -0.1027 -0.2758
 1748WAT     H1 7698   2.465   3.054   1.133  1.7194 -0.3257  0.1119
 1748WAT     H2 7699   2.408   3.074   1.010 -1.7139 -2.8556  1.1265
 1748WAT    EPW 7700   2.469   3.054   1.055  0.4726 -1.0162 -0.0072
 1749WAT      O 7701   5.260   7.559   6.593 -0.3910 -0.2257  0.3146
 1749WAT     H1 7702   5.254   7.630   6.643 -2.0337 -0.7884  0.9933
 1749WAT     H2 7703   5.267   7.494   6.650 -0.1143 -0.7124 -0.2564
 1749WAT    EPW 7704   5.260   7.560   6.609  0.1839 -0.7429 -0.4220
 1750WAT      O 7705   6.244   1.769   3.598 -0.3047 -0.4613  0.5359
 1750WAT     H1 7706   6.290   1.784   3.670  0.8282  0.9210 -0.4207
 1750WAT     H2 7707   6.271   1.830   3.543 -0.5600 -1.9345 -1.3434
 1750WAT    EPW 7708   6.255   1.780   3.600  0.2966 -0.0600  0.2557
 1751WAT      O 7709   4.922   5.421   7.124 -0.1815 -0.6324 -0.3916
 1751WAT     H1 7710   4.863   5.359   7.138 -0.0325 -0.8596 -0.7509
 1751WAT     H2 7711   4.876   5.483   7.083 -0.7336  0.2426  1.4398
 1751WAT    EPW 7712   4.906   5.421   7.120 -0.2533 -0.3356  0.2452
 1752WAT      O 7713   6.439   5.428   5.602  0.4955 -0.5194  0.2400
 1752WAT     H1 7714   6.402   5.368   5.550  0.3680 -1.0680  0.9445
 1752WAT     H2 7715   6.433   5.502   5.556  1.2630 -1.1577 -0.9487
 1752WAT    EPW 7716   6.433   5.430   5.587 -0.2678 -0.2210 -0.7829
 1753WAT      O 7717   5.762   0.659   1.883 -0.0924  0.2950 -0.4746
 1753WAT     H1 7718   5.775   0.686   1.801  0.5400  0.5545 -0.2939
 1753WAT     H2 7719   5.802   0.582   1.885 -0.8534 -0.1126 -0.6480
 1753WAT    EPW 7720   5.770   0.652   1.871 -0.5688 -0.2240  0.0346
 1754WAT      O 7721   7.124   2.966   1.066 -0.1678 -0.6587  0.0367
 1754WAT     H1 7722   7.130   2.889   1.107 -1.8793 -0.8909 -0.0907
 1754WAT     H2 7723   7.207   2.983   1.044  0.2225 -2.6462 -0.2800
 1754WAT    EPW 7724   7.137   2.957   1.069  0.1177  0.3880 -0.1356
 1755WAT      O 7725   4.050   1.429   1.497  0.6016 -0.1895  0.5865
 1755WAT     H1 7726   3.974   1.433   1.454 -0.0264 -0.5361  1.5975
 1755WAT     H2 7727   4.108   1.462   1.442 -0.2786 -0.0077 -0.2496
 1755WAT    EPW 7728   4.047   1.434   1.483  0.1937 -0.2080 -0.0428
 1756WAT      O 7729   2.894   1.525   5.245 -0.4479  0.4385 -0.2453
 1756WAT     H1 7730   2.825   1.576   5.230  0.1366  1.1999 -0.4175
 1756WAT     H2 7731   2.952   1.551   5.185 -0.4655 -1.0859 -0.9697
 1756WAT    EPW 7732   2.892   1.536   5.234 -0.5840 -0.1854  0.1227
 1757WAT      O 7733   3.003   0.633   0.827 -0.1923  0.1804  0.5870
 1757WAT     H1 7734   2.933   0.582   0.823 -0.9424  0.8414  3.2171
 1757WAT     H2 7735   2.972   0.713   0.809  0.0433  0.3553  0.9449
 1757WAT    EPW 7736   2.988   0.637   0.824 -0.3667 -0.8758 -0.1581
 1758WAT      O 7737   4.711   6.484   6.568 -0.2909  0.3625 -0.5286
 1758WAT     H1 7738   4.772   6.426   6.591 -1.5373 -0.2843  1.3963
 1758WAT     H2 7739   4.731   6.554   6.615 -1.4823 -0.1547  0.8247
 1758WAT    EPW 7740   4.723   6.486   6.578  0.1402 -0.4966 -0.0184
 1759WAT      O 7741   6.305   2.613   3.622  0.1330 -0.5296  0.0967
 1759WAT     H1 7742   6.264   2.593   3.696 -1.5279  1.5283 -0.1688
 1759WAT     H2 7743   6.363   2.674   3.646  0.2199 -0.5146 -0.1452
 1759WAT    EPW 7744   6.307   2.619   3.636 -0.2666 -0.2245  0.3222
 1760WAT      O 7745   3.746   2.301   1.442  0.5655  0.1926 -0.3939
 1760WAT     H1 7746   3.666   2.272   1.425  0.7753  0.0755 -1.2238
 1760WAT     H2 7747   3.739   2.388   1.435  0.3167  0.2424  0.4178
 1760WAT    EPW 7748   3.733   2.310   1.438 -0.7400  0.5141  0.1842
 1761WAT      O 7749   4.017   6.153   3.160  0.1398 -0.4881  0.0814
 1761WAT     H1 7750   4.061   6.112   3.096  1.5373  1.0674 -0.0363
 1761WAT     H2 7751   4.021   6.237   3.136 -1.1903 -0.0983  1.1390
 1761WAT    EPW 7752   4.024   6.159   3.147  0.0321 -0.4514  0.5840
 1762WAT      O 7753   2.754   7.798   0.693 -0.7302  0.7444 -0.3854
 1762WAT     H1 7754   2.750   7.726   0.743 -1.8935  0.3175 -1.0559
 1762WAT     H2 7755   2.838   7.804   0.671 -0.4854  0.0487  0.3365
 1762WAT    EPW 7756   2.766   7.788   0.697  0.0565 -0.6049 -0.5852
 1763WAT      O 7757   7.508   3.193   0.191  0.0924  0.1462  0.0200
 1763WAT     H1 7758   7.484   3.216   0.272  1.2871  0.1255  0.4054
 1763WAT     H2 7759   7.585   3.153   0.203 -0.0481 -0.4925 -1.0604
 1763WAT    EPW 7760   7.516   3.191   0.205 -0.0611  0.2304  0.2729
 1764WAT      O 7761   3.447   7.074   7.428  0.6389 -0.1430 -0.1357
 1764WAT     H1 7762   3.454   7.051   7.344 -0.0757 -0.5981 -0.0739
 1764WAT     H2 7763   3.454   6.999   7.471 -0.0381 -0.0450  0.1581
 1764WAT    EPW 7764   3.449   7.060   7.422  0.5505  0.2140  0.0736
 1765WAT      O 7765   5.407   5.171   6.087 -0.3510  0.3030  0.4261
 1765WAT     H1 7766   5.477   5.179   6.036 -0.0588  2.2274  1.0402
 1765WAT     H2 7767   5.428   5.107   6.142 -0.0696 -0.7703 -0.8542
 1765WAT    EPW 7768   5.420   5.163   6.087  0.1141 -0.3216 -0.1977
 1766WAT      O 7769   5.974   0.397   0.427  0.3074 -0.0955  0.0772
 1766WAT     H1 7770   6.017   0.338   0.379  1.7657 -0.5273  1.7952
 1766WAT     H2 7771   5.985   0.369   0.509  0.1787  1.9898  0.8818
 1766WAT    EPW 7772   5.982   0.384   0.432 -0.2596 -0.1997 -0.4448
 1767WAT      O 7773   7.818   1.863   0.418  0.1096  0.3725 -0.1566
 1767WAT     H1 7774   7.747   1.837   0.462 -0.9113  0.9520 -1.4064
 1767WAT     H2 7775   7.794   1.855   0.335  1.9308 -0.5195 -0.6356
 1767WAT    EPW 7776   7.804   1.858   0.412  0.4234  0.4885  0.0567
 1768WAT      O 7777   5.634   3.491   0.101  0.1846 -0.4668  0.5377
 1768WAT     H1 7778   5.641   3.431   0.163  0.2104 -1.8249 -0.7288
 1768WAT     H2 7779   5.614   3.445   0.030  1.7459  0.8099 -0.8298
 1768WAT    EPW 7780   5.632   3.476   0.100  0.4418 -0.1963  0.1577
 1769WAT      O 7781   4.819   4.039   6.815 -0.1499  0.8928  0.0389
 1769WAT     H1 7782   4.743   4.047   6.772  0.2700 -0.1331 -0.9324
 1769WAT     H2 7783   4.860   4.114   6.796  0.3321  0.1718 -2.0379
 1769WAT    EPW 7784   4.814   4.051   6.806  0.5731 -0.1256 -0.2774
 1770WAT      O 7785   3.632   0.753   7.678 -0.2249 -0.0869 -0.2136
 1770WAT     H1 7786   3.556   0.729   7.642 -0.2893 -0.0897 -0.0762
 1770WAT     H2 7787   3.627   0.723   7.759 -0.5476  0.8706  0.1327
 1770WAT    EPW 7788   3.620   0.745   7.685 -0.0589 -0.6287 -0.8016
 1771WAT      O 7789   4.873   2.182   2.014 -0.1015 -0.1448 -0.6199
 1771WAT     H1 7790   4.831   2.189   2.091  0.9383 -1.0268  0.0461
 1771WAT     H2 7791   4.936   2.241   2.020  1.1285 -1.4768 -0.0078
 1771WAT    EPW 7792   4.876   2.192   2.027  0.4408 -0.5159  0.4918
 1772WAT      O 7793   4.755   2.711   0.428  0.4011 -0.1535  0.4397
 1772WAT     H1 7794   4.769   2.663   0.500  0.9160  2.3745  2.1215
 1772WAT     H2 7795   4.835   2.737   0.405  0.1431 -0.2135 -0.5435
 1772WAT    EPW 7796   4.769   2.707   0.436 -0.0841 -0.1465  0.0112
 1773WAT      O 7797   5.201   3.641   2.669  0.0330  0.0552 -0.4639
 1773WAT     H1 7798   5.208   3.651   2.583 -0.5951 -1.1365 -0.6793
 1773WAT     H2 7799   5.118   3.660   2.686  0.2301  0.5760 -0.0735
 1773WAT    EPW 7800   5.190   3.645   2.659 -0.0505 -0.6103  0.2988
 1774WAT      O 7801   6.914   4.112   3.609 -0.5018  0.3496  0.2078
 1774WAT     H1 7802   6.879   4.072   3.539  2.0018 -1.6608 -0.0878
 1774WAT     H2 7803   6.906   4.196   3.590 -1.6912 -0.0887 -1.5716
 1774WAT    EPW 7804   6.908   4.118   3.596  0.0473 -0.1340 -0.4700
 1775WAT      O 7805   5.845   4.525   0.658 -0.3007  0.1336  0.0449
 1775WAT     H1 7806   5.930   4.515   0.675 -0.3971 -0.8120  0.0296
 1775WAT     H2 7807   5.806   4.489   0.726 -0.6987  0.4994  0.0152
 1775WAT    EPW 7808   5.852   4.518   0.670  0.0024 -0.1463 -0.1937
 1776WAT      O 7809   2.012   1.613   0.839 -0.1465 -0.3298 -0.4322
 1776WAT     H1 7810   2.092   1.607   0.804 -0.1403  0.6052 -0.6096
 1776WAT     H2 7811   1.974   1.538   0.818  0.5794 -0.6443 -0.6288
 1776WAT    EPW 7812   2.018   1.601   0.831 -0.5406  0.0917  0.0365
 1777WAT      O 7813  -0.001   3.916   4.145  0.5171  0.3326  0.2746
 1777WAT     H1 7814   0.084   3.903   4.133  0.6820  2.3298 -1.3228
 1777WAT     H2 7815  -0.014   3.997   4.114 -1.4548  1.2480  3.0241
 1777WAT    EPW 7816   0.010   3.926   4.139 -0.6214 -0.0535  0.3657
 1778WAT      O 7817   7.989   0.856   3.432  0.2629  0.0669 -0.5287
 1778WAT     H1 7818   7.912   0.825   3.406  0.7689 -1.8860  0.1319
 1778WAT     H2 7819   7.978   0.869   3.518  0.3292  0.8995 -0.6417
 1778WAT    EPW 7820   7.976   0.853   3.441 -0.7160 -0.4108 -0.7793
 1779WAT      O 7821   2.810   2.134   4.757 -0.1740 -0.1578  0.1301
 1779WAT     H1 7822   2.784   2.106   4.678 -1.5884 -0.2642  0.6080
 1779WAT     H2 7823   2.756   2.093   4.812 -0.2462  1.1082  1.0477
 1779WAT    EPW 7824   2.798   2.123   4.753 -0.2232 -0.2974  0.1308
 1780WAT      O 7825   4.831   4.157   2.438 -0.4922  0.6014  0.0144
 1780WAT     H1 7826   4.860   4.137   2.518 -0.1252 -1.2119 -0.5385
 1780WAT     H2 7827   4.775   4.222   2.453  0.1633  0.8451  1.6526
 1780WAT    EPW 7828   4.827   4.164   2.452  0.5904 -0.0223  0.0981
 1781WAT      O 7829   7.554   2.307   4.772 -0.2673  0.0394 -0.1533
 1781WAT     H1 7830   7.468   2.292   4.765 -0.2430  0.4798 -2.2145
 1781WAT     H2 7831   7.560   2.365   4.837 -1.7239  1.1403 -0.9289
 1781WAT    EPW 7832   7.542   2.313   4.780  0.7376  0.5044 -0.9573
 1782WAT      O 7833   4.742   3.171   5.674  1.0408  0.0118 -0.0707
 1782WAT     H1 7834   4.759   3.132   5.750  0.2982 -0.4457 -0.1294
 1782WAT     H2 7835   4.764   3.254   5.687  0.8702 -0.0550  0.6584
 1782WAT    EPW 7836   4.748   3.177   5.687 -0.2081 -0.0828  0.2115
 1783WAT      O 7837   0.552   7.958   4.604 -0.1448 -0.2422 -0.1205
 1783WAT     H1 7838   0.636   7.970   4.585 -0.8827  0.7187 -3.6355
 1783WAT     H2 7839   0.515   8.035   4.582 -1.8597 -0.2561  2.3015
 1783WAT    EPW 7840   0.559   7.971   4.598  0.1225  0.0621 -0.2851
 1784WAT      O 7841   6.121   4.079   3.054  0.2437 -0.1091 -0.3106
 1784WAT     H1 7842   6.169   4.008   3.039  2.2000  1.0855 -0.1268
 1784WAT     H2 7843   6.063   4.080   2.989  0.4926 -1.6033 -0.5739
 1784WAT    EPW 7844   6.120   4.069   3.042 -0.7153 -0.1369 -0.5205
 1785WAT      O 7845   5.714   1.342   1.904  0.0228  0.1266  0.0932
 1785WAT     H1 7846   5.718   1.429   1.913 -1.2422  0.2495 -0.3779
 1785WAT     H2 7847   5.635   1.329   1.869 -0.3794 -1.3075  1.4369
 1785WAT    EPW 7848   5.703   1.353   1.900 -0.2882  0.3144  0.2546
 1786WAT      O 7849   2.249   2.212   3.582 -0.1812  0.0879  0.9346
 1786WAT     H1 7850   2.239   2.137   3.626  0.4024 -0.1195  0.7235
 1786WAT     H2 7851   2.304   2.257   3.632  2.5425 -1.1462 -0.7404
 1786WAT    EPW 7852   2.255   2.207   3.596  0.1281  0.2132  0.6874
 1787WAT      O 7853   6.685   0.565   3.095  0.2509 -0.2557  0.2348
 1787WAT     H1 7854   6.598   0.576   3.100  0.3022  0.9750 -1.0296
 1787WAT     H2 7855   6.696   0.525   3.019  0.8309 -0.0531  0.2116
 1787WAT    EPW 7856   6.674   0.560   3.085  0.2106  0.4297 -0.2397
 1788WAT      O 7857   5.480   5.479   3.239  0.0238 -0.0830 -0.0767
 1788WAT     H1 7858   5.521   5.452   3.311  0.3483  1.4943  0.3612
 1788WAT     H2 7859   5.521   5.553   3.219 -1.1114  0.3272 -0.9650
 1788WAT    EPW 7860   5.492   5.486   3.247  0.6691  0.2697 -0.1588
 1789WAT      O 7861   2.860   4.215   2.944  0.1927 -0.0308 -0.1791
 1789WAT     H1 7862   2.796   4.273   2.960  0.9104  0.1226  2.5245
 1789WAT     H2 7863   2.910   4.257   2.885 -1.1994  0.5620 -1.0061
 1789WAT    EPW 7864   2.858   4.230   2.938  0.3379 -0.1777 -0.2995
 1790WAT      O 7865   5.114   7.482   3.066 -0.5456  0.2960 -0.2430
 1790WAT     H1 7866   5.091   7.537   3.130  0.7225  0.9645 -0.3285
 1790WAT     H2 7867   5.107   7.530   2.994  1.7049  0.7656 -0.2054
 1790WAT    EPW 7868   5.109   7.497   3.065 -0.3831  0.0157  0.9822
 1791WAT      O 7869   4.700   3.830   5.039  0.3038 -0.0602 -0.2759
 1791WAT     H1 7870   4.705   3.743   5.029 -3.0177 -0.2814 -1.2851
 1791WAT     H2 7871   4.713   3.842   5.124  1.8162 -1.3777 -0.2719
 1791WAT    EPW 7872   4.703   3.819   5.050  0.1048 -0.2906  0.1698
 1792WAT      O 7873   4.062   6.095   5.923  0.2206  0.1984 -0.0060
 1792WAT     H1 7874   4.105   6.054   5.987 -0.0783 -0.5911 -0.3025
 1792WAT     H2 7875   4.099   6.066   5.851  0.7570  1.3189 -0.2017
 1792WAT    EPW 7876   4.074   6.085   5.922 -0.2202 -0.8316  0.3584
 1793WAT      O 7877   3.549   2.833   5.714  0.1097 -0.2488  0.2245
 1793WAT     H1 7878   3.524   2.812   5.795  0.3458 -1.6536 -0.0467
 1793WAT     H2 7879   3.597   2.765   5.689  0.2462  0.2774 -1.0202
 1793WAT    EPW 7880   3.552   2.820   5.722  0.0728 -0.2109  0.3017
 1794WAT      O 7881   5.321   2.055   3.935  0.4116  0.3964  0.3660
 1794WAT     H1 7882   5.385   2.013   3.893  0.4780  0.0387  0.8054
 1794WAT     H2 7883   5.259   1.993   3.943  1.6284 -0.6190  3.6014
 1794WAT    EPW 7884   5.322   2.039   3.930  0.5425  0.1668 -0.3681
 1795WAT      O 7885   5.355   2.354   6.726  0.2054  0.4287 -0.1079
 1795WAT     H1 7886   5.311   2.428   6.739 -0.7506 -0.0166 -0.7115
 1795WAT     H2 7887   5.306   2.310   6.669  1.2108 -0.2842 -0.4566
 1795WAT    EPW 7888   5.341   2.358   6.720 -0.2518 -0.8547 -0.0244
 1796WAT      O 7889   6.711   6.705   3.739  0.1080 -0.3103  0.2826
 1796WAT     H1 7890   6.707   6.727   3.655  3.2377 -0.2732  0.0404
 1796WAT     H2 7891   6.684   6.777   3.781 -4.3908 -1.2200 -0.5036
 1796WAT    EPW 7892   6.706   6.719   3.733 -0.4367  0.2048  0.7366
 1797WAT      O 7893   4.212   0.614   7.767  0.0039 -0.0077 -0.1629
 1797WAT     H1 7894   4.144   0.662   7.793 -0.2197 -0.3092 -0.1959
 1797WAT     H2 7895   4.261   0.607   7.839 -0.3014 -0.3092  0.0132
 1797WAT    EPW 7896   4.209   0.620   7.782 -0.2349 -0.0150  0.6842
 1798WAT      O 7897   5.006   4.174   4.948  0.1600 -0.6520  0.3447
 1798WAT     H1 7898   4.960   4.105   4.921  1.5137 -1.1184 -0.8889
 1798WAT     H2 7899   4.987   4.235   4.889 -0.0887 -0.3528  0.7334
 1798WAT    EPW 7900   4.996   4.173   4.935 -0.1562 -0.3465 -0.5853
 1799WAT      O 7901   6.589   1.673   1.882 -0.2525 -0.7207  0.4493
 1799WAT     H1 7902   6.612   1.649   1.962 -0.3430  0.1910  0.7595
 1799WAT     H2 7903   6.646   1.630   1.831  0.2806 -0.7267  1.0412
 1799WAT    EPW 7904   6.601   1.663   1.886  0.2665 -0.0688 -0.1035
 1800WAT      O 7905   3.982   3.490   0.521  0.0648  0.7697 -0.3472
 1800WAT     H1 7906   4.050   3.438   0.536  0.7724  2.2253  2.0043
 1800WAT     H2 7907   4.015   3.570   0.530 -1.6549  1.5434 -0.5757
 1800WAT    EPW 7908   3.997   3.494   0.525 -0.1410  0.0878  0.4715
 1801WAT      O 7909   5.761   6.627   2.858 -0.1141 -0.1966  0.0271
 1801WAT     H1 7910   5.753   6.607   2.773 -0.6038 -2.1807  0.5001
 1801WAT     H2 7911   5.731   6.709   2.862  0.0870  0.0095 -1.7356
 1801WAT    EPW 7912   5.755   6.636   2.846 -0.2719  0.4075 -0.0293
 1802WAT      O 7913   6.097   2.886   1.437  0.3437 -0.8722 -0.1980
 1802WAT     H1 7914   6.138   2.954   1.472 -2.5951  0.8578  0.2306
 1802WAT     H2 7915   6.116   2.821   1.493 -1.4499  1.0239  2.9417
 1802WAT    EPW 7916   6.106   2.886   1.451 -0.0193 -0.0824  0.0404
 1803WAT      O 7917   5.791   6.246   0.396 -0.0441  0.3000 -0.1582
 1803WAT     H1 7918   5.715   6.236   0.437 -0.4818  0.9370 -0.7800
 1803WAT     H2 7919   5.774   6.217   0.315  0.9456 -1.4448  0.1994
 1803WAT    EPW 7920   5.778   6.240   0.390  0.0823  0.9648 -0.2352
 1804WAT      O 7921   7.078   6.202   3.625  0.4258  0.3999 -0.1683
 1804WAT     H1 7922   7.013   6.145   3.610 -1.7469  2.7812 -0.5588
 1804WAT     H2 7923   7.101   6.228   3.545  1.6272 -0.0763 -0.0057
 1804WAT    EPW 7924   7.072   6.197   3.611 -0.1098  0.8052  0.1286
 1805WAT      O 7925   1.672   2.720   6.856 -0.0812 -1.2125 -0.1124
 1805WAT     H1 7926   1.681   2.684   6.935  0.1248  0.7694  0.8316
 1805WAT     H2 7927   1.725   2.673   6.805  3.2405  0.0968  1.8596
 1805WAT    EPW 7928   1.681   2.708   6.860 -0.1960  0.1842  0.8385
 1806WAT      O 7929   4.917   7.986   7.268 -0.0130  0.0464  0.2186
 1806WAT     H1 7930   4.980   7.937   7.303 -0.9602 -1.4503 -0.0337
 1806WAT     H2 7931   4.883   8.028   7.336  1.9033  1.7535  0.2163
 1806WAT    EPW 7932   4.921   7.985   7.283 -0.7220 -1.1184 -0.6450
 1807WAT      O 7933   4.565   7.375   2.442  0.3379 -0.5511 -0.0062
 1807WAT     H1 7934   4.610   7.306   2.411  0.8295 -0.3084  0.1681
 1807WAT     H2 7935   4.617   7.409   2.502  1.1045  1.3256 -1.6155
 1807WAT    EPW 7936   4.579   7.369   2.446  0.3495  0.2413 -0.8609
 1808WAT      O 7937   5.562   1.691   5.861  0.6033 -0.3998 -0.1627
 1808WAT     H1 7938   5.515   1.618   5.858  0.0828 -0.1410  1.1615
 1808WAT     H2 7939   5.640   1.666   5.889  0.3300 -0.4134  0.5992
 1808WAT    EPW 7940   5.566   1.677   5.864  0.1887  0.2809  0.5046
 1809WAT      O 7941   6.521   2.779   3.725  0.0685 -0.1863 -0.0039
 1809WAT     H1 7942   6.559   2.813   3.796 -0.1236  1.0669 -0.4730
 1809WAT     H2 7943   6.558   2.822   3.659 -0.7328 -0.3434 -0.5764
 1809WAT    EPW 7944   6.532   2.790   3.726  0.4725  0.3752 -0.8187
 1810WAT      O 7945   4.951   1.917   4.842  0.6652 -0.0866 -0.4461
 1810WAT     H1 7946   4.891   1.886   4.787  0.9842  0.6358 -1.2118
 1810WAT     H2 7947   5.025   1.909   4.798  0.8721  0.8936 -0.2969
 1810WAT    EPW 7948   4.953   1.911   4.828  0.5236 -0.1054 -0.3069
 1811WAT      O 7949   4.744   1.985   0.801  0.0284  0.3268  0.6697
 1811WAT     H1 7950   4.702   1.995   0.725  0.8741 -1.3099 -0.0697
 1811WAT     H2 7951   4.680   1.972   0.859 -0.5772 -1.2263 -0.2807
 1811WAT    EPW 7952   4.728   1.984   0.798 -0.1181  0.6241  0.2129
 1812WAT      O 7953   6.598   1.822   5.115  0.0038  0.1215 -0.4398
 1812WAT     H1 7954   6.513   1.822   5.094  0.0077  0.3870 -0.4613
 1812WAT     H2 7955   6.611   1.902   5.145  0.2488  0.0802 -0.4384
 1812WAT    EPW 7956   6.587   1.834   5.116 -0.3584  0.6353 -0.0586
 1813WAT      O 7957   2.755   1.965   0.358 -0.1858 -0.1239  0.0244
 1813WAT     H1 7958   2.740   2.021   0.423  1.4619 -1.1443  1.3806
 1813WAT     H2 7959   2.805   2.010   0.303 -1.0164  0.5294 -0.2184
 1813WAT    EPW 7960   2.760   1.980   0.359  0.1519  0.6887 -0.2139
 1814WAT      O 7961   0.498   4.699   3.844  0.5655 -0.3463 -0.2827
 1814WAT     H1 7962   0.468   4.669   3.767 -1.5665 -0.5194  0.5597
 1814WAT     H2 7963   0.566   4.647   3.860  1.1119 -0.2608 -2.0713
 1814WAT    EPW 7964   0.504   4.687   3.835 -0.7657  0.6977 -0.3373
 1815WAT      O 7965   1.110   0.919   2.693  0.6637 -0.1006  0.2511
 1815WAT     H1 7966   1.075   0.938   2.771 -0.3655  1.2286 -0.4962
 1815WAT     H2 7967   1.041   0.912   2.641  1.4229  0.9639 -0.9441
 1815WAT    EPW 7968   1.095   0.921   2.697  0.5368 -0.5154 -0.5395
 1816WAT      O 7969   5.824   5.644   4.861  0.4766 -0.0788 -0.6768
 1816WAT     H1 7970   5.885   5.582   4.851 -0.8791 -1.7294  0.7639
 1816WAT     H2 7971   5.757   5.615   4.813  0.1911  0.8505 -0.8540
 1816WAT    EPW 7972   5.823   5.631   4.852  1.0932 -0.3108  0.2241
 1817WAT      O 7973   7.914   5.981   1.008  0.1241  0.5204  0.0287
 1817WAT     H1 7974   7.858   6.008   1.070 -0.7686 -0.3794 -0.3529
 1817WAT     H2 7975   7.934   5.900   1.034 -1.6980 -0.5958 -1.7597
 1817WAT    EPW 7976   7.909   5.973   1.021  0.2420 -0.1387 -0.4016
 1818WAT      O 7977   1.428   3.592   2.381 -0.1773 -0.6676 -0.2210
 1818WAT     H1 7978   1.446   3.535   2.318  0.6892 -0.4700 -0.1701
 1818WAT     H2 7979   1.347   3.619   2.363 -0.4682 -1.6581 -0.4305
 1818WAT    EPW 7980   1.419   3.588   2.369 -0.3880  0.3828  0.3207
 1819WAT      O 7981   6.036   3.066   7.332 -0.1441  0.4978 -0.6620
 1819WAT     H1 7982   6.023   3.018   7.404 -4.6498  1.2357 -0.6735
 1819WAT     H2 7983   6.051   3.006   7.270 -1.3209 -0.6200  0.0703
 1819WAT    EPW 7984   6.036   3.050   7.334  0.4656 -0.7638 -0.7036
 1820WAT      O 7985   0.554   7.563   3.848  0.0643  0.4507  0.0416
 1820WAT     H1 7986   0.603   7.516   3.903  1.3552  1.7155  0.0355
 1820WAT     H2 7987   0.472   7.549   3.876  0.4866 -0.9887  0.6368
 1820WAT    EPW 7988   0.549   7.554   3.861 -0.0488  0.0077  0.4141
 1821WAT      O 7989   1.274   0.292   0.580  0.0786 -0.4095 -0.3094
 1821WAT     H1 7990   1.311   0.214   0.589  1.5799  0.4167  1.1374
 1821WAT     H2 7991   1.320   0.343   0.633 -0.0659  1.7414 -2.0951
 1821WAT    EPW 7992   1.286   0.288   0.589  0.2410  0.2632 -0.0357
 1822WAT      O 7993   6.279   2.593   7.899 -0.4659  0.1610  0.3239
 1822WAT     H1 7994   6.301   2.649   7.962  1.2079 -0.2421  0.1612
 1822WAT     H2 7995   6.347   2.597   7.844 -2.1787  1.0395 -1.8768
 1822WAT    EPW 7996   6.293   2.602   7.900 -0.3786 -0.4443 -0.4720
 1823WAT      O 7997   4.150   2.126   6.909  0.0124 -0.4526  0.3229
 1823WAT     H1 7998   4.206   2.060   6.903  0.2829 -0.1296 -1.0637
 1823WAT     H2 7999   4.187   2.188   6.860 -1.2391  0.0055 -0.0640
 1823WAT    EPW 8000   4.164   2.126   6.901  0.1805  0.2069  0.0486
 1824WAT      O 8001   5.180   2.794   7.047  0.0892  0.7346  0.0417
 1824WAT     H1 8002   5.146   2.794   7.127  0.8144  0.9165  0.3582
 1824WAT     H2 8003   5.124   2.842   7.001 -1.1144 -0.5547  0.0833
 1824WAT    EPW 8004   5.167   2.801   7.052 -0.5938 -0.4517  0.0945
 1825WAT      O 8005   3.669   1.959   7.430 -0.2962 -0.4672 -0.3157
 1825WAT     H1 8006   3.655   1.910   7.500 -0.1685  1.4427  1.1168
 1825WAT     H2 8007   3.634   1.913   7.365 -1.1339 -1.9199  1.1153
 1825WAT    EPW 8008   3.662   1.945   7.431  0.4875 -0.0822  0.1768
 1826WAT      O 8009   1.163   2.512   3.919 -0.2206 -0.2152 -0.0895
 1826WAT     H1 8010   1.250   2.511   3.928 -0.1347  0.3005 -0.7410
 1826WAT     H2 8011   1.138   2.432   3.943  0.3358 -0.0634  1.0154
 1826WAT    EPW 8012   1.172   2.500   3.924  0.2287  0.2143  0.0811
 1827WAT      O 8013   5.936   3.185   4.514 -0.2791  0.1977 -0.4118
 1827WAT     H1 8014   5.957   3.178   4.598  1.0022  0.3591 -0.7070
 1827WAT     H2 8015   5.947   3.104   4.483  1.5207  0.6084 -0.9158
 1827WAT    EPW 8016   5.940   3.172   4.522 -0.1398  0.0802  0.0425
 1828WAT      O 8017   5.505   0.579   6.960 -0.2944 -0.1829 -0.5543
 1828WAT     H1 8018   5.446   0.559   7.021  1.1464 -1.5108  0.4838
 1828WAT     H2 8019   5.478   0.534   6.891 -0.3656 -0.9954 -0.0132
 1828WAT    EPW 8020   5.492   0.570   6.959 -0.0268  0.5925  0.2653
 1829WAT      O 8021   6.979   1.804   1.092 -0.0326  0.0514 -0.2475
 1829WAT     H1 8022   7.037   1.755   1.049 -0.1266 -0.2276 -0.0616
 1829WAT     H2 8023   6.913   1.812   1.036  0.5349  1.0899 -0.7927
 1829WAT    EPW 8024   6.978   1.798   1.078 -0.5231 -0.1389 -0.2307
 1830WAT      O 8025   5.581   5.675   5.475 -0.0413 -0.2282  0.0543
 1830WAT     H1 8026   5.627   5.677   5.402 -0.3696 -0.3492 -0.1583
 1830WAT     H2 8027   5.640   5.655   5.537  0.2488 -0.0416 -0.1624
 1830WAT    EPW 8028   5.596   5.672   5.474 -0.5726  0.3409  0.3817
 1831WAT      O 8029   7.566   3.984   1.902  0.8417  0.2059  0.0063
 1831WAT     H1 8030   7.602   4.060   1.878  1.1823  0.0262 -0.0613
 1831WAT     H2 8031   7.578   3.983   1.989 -0.7445  1.0403  0.2784
 1831WAT    EPW 8032   7.573   3.995   1.911  0.0035 -0.2707 -0.1680
 1832WAT      O 8033   4.483   2.399   4.467 -0.3304 -0.8549  0.1849
 1832WAT     H1 8034   4.482   2.421   4.551 -1.0420 -0.4363  0.0802
 1832WAT     H2 8035   4.520   2.468   4.428 -0.6424 -0.7464  0.0802
 1832WAT    EPW 8036   4.488   2.412   4.473 -0.3007 -0.2678 -0.1956
 1833WAT      O 8037   4.997   2.587   2.101 -0.3141  0.4331  0.6376
 1833WAT     H1 8038   5.071   2.600   2.145 -0.6831  2.4881  0.7692
 1833WAT     H2 8039   4.935   2.595   2.162 -0.6844 -0.8296  0.4513
 1833WAT    EPW 8040   4.999   2.590   2.116 -0.3545  0.4200 -0.0849
 1834WAT      O 8041   3.190   1.036   7.347 -0.2468  0.3300 -0.3042
 1834WAT     H1 8042   3.193   0.983   7.278 -1.5394  0.0170 -0.1423
 1834WAT     H2 8043   3.234   0.992   7.409  0.7779  0.5420 -0.8504
 1834WAT    EPW 8044   3.197   1.022   7.346  0.0349  0.2185  0.1971
 1835WAT      O 8045   6.987   0.437   3.978  0.5675  0.3649 -0.4738
 1835WAT     H1 8046   6.951   0.397   3.910 -0.3206  1.0022 -0.3939
 1835WAT     H2 8047   6.933   0.420   4.044  0.1784  1.6279 -0.4280
 1835WAT    EPW 8048   6.974   0.429   3.978 -0.2292 -0.5156 -0.5759
 1836WAT      O 8049   4.872   0.906   6.714  0.2281 -0.3752  0.1399
 1836WAT     H1 8050   4.870   0.949   6.790  0.8309  1.1755 -0.6663
 1836WAT     H2 8051   4.809   0.944   6.667  0.8351 -0.2800 -0.6217
 1836WAT    EPW 8052   4.863   0.918   6.719  0.4291  0.0225  0.6719
 1837WAT      O 8053   6.143   6.902   5.101 -0.0853 -0.6388 -0.0880
 1837WAT     H1 8054   6.128   6.873   5.182  0.5054 -0.2986  0.1532
 1837WAT     H2 8055   6.126   6.987   5.106  0.1357 -0.5816 -0.2695
 1837WAT    EPW 8056   6.138   6.910   5.113  0.7205  0.4059  0.2562
 1838WAT      O 8057   4.672   7.964   4.039  0.6285  0.5227  0.1839
 1838WAT     H1 8058   4.697   7.899   4.091 -1.0586  0.6049  1.1688
 1838WAT     H2 8059   4.735   8.024   4.050  1.8177 -0.6138 -0.1722
 1838WAT    EPW 8060   4.685   7.963   4.048  0.0475 -0.3703  0.3726
 1839WAT      O 8061   6.889   2.297   4.603  0.6363  0.7333 -0.2839
 1839WAT     H1 8062   6.915   2.229   4.652 -0.1454 -0.0919 -0.9659
 1839WAT     H2 8063   6.807   2.310   4.629  0.9296  1.7618  0.1854
 1839WAT    EPW 8064   6.881   2.289   4.615  0.5639  0.7495  0.1350
 1840WAT      O 8065   3.308   6.645   3.383  0.0440  0.0651  0.0995
 1840WAT     H1 8066   3.221   6.644   3.378 -0.0248 -0.5415  1.1930
 1840WAT     H2 8067   3.326   6.721   3.422 -0.1409 -0.7758  1.8845
 1840WAT    EPW 8068   3.298   6.656   3.388  0.4668 -0.5043 -0.5077
 1841WAT      O 8069   2.739   0.773   6.707  0.9367 -0.2862  0.2276
 1841WAT     H1 8070   2.764   0.776   6.790  1.4344  0.4860  0.0656
 1841WAT     H2 8071   2.667   0.723   6.708 -1.0644  2.3441  1.6518
 1841WAT    EPW 8072   2.732   0.766   6.719  0.0436 -0.1561 -0.1278
 1842WAT      O 8073   5.010   0.912   7.156 -0.3071  0.1354  0.2915
 1842WAT     H1 8074   4.934   0.893   7.195 -0.1394  0.7527  0.9224
 1842WAT     H2 8075   5.041   0.980   7.201  0.3356  0.2790 -0.3395
 1842WAT    EPW 8076   5.003   0.919   7.168  0.1960  0.5973 -0.4025
 1843WAT      O 8077   1.722   3.297   0.561 -0.5817  0.0689 -0.2146
 1843WAT     H1 8078   1.692   3.379   0.551  1.8816  1.0883  0.0634
 1843WAT     H2 8079   1.780   3.304   0.626  0.2193 -1.7440 -0.6769
 1843WAT    EPW 8080   1.726   3.310   0.569  0.5538  0.7931  0.3281
 1844WAT      O 8081   5.018   0.239   3.760  0.8977 -0.6387  0.2608
 1844WAT     H1 8082   5.098   0.271   3.741  0.3672  0.4047 -0.3030
 1844WAT     H2 8083   4.974   0.310   3.786  0.0297 -1.1356  0.1486
 1844WAT    EPW 8084   5.024   0.254   3.761 -0.0719 -0.0381 -0.1865
 1845WAT      O 8085   5.921   2.049   3.474 -0.6559  0.1250 -0.0719
 1845WAT     H1 8086   5.898   2.013   3.397  0.2658  0.4625 -0.5183
 1845WAT     H2 8087   5.929   1.979   3.526  0.4475 -0.2859 -0.7538
 1845WAT    EPW 8088   5.919   2.033   3.470  1.0045 -0.7071 -0.0173
 1846WAT      O 8089   6.809   5.301   5.026 -0.7526 -0.1087  0.2249
 1846WAT     H1 8090   6.760   5.357   4.980 -1.8981 -2.4197 -1.5721
 1846WAT     H2 8091   6.879   5.289   4.975 -1.2358 -1.3794 -0.2033
 1846WAT    EPW 8092   6.812   5.308   5.011  0.0643 -0.4580 -0.3594
 1847WAT      O 8093   6.793   3.961   0.920  0.1172  0.4224  0.1384
 1847WAT     H1 8094   6.835   3.977   0.846  0.3758  1.0444  0.4176
 1847WAT     H2 8095   6.737   4.027   0.928 -1.7889 -0.9898 -0.8236
 1847WAT    EPW 8096   6.791   3.973   0.910  0.3902 -0.2136  0.0486
 1848WAT      O 8097   1.170   3.203   3.629 -0.1226 -0.0780  0.1610
 1848WAT     H1 8098   1.137   3.138   3.580  0.0737  0.8241 -1.1893
 1848WAT     H2 8099   1.107   3.263   3.629 -0.1608 -0.0878  1.1304
 1848WAT    EPW 8100   1.156   3.202   3.622  0.3072  0.1782 -0.1998
 1849WAT      O 8101   5.732   7.430   2.020  0.0133 -0.4308  0.6605
 1849WAT     H1 8102   5.732   7.356   1.974 -1.0869  0.3109 -0.5847
 1849WAT     H2 8103   5.803   7.471   1.993  1.1992 -1.4183  2.0944
 1849WAT    EPW 8104   5.742   7.425   2.009  0.0741  0.6989  0.4979
 1850WAT      O 8105   6.563   1.728   3.351 -0.1107 -0.1076 -0.0095
 1850WAT     H1 8106   6.488   1.738   3.307  0.3288 -0.3000 -0.8261
 1850WAT     H2 8107   6.586   1.810   3.371 -1.2144 -0.1103  1.4572
 1850WAT    EPW 8108   6.555   1.742   3.348  0.4608  0.3989 -0.3959
 1851WAT      O 8109   3.989   3.094   1.010 -0.5929  0.3791 -0.4661
 1851WAT     H1 8110   4.019   3.174   1.025 -0.3180  0.0555  0.9073
 1851WAT     H2 8111   4.022   3.073   0.933  0.8708  0.8995 -0.0156
 1851WAT    EPW 8112   3.998   3.103   1.001  0.0334 -0.2593  0.0682
 1852WAT      O 8113   5.157   1.496   4.281  0.4094  0.3680 -0.1024
 1852WAT     H1 8114   5.162   1.547   4.352 -1.7328 -1.6321  1.6734
 1852WAT     H2 8115   5.223   1.440   4.292 -1.6404 -1.9014  2.2413
 1852WAT    EPW 8116   5.167   1.495   4.293  0.4434  0.0322 -0.0398
 1853WAT      O 8117   5.007   5.639   3.415 -0.3215 -0.5415  0.2708
 1853WAT     H1 8118   4.968   5.560   3.412 -1.6372  0.0799 -1.9979
 1853WAT     H2 8119   5.083   5.626   3.375  0.0624 -0.9169  1.1025
 1853WAT    EPW 8120   5.012   5.625   3.409 -0.1007  0.0745 -0.2576
 1854WAT      O 8121   2.519   6.384   2.543 -0.5555  0.3323 -0.2614
 1854WAT     H1 8122   2.585   6.354   2.591 -0.6062 -0.1553 -0.4968
 1854WAT     H2 8123   2.486   6.313   2.505 -0.3720  0.7271 -1.2084
 1854WAT    EPW 8124   2.523   6.369   2.544  0.2628 -0.0448 -0.1660
 1855WAT      O 8125   1.416   3.235   5.200  0.0804 -0.4836  0.1666
 1855WAT     H1 8126   1.346   3.278   5.230 -1.0677 -1.5324 -0.8932
 1855WAT     H2 8127   1.425   3.266   5.118  2.2751  1.2820  0.9788
 1855WAT    EPW 8128   1.407   3.246   5.192 -0.5262 -0.7341  0.1016
 1856WAT      O 8129   5.877   4.540   5.896  0.0002  0.0767  0.3869
 1856WAT     H1 8130   5.885   4.587   5.823  1.4554  1.4176  1.3229
 1856WAT     H2 8131   5.873   4.458   5.868  0.0560  0.5896 -1.2140
 1856WAT    EPW 8132   5.878   4.535   5.881  0.1028  0.3226 -0.0005
 1857WAT      O 8133   4.477   0.852   4.411 -0.6174  0.4445 -0.8893
 1857WAT     H1 8134   4.410   0.805   4.442 -0.9306 -0.0429 -2.2314
 1857WAT     H2 8135   4.545   0.821   4.456 -1.2233  0.7703  0.3109
 1857WAT    EPW 8136   4.477   0.840   4.422 -0.1815 -0.7985  0.2667
 1858WAT      O 8137   4.747   6.235   3.354 -0.1128 -0.3274 -0.1644
 1858WAT     H1 8138   4.678   6.254   3.302  0.9148  1.7198 -0.9283
 1858WAT     H2 8139   4.811   6.221   3.297  0.8844  1.2874  0.4968
 1858WAT    EPW 8140   4.746   6.236   3.338 -0.5430  0.0523  0.1313
 1859WAT      O 8141   6.399   6.791   3.123 -0.0254  0.7354 -0.1195
 1859WAT     H1 8142   6.387   6.712   3.158  2.2991  0.3437 -0.0349
 1859WAT     H2 8143   6.398   6.776   3.037 -0.2474  0.7394 -0.1186
 1859WAT    EPW 8144   6.397   6.777   3.115  0.3705  0.5154  0.4367
 1860WAT      O 8145   3.576   0.388   6.746 -0.2384  0.3530  0.1341
 1860WAT     H1 8146   3.545   0.457   6.791 -0.0917 -0.8921  2.2752
 1860WAT     H2 8147   3.504   0.343   6.726 -0.2704  0.6917 -0.5237
 1860WAT    EPW 8148   3.561   0.392   6.750 -0.0934  0.3417  0.0620
 1861WAT      O 8149   4.385   7.702   3.190 -0.3542 -0.1122 -0.5338
 1861WAT     H1 8150   4.444   7.669   3.135 -0.1894  1.0321 -1.0551
 1861WAT     H2 8151   4.336   7.754   3.140  0.4131  1.7389  0.5435
 1861WAT    EPW 8152   4.386   7.704   3.174 -0.1111  0.1753  0.0592
 1862WAT      O 8153   4.606   7.656   5.765  0.4286 -0.2981 -0.3918
 1862WAT     H1 8154   4.687   7.624   5.765  0.1532 -1.0665  1.0504
 1862WAT     H2 8155   4.561   7.600   5.716  0.3691 -1.0397  0.4824
 1862WAT    EPW 8156   4.611   7.643   5.758 -0.0468  0.5037 -0.0209
 1863WAT      O 8157   7.310   5.772   2.686  0.4222 -0.1981 -0.0168
 1863WAT     H1 8158   7.347   5.834   2.636  1.1899 -1.4080 -0.9913
 1863WAT     H2 8159   7.362   5.703   2.677 -1.1915 -1.4739 -0.1333
 1863WAT    EPW 8160   7.323   5.771   2.677 -0.8563  0.3505 -0.5536
 1864WAT      O 8161   5.720   0.203   7.615  0.4591  0.3704  0.3223
 1864WAT     H1 8162   5.702   0.287   7.628  1.1930  0.3691  1.5406
 1864WAT     H2 8163   5.690   0.165   7.688 -0.2352 -0.4884 -0.3929
 1864WAT    EPW 8164   5.713   0.210   7.628 -0.6029  0.4577 -0.0783
 1865WAT      O 8165   3.181   7.868   4.467  0.4461 -0.1730 -0.1343
 1865WAT     H1 8166   3.224   7.943   4.462 -0.7353  0.5799  0.5399
 1865WAT     H2 8167   3.236   7.815   4.509  0.8034  0.7010  0.5151
 1865WAT    EPW 8168   3.195   7.871   4.472  0.6474 -0.6314  0.3119
 1866WAT      O 8169   2.448   5.459   3.793  0.1410 -0.1281  0.5281
 1866WAT     H1 8170   2.395   5.442   3.727 -1.6974 -2.5317  2.4211
 1866WAT     H2 8171   2.440   5.545   3.805  0.9275  0.4735 -2.5284
 1866WAT    EPW 8172   2.439   5.470   3.785 -0.3730  0.7329  0.0882
 1867WAT      O 8173   5.524   2.049   1.534 -0.4924 -0.1544 -0.4346
 1867WAT     H1 8174   5.500   2.021   1.613 -1.1631 -0.8145 -0.8584
 1867WAT     H2 8175   5.497   1.986   1.481  1.7640 -0.6889 -1.0248
 1867WAT    EPW 8176   5.516   2.036   1.538  0.2231 -0.1372 -0.2011
 1868WAT      O 8177   3.327   0.277   4.603 -0.2549  0.4945  0.3465
 1868WAT     H1 8178   3.319   0.329   4.533 -0.9235  0.6105  0.5050
 1868WAT     H2 8179   3.393   0.314   4.648 -1.0980  1.5605  0.7487
 1868WAT    EPW 8180   3.336   0.290   4.599 -0.3581  0.0235  0.2438
 1869WAT      O 8181   5.360   7.510   3.943 -0.1736  0.3290 -0.3848
 1869WAT     H1 8182   5.281   7.546   3.934  0.0542  0.7398 -0.7675
 1869WAT     H2 8183   5.344   7.424   3.940 -0.6298  0.4052 -0.2422
 1869WAT    EPW 8184   5.346   7.503   3.941 -0.5513  0.1876  0.1102
 1870WAT      O 8185   7.030   1.428   1.657 -0.7773  0.2105 -0.5942
 1870WAT     H1 8186   7.051   1.366   1.715 -1.4191 -0.3981 -0.9932
 1870WAT     H2 8187   7.102   1.478   1.653 -0.3586 -0.3309 -0.0433
 1870WAT    EPW 8188   7.044   1.426   1.665  0.1445  0.0324 -0.1751
 1871WAT      O 8189   7.806   0.413   2.820  0.6989 -0.1518 -0.5235
 1871WAT     H1 8190   7.883   0.374   2.809  0.0211 -1.9463  0.4148
 1871WAT     H2 8191   7.754   0.373   2.762 -0.5862 -2.6517  2.0306
 1871WAT    EPW 8192   7.810   0.401   2.810 -0.1723 -0.4854  0.3410
 1872WAT      O 8193   3.352   2.177   5.608  0.1131  0.1488 -0.7798
 1872WAT     H1 8194   3.313   2.100   5.619 -0.6135  0.4595 -1.1107
 1872WAT     H2 8195   3.317   2.208   5.534  1.0553  0.4018 -1.1395
 1872WAT    EPW 8196   3.341   2.170   5.599 -0.2492 -0.4606 -0.2607
 1873WAT      O 8197   1.418   1.208   3.474 -0.4576  0.0759 -0.8356
 1873WAT     H1 8198   1.396   1.272   3.419 -1.7524 -1.4455 -2.1866
 1873WAT     H2 8199   1.440   1.142   3.421  1.7885 -0.3462  0.5082
 1873WAT    EPW 8200   1.418   1.208   3.458 -0.2480  0.1042  0.6006
 1874WAT      O 8201   4.289   0.782   3.140  0.1196  0.3078 -0.0196
 1874WAT     H1 8202   4.300   0.832   3.069 -0.5358 -0.3617 -0.6187
 1874WAT     H2 8203   4.207   0.798   3.165 -0.6718 -1.5292 -1.1478
 1874WAT    EPW 8204   4.279   0.792   3.133 -0.5812  0.2087  0.7943
 1875WAT      O 8205   2.565   6.394   6.615  0.3011 -0.1670 -0.1589
 1875WAT     H1 8206   2.510   6.356   6.672  1.5288 -2.6703 -0.5331
 1875WAT     H2 8207   2.640   6.399   6.659  0.8680 -0.7374 -1.0262
 1875WAT    EPW 8208   2.568   6.389   6.630  0.5863 -0.7477 -0.1978
 1876WAT      O 8209   5.660   2.048   6.164  0.2373 -0.3058  0.1599
 1876WAT     H1 8210   5.612   1.977   6.151 -0.6763  0.0080  1.6687
 1876WAT     H2 8211   5.633   2.103   6.102 -1.4195 -0.1260  0.9919
 1876WAT    EPW 8212   5.649   2.046   6.153  0.0022  0.5475  0.2934
 1877WAT      O 8213   3.540   0.600   4.896 -0.3626  0.0491  0.3887
 1877WAT     H1 8214   3.455   0.601   4.879 -0.4238 -0.7859  0.5860
 1877WAT     H2 8215   3.567   0.525   4.862  0.6395  1.0688 -1.1839
 1877WAT    EPW 8216   3.531   0.589   4.889 -0.5213 -0.5581  0.3804
 1878WAT      O 8217   6.248   2.610   1.481  1.0006  0.3939  0.0624
 1878WAT     H1 8218   6.257   2.524   1.487  0.1423  0.1419 -1.6637
 1878WAT     H2 8219   6.304   2.632   1.417  0.5715  0.9786 -0.1160
 1878WAT    EPW 8220   6.258   2.601   1.472 -0.3460  0.3466 -0.1486
 1879WAT      O 8221   4.387   2.653   7.258  0.1684  0.6136  0.2002
 1879WAT     H1 8222   4.413   2.677   7.179  0.5467  1.6994  0.6294
 1879WAT     H2 8223   4.434   2.705   7.311 -3.0126  2.9409  1.0323
 1879WAT    EPW 8224   4.398   2.664   7.254  0.0917  0.1704  0.1099
 1880WAT      O 8225   5.908   6.237   2.747 -0.2796  0.2080 -0.0525
 1880WAT     H1 8226   5.955   6.303   2.781  0.0015 -0.1450  0.2565
 1880WAT     H2 8227   5.964   6.170   2.749 -1.1199 -0.4869  1.3024
 1880WAT    EPW 8228   5.923   6.237   2.753  0.3561 -0.1035 -0.6912
 1881WAT      O 8229   0.438   2.376   2.067 -0.3074 -0.1373 -0.0487
 1881WAT     H1 8230   0.387   2.313   2.099 -0.1963 -0.7925 -1.1091
 1881WAT     H2 8231   0.387   2.417   2.010  0.1213 -0.3406 -0.5879
 1881WAT    EPW 8232   0.423   2.373   2.063  0.2598 -0.0012 -0.2852
 1882WAT      O 8233   0.888   4.789   4.982  0.0939 -0.6704  0.1062
 1882WAT     H1 8234   0.896   4.842   5.050  1.1523 -0.3278 -0.2758
 1882WAT     H2 8235   0.913   4.837   4.914 -1.4139 -0.8464 -0.6320
 1882WAT    EPW 8236   0.893   4.804   4.982  0.3087  0.0795 -0.2447
 1883WAT      O 8237   1.382   5.086   5.764 -0.2769 -0.1108  0.0498
 1883WAT     H1 8238   1.397   5.010   5.724 -1.6112 -0.4954  0.2290
 1883WAT     H2 8239   1.415   5.075   5.843  2.3112  0.6242 -0.8280
 1883WAT    EPW 8240   1.389   5.073   5.769  0.3900 -0.6085  0.0454
 1884WAT      O 8241   2.104   0.206   5.285  0.1319  0.0376  0.6926
 1884WAT     H1 8242   2.049   0.220   5.352 -1.4193 -0.2701 -0.4457
 1884WAT     H2 8243   2.054   0.165   5.226  1.2696  0.8135 -0.8908
 1884WAT    EPW 8244   2.088   0.202   5.286 -0.2162  0.6412  0.3197
 1885WAT      O 8245   7.387   7.562   0.169  0.0093  0.0087  0.7524
 1885WAT     H1 8246   7.427   7.574   0.093 -1.7418  0.0003 -0.2114
 1885WAT     H2 8247   7.338   7.633   0.178 -0.7421 -0.5614  1.2575
 1885WAT    EPW 8248   7.386   7.574   0.159 -0.1496  0.2261 -0.3769
 1886WAT      O 8249   3.200   0.467   3.078  0.5785  0.2111 -0.5964
 1886WAT     H1 8250   3.236   0.431   3.148 -0.0458 -0.3807 -0.5626
 1886WAT     H2 8251   3.115   0.447   3.086  0.4270  0.5533 -1.2645
 1886WAT    EPW 8252   3.193   0.459   3.089  0.4468  0.7114 -0.1607
 1887WAT      O 8253   8.051   4.243   3.514  0.0029  0.2003  0.1311
 1887WAT     H1 8254   8.080   4.238   3.596  1.1738  0.3560 -0.2596
 1887WAT     H2 8255   8.038   4.329   3.503 -0.1969  0.1746  0.1690
 1887WAT    EPW 8256   8.053   4.255   3.524  0.6160 -0.7486 -0.1265
 1888WAT      O 8257   3.972   0.698   4.664 -0.4338 -0.0410 -0.2252
 1888WAT     H1 8258   3.965   0.612   4.646 -0.3688 -0.2816  0.8413
 1888WAT     H2 8259   3.890   0.722   4.683 -0.7034  0.4804 -1.9183
 1888WAT    EPW 8260   3.959   0.689   4.664 -0.6988 -0.9477  0.3184
 1889WAT      O 8261   4.397   8.035   4.092 -0.1147  0.2594 -0.2503
 1889WAT     H1 8262   4.361   8.032   4.012  1.0577 -2.3203 -0.7691
 1889WAT     H2 8263   4.481   8.020   4.077  0.1093 -0.4218  1.4773
 1889WAT    EPW 8264   4.404   8.032   4.078  0.3498  0.2992 -0.3834
 1890WAT      O 8265   1.403   7.168   3.502  0.1318  0.2805  0.4397
 1890WAT     H1 8266   1.410   7.087   3.536 -4.4857 -0.1793  0.9714
 1890WAT     H2 8267   1.418   7.220   3.571 -0.4871 -0.3208  1.0486
 1890WAT    EPW 8268   1.406   7.163   3.517 -0.3804 -0.1339  0.0551
 1891WAT      O 8269   0.207   2.531   4.355  0.1067  0.2958  0.2387
 1891WAT     H1 8270   0.277   2.573   4.383 -0.8336  1.2560  1.2509
 1891WAT     H2 8271   0.159   2.594   4.317 -1.6342  0.3827  2.3679
 1891WAT    EPW 8272   0.210   2.547   4.353 -0.4124 -0.7228  0.7241
 1892WAT      O 8273   2.113   1.586   1.986  0.4215  0.6775 -0.1044
 1892WAT     H1 8274   2.192   1.550   1.989  0.1540  0.1007  0.2440
 1892WAT     H2 8275   2.084   1.580   2.068 -0.3635 -0.0268 -0.4066
 1892WAT    EPW 8276   2.120   1.580   1.998 -0.0445 -0.0505 -0.4747
 1893WAT      O 8277   2.104   1.120   1.408 -0.5452  0.2172  0.2669
 1893WAT     H1 8278   2.053   1.049   1.411 -0.3129  0.0007 -0.6183
 1893WAT     H2 8279   2.155   1.112   1.478  1.3812 -1.9523 -1.2616
 1893WAT    EPW 8280   2.104   1.108   1.419 -0.5185 -0.3970  0.3276
 1894WAT      O 8281   2.880   1.059   0.285  0.0593  0.2813  0.2608
 1894WAT     H1 8282   2.908   1.041   0.366 -0.4770 -1.8464  0.0343
 1894WAT     H2 8283   2.890   0.983   0.243 -2.2648  0.5185 -0.8894
 1894WAT    EPW 8284   2.886   1.045   0.291  0.3602  0.0378 -0.2468
 1895WAT      O 8285   6.591   1.574   3.755 -0.1099 -0.2115  0.3557
 1895WAT     H1 8286   6.624   1.493   3.756  2.0231  0.5955  0.6957
 1895WAT     H2 8287   6.546   1.577   3.681  2.0396 -0.9191 -1.0853
 1895WAT    EPW 8288   6.589   1.563   3.744  0.1963 -0.5139  0.2409
 1896WAT      O 8289   5.695   3.093   2.470 -0.2338 -0.0896 -0.0216
 1896WAT     H1 8290   5.762   3.070   2.419  0.8080 -0.1632  1.3154
 1896WAT     H2 8291   5.727   3.084   2.551 -0.5575  3.5773  0.6730
 1896WAT    EPW 8292   5.709   3.088   2.475  0.3748 -0.7382  0.1234
 1897WAT      O 8293   4.027   7.250   5.138  0.1466  0.2271  0.4562
 1897WAT     H1 8294   4.027   7.336   5.152 -3.3431  0.4413  0.0014
 1897WAT     H2 8295   3.974   7.240   5.069  0.2627 -2.3188  0.6265
 1897WAT    EPW 8296   4.019   7.261   5.130 -0.5764 -0.2251  0.0781
 1898WAT      O 8297   4.038   5.464   6.429  0.5820 -0.4170  0.4482
 1898WAT     H1 8298   3.969   5.445   6.379 -0.1108 -0.0057  1.2485
 1898WAT     H2 8299   4.008   5.523   6.485  1.8316  0.4782  0.2111
 1898WAT    EPW 8300   4.024   5.470   6.430  0.4314  0.7094  0.3590
 1899WAT      O 8301   5.399   6.989   5.126 -0.1454 -0.4628 -0.2720
 1899WAT     H1 8302   5.408   6.974   5.212 -0.5176 -1.5569 -0.4123
 1899WAT     H2 8303   5.397   6.909   5.091  1.0167 -0.0151 -1.4191
 1899WAT    EPW 8304   5.400   6.975   5.134  0.3520 -0.3723 -0.2483
 1900WAT      O 8305   6.720   0.465   4.749  0.5528 -0.1526  0.2251
 1900WAT     H1 8306   6.727   0.530   4.807  1.0007 -1.3885  1.6057
 1900WAT     H2 8307   6.647   0.424   4.772  0.1020  0.0182 -0.8363
 1900WAT    EPW 8308   6.710   0.469   4.761  0.1771 -0.3944 -0.0438
 1901WAT      O 8309   3.551   5.098   3.258  0.0658  0.0674  0.4575
 1901WAT     H1 8310   3.486   5.061   3.214 -0.0486  0.3801  0.3662
 1901WAT     H2 8311   3.568   5.040   3.321  0.2602 -0.4022 -0.0161
 1901WAT    EPW 8312   3.544   5.084   3.261  0.2970 -0.3114 -0.3274
 1902WAT      O 8313   7.771   2.994   3.339 -0.0828  0.2936  0.6080
 1902WAT     H1 8314   7.798   2.962   3.416  1.2771  0.1151  0.0804
 1902WAT     H2 8315   7.814   3.070   3.332  0.3490 -0.0224 -0.2800
 1902WAT    EPW 8316   7.782   3.000   3.350 -0.2387 -0.6196 -0.0188
 1903WAT      O 8317   0.256   2.071   0.191  0.0197  0.5100 -0.3747
 1903WAT     H1 8318   0.171   2.081   0.203 -0.0353 -0.9648  0.6010
 1903WAT     H2 8319   0.275   1.996   0.231  1.1356 -1.0415 -3.4747
 1903WAT    EPW 8320   0.246   2.062   0.198 -0.0091  0.2678 -0.4839
 1904WAT      O 8321   0.452   1.575   0.756  0.6031  0.1376  0.0021
 1904WAT     H1 8322   0.514   1.514   0.754  1.7616  1.2746 -0.2550
 1904WAT     H2 8323   0.496   1.650   0.745 -0.8420  0.9691 -0.4629
 1904WAT    EPW 8324   0.467   1.577   0.754 -0.3769 -0.0547  0.1651
 1905WAT      O 8325   7.702   2.423   3.165 -0.2746  0.2184  0.1206
 1905WAT     H1 8326   7.660   2.481   3.215 -0.2668  1.9630 -1.7724
 1905WAT     H2 8327   7.786   2.444   3.174 -0.2148  0.0618 -0.0651
 1905WAT    EPW 8328   7.708   2.435   3.174 -0.4504  0.0819 -0.0430
 1906WAT      O 8329   0.182   1.838   0.603 -0.2095 -0.1057  0.0523
 1906WAT     H1 8330   0.181   1.774   0.662 -0.5734  0.6903  0.9239
 1906WAT     H2 8331   0.196   1.910   0.651 -1.4324  0.6687 -0.7222
 1906WAT    EPW 8332   0.184   1.839   0.619 -0.2814 -0.2844 -0.5382
 1907WAT      O 8333   4.894   5.455   3.929 -0.2446  0.3599  0.1502
 1907WAT     H1 8334   4.808   5.442   3.929 -0.4268  1.4006 -0.6131
 1907WAT     H2 8335   4.901   5.542   3.937  0.7511  0.2362  0.7650
 1907WAT    EPW 8336   4.882   5.466   3.930  0.4365  0.0977 -0.1883
 1908WAT      O 8337   6.055   2.175   3.875  1.1400  0.4309  0.0548
 1908WAT     H1 8338   6.025   2.094   3.886 -0.9948  0.8959 -1.6254
 1908WAT     H2 8339   6.099   2.170   3.800  2.1939  0.5511  0.6561
 1908WAT    EPW 8340   6.057   2.162   3.866  0.4400 -0.3245  0.5166
 1909WAT      O 8341   3.740   2.276   5.025  0.1208 -0.2904 -1.2565
 1909WAT     H1 8342   3.668   2.274   4.976  0.1639  0.5977 -1.3670
 1909WAT     H2 8343   3.763   2.360   5.024  0.8258 -0.4718 -0.7349
 1909WAT    EPW 8344   3.733   2.288   5.017 -0.5331  0.2491 -0.4189
 1910WAT      O 8345   7.210   7.119   2.940  0.1049 -0.2205  0.2092
 1910WAT     H1 8346   7.215   7.140   2.856  1.3946 -2.4015 -0.3571
 1910WAT     H2 8347   7.247   7.187   2.981 -0.7313  0.9565 -0.9262
 1910WAT    EPW 8348   7.216   7.132   2.934  0.1458 -0.0445 -0.0511
 1911WAT      O 8349   6.900   5.282   3.352  0.9508  0.4200 -0.2340
 1911WAT     H1 8350   6.963   5.222   3.360 -1.4080 -2.6336 -2.4018
 1911WAT     H2 8351   6.844   5.261   3.416 -0.2312 -0.2602 -1.4423
 1911WAT    EPW 8352   6.901   5.270   3.363 -0.1133 -0.1118  0.5024
 1912WAT      O 8353   4.573   3.236   7.868  0.7191  0.1465 -0.3229
 1912WAT     H1 8354   4.621   3.225   7.940  1.7543 -0.2849 -1.0658
 1912WAT     H2 8355   4.617   3.193   7.807 -0.6321 -0.2725 -1.0374
 1912WAT    EPW 8356   4.587   3.228   7.870 -0.0741 -0.1117 -0.4594
 1913WAT      O 8357   3.839   6.723   1.749  0.0509 -0.4145  0.3908
 1913WAT     H1 8358   3.899   6.781   1.775 -0.2177  1.3499 -2.5009
 1913WAT     H2 8359   3.769   6.744   1.796  0.4218  0.5546  0.5381
 1913WAT    EPW 8360   3.838   6.735   1.760 -0.5205  0.3990 -0.5922
 1914WAT      O 8361   7.101   6.481   1.742 -0.2293  0.3378 -0.0553
 1914WAT     H1 8362   7.103   6.405   1.786  1.6004  0.4992  0.1909
 1914WAT     H2 8363   7.080   6.539   1.803  1.3964  0.4320  0.4401
 1914WAT    EPW 8364   7.098   6.478   1.757 -0.6174  0.1632  0.5289
 1915WAT      O 8365   5.106   0.866   8.014 -0.3356 -0.2674  0.3359
 1915WAT     H1 8366   5.163   0.807   8.045  1.3696  1.8109  1.4174
 1915WAT     H2 8367   5.143   0.942   8.033 -3.1712  1.2269  0.4309
 1915WAT    EPW 8368   5.120   0.868   8.021 -0.2404  0.4619 -0.0276
 1916WAT      O 8369   1.496   6.506   3.253  0.0012 -0.1895  0.1337
 1916WAT     H1 8370   1.410   6.521   3.245 -1.1829 -3.8733  3.0956
 1916WAT     H2 8371   1.509   6.437   3.200  0.6555 -0.8330  1.1060
 1916WAT    EPW 8372   1.485   6.498   3.244  0.2340  0.0200 -0.1861
 1917WAT      O 8373   4.281   6.952   5.715 -0.8683  0.3960  0.4826
 1917WAT     H1 8374   4.260   6.871   5.741 -1.2301  0.3352  0.0027
 1917WAT     H2 8375   4.249   6.957   5.634 -0.8036  1.0041  0.4904
 1917WAT    EPW 8376   4.273   6.941   5.707 -0.3983  0.4487 -0.5368
 1918WAT      O 8377   0.863   1.666   4.933 -0.1160 -0.1690  0.0040
 1918WAT     H1 8378   0.782   1.637   4.922 -0.5960  1.4266 -0.9612
 1918WAT     H2 8379   0.853   1.750   4.953  1.2907  0.2084 -0.6981
 1918WAT    EPW 8380   0.850   1.674   4.934  0.2595 -0.3624 -0.1142
 1919WAT      O 8381   2.248   7.458   1.727 -0.5549 -0.0934  0.1082
 1919WAT     H1 8382   2.262   7.535   1.765 -2.7329  0.4585 -0.0421
 1919WAT     H2 8383   2.238   7.403   1.795 -0.6511  0.1125  0.2625
 1919WAT    EPW 8384   2.249   7.461   1.743 -0.2484 -0.2396  0.2405
 1920WAT      O 8385   0.789   6.997   2.721 -0.3818  0.5035 -0.7200
 1920WAT     H1 8386   0.822   6.924   2.757  2.6754  0.6176 -2.9332
 1920WAT     H2 8387   0.857   7.050   2.715 -1.6196  2.0071 -2.8963
 1920WAT    EPW 8388   0.804   6.994   2.725 -0.1039 -0.8160 -0.2024
 1921WAT      O 8389   1.979   4.516   1.644 -0.0749 -0.1259  0.1520
 1921WAT     H1 8390   1.982   4.580   1.703  4.9282  0.3818 -0.1800
 1921WAT     H2 8391   1.969   4.558   1.568 -2.2070 -0.3693  0.2562
 1921WAT    EPW 8392   1.978   4.531   1.641  0.3879  0.0480  0.3485
 1922WAT      O 8393   7.242   5.548   1.059 -0.7680 -0.0874  0.7034
 1922WAT     H1 8394   7.209   5.496   0.998 -0.1563 -0.1793  0.4442
 1922WAT     H2 8395   7.172   5.584   1.096 -1.2288 -1.5312  1.2920
 1922WAT    EPW 8396   7.227   5.546   1.055 -0.5594 -0.1510 -0.1056
 1923WAT      O 8397   5.566   7.349   3.538 -0.1787 -0.4879  0.5609
 1923WAT     H1 8398   5.541   7.298   3.472 -0.5779  1.0234 -0.5025
 1923WAT     H2 8399   5.639   7.388   3.508 -0.6111  0.5527  0.7973
 1923WAT    EPW 8400   5.573   7.347   3.524 -0.3344 -0.4435  0.0075
 1924WAT      O 8401   7.574   0.997   4.593 -0.3144 -0.0096  0.6938
 1924WAT     H1 8402   7.553   1.015   4.675 -2.2516 -0.3793  0.3123
 1924WAT     H2 8403   7.522   1.049   4.546 -1.3442 -1.8354 -0.3132
 1924WAT    EPW 8404   7.563   1.007   4.598 -0.0926 -0.3595 -0.6462
 1925WAT      O 8405   0.045   2.077   2.165 -0.1400 -0.3644 -0.0917
 1925WAT     H1 8406   0.059   2.123   2.092  0.1280  0.3967  0.4277
 1925WAT     H2 8407  -0.017   2.122   2.206 -2.2814 -2.2185 -1.0669
 1925WAT    EPW 8408   0.038   2.090   2.160  0.4324 -0.2337 -0.3379
 1926WAT      O 8409   3.002   7.733   5.661 -0.1063  0.3782 -0.1437
 1926WAT     H1 8410   3.045   7.789   5.610 -0.9639  2.2704  1.0542
 1926WAT     H2 8411   3.065   7.687   5.700  0.6848  1.0563 -0.5972
 1926WAT    EPW 8412   3.017   7.735   5.660  0.1744  0.6662 -0.4929
 1927WAT      O 8413   6.486   7.139   0.867 -0.0594  0.2373  0.5348
 1927WAT     H1 8414   6.423   7.190   0.835 -1.2216  0.1829  2.5362
 1927WAT     H2 8415   6.556   7.161   0.820 -1.1429  1.6543 -0.5220
 1927WAT    EPW 8416   6.487   7.150   0.856  0.1669 -0.0561  0.1411
 1928WAT      O 8417   6.091   5.535   3.835  0.1744 -0.7499 -0.4830
 1928WAT     H1 8418   6.055   5.612   3.853 -0.4330 -0.6892 -1.8747
 1928WAT     H2 8419   6.040   5.478   3.878  0.4410 -0.4228  0.2930
 1928WAT    EPW 8420   6.078   5.538   3.844 -0.1223  0.4482  0.4390
 1929WAT      O 8421   1.661   5.759   6.777  0.2041  0.0537  0.3044
 1929WAT     H1 8422   1.634   5.817   6.836 -1.3539  0.9206 -1.1893
 1929WAT     H2 8423   1.623   5.684   6.802  0.1190  0.2587  0.7896
 1929WAT    EPW 8424   1.652   5.756   6.789 -0.2419 -0.3549 -0.0677
 1930WAT      O 8425   3.441   7.785   7.821 -0.0728  0.3022 -0.1180
 1930WAT     H1 8426   3.454   7.870   7.806  1.4589  0.3797  1.3835
 1930WAT     H2 8427   3.366   7.768   7.779  0.3051  2.0470 -1.6375
 1930WAT    EPW 8428   3.432   7.795   7.813 -0.7375 -0.5639  0.6114
 1931WAT      O 8429   2.855   2.427   2.645 -0.2372  0.4239 -0.5962
 1931WAT     H1 8430   2.892   2.418   2.566  0.6489  0.9170 -0.2534
 1931WAT     H2 8431   2.773   2.402   2.632  0.1798 -0.6301 -1.4224
 1931WAT    EPW 8432   2.849   2.422   2.632  0.1120 -0.8186  0.2109
 1932WAT      O 8433   1.503   7.867   1.225 -0.0380 -0.0621 -0.6083
 1932WAT     H1 8434   1.464   7.799   1.187 -1.7411  0.3647  0.2816
 1932WAT     H2 8435   1.456   7.881   1.297  2.0467  0.2448  0.7946
 1932WAT    EPW 8436   1.490   7.859   1.230  0.1726  0.2380 -0.2523
 1933WAT      O 8437   6.002   1.714   1.554  0.3526 -0.0127 -0.0680
 1933WAT     H1 8438   5.978   1.762   1.485 -1.7407 -1.1719 -0.2303
 1933WAT     H2 8439   5.950   1.743   1.618 -0.4948 -1.5510 -0.0146
 1933WAT    EPW 8440   5.991   1.725   1.553  0.7241  0.6393  0.8003
 1934WAT      O 8441   0.780   0.758   3.959  0.1190  0.1992  0.3434
 1934WAT     H1 8442   0.716   0.810   3.988  1.0549  1.4753  0.2337
 1934WAT     H2 8443   0.753   0.678   3.980 -1.4759  0.7037  0.3377
 1934WAT    EPW 8444   0.767   0.754   3.966 -0.0868 -0.3050  0.8481
 1935WAT      O 8445   1.530   3.488   7.872  0.2038 -0.0024 -0.6680
 1935WAT     H1 8446   1.587   3.515   7.932  0.4920 -1.2204 -0.3730
 1935WAT     H2 8447   1.482   3.429   7.914 -0.3774  0.0039 -1.3075
 1935WAT    EPW 8448   1.531   3.483   7.887 -0.1273 -0.3532  0.5038
 1936WAT      O 8449   0.708   0.320   1.500  0.0796 -0.3003  0.3484
 1936WAT     H1 8450   0.640   0.339   1.551  0.4598 -0.3362  0.8740
 1936WAT     H2 8451   0.675   0.263   1.442 -0.8531  1.2619 -0.7144
 1936WAT    EPW 8452   0.693   0.314   1.499  0.1621 -0.1213 -0.5776
 1937WAT      O 8453   5.987   0.323   2.291 -0.8010  0.3898 -0.1533
 1937WAT     H1 8454   6.040   0.350   2.227 -0.0817  0.3408  0.4093
 1937WAT     H2 8455   5.976   0.394   2.340  0.0722  0.0153  0.6257
 1937WAT    EPW 8456   5.993   0.337   2.289 -0.2348  0.3001 -0.1049
 1938WAT      O 8457   2.798   6.828   4.390 -0.2706  0.1658  0.2287
 1938WAT     H1 8458   2.787   6.742   4.384 -1.0079  0.3527 -2.2056
 1938WAT     H2 8459   2.885   6.837   4.391 -0.1587 -0.5909 -0.6626
 1938WAT    EPW 8460   2.809   6.817   4.389  0.4369 -0.0914  0.3508
 1939WAT      O 8461   4.749   6.909   3.194  0.4836 -0.1856  0.0476
 1939WAT     H1 8462   4.832   6.910   3.164 -0.0036 -1.1461 -1.4421
 1939WAT     H2 8463   4.725   6.992   3.187  0.7755 -0.1831 -1.2063
 1939WAT    EPW 8464   4.758   6.921   3.188 -0.5504  0.4825 -0.1610
 1940WAT      O 8465   5.735   6.634   0.349 -0.2735  0.1189  0.8724
 1940WAT     H1 8466   5.818   6.645   0.374 -0.1090 -1.5852  1.1590
 1940WAT     H2 8467   5.737   6.562   0.300 -1.8073 -0.9419  2.2304
 1940WAT    EPW 8468   5.748   6.625   0.346  0.3032  0.3737  0.0366
 1941WAT      O 8469   7.037   5.102   2.339 -0.3616 -0.2512  0.2442
 1941WAT     H1 8470   7.104   5.048   2.350 -0.6744 -0.1602  3.5763
 1941WAT     H2 8471   7.049   5.135   2.259  2.2733 -1.9065 -0.1326
 1941WAT    EPW 8472   7.049   5.099   2.329 -0.3494 -0.0392 -0.2590
 1942WAT      O 8473   3.285   0.981   3.257  0.6436 -0.2657 -0.0394
 1942WAT     H1 8474   3.223   1.012   3.311  0.4403 -0.0514 -0.3923
 1942WAT     H2 8475   3.276   0.895   3.262 -0.9780 -0.2376 -1.5501
 1942WAT    EPW 8476   3.275   0.973   3.266 -0.1403 -0.0152 -0.1284
 1943WAT      O 8477   3.109   1.411   6.157  0.7338 -0.5149  0.3094
 1943WAT     H1 8478   3.069   1.341   6.189  0.3969  0.1792  1.4761
 1943WAT     H2 8479   3.161   1.437   6.222  0.4262  0.6326  0.1306
 1943WAT    EPW 8480   3.111   1.405   6.171  0.7984  0.3412 -0.3173
 1944WAT      O 8481   6.971   7.410   2.839  0.1232  0.2582  0.3850
 1944WAT     H1 8482   6.943   7.396   2.758 -0.5671 -1.3611  0.8623
 1944WAT     H2 8483   7.045   7.454   2.828 -0.5167  1.0581 -1.0669
 1944WAT    EPW 8484   6.977   7.415   2.826  0.1234 -0.1003  0.4003
 1945WAT      O 8485   5.792   1.478   5.063  0.0596 -0.5095 -0.3988
 1945WAT     H1 8486   5.879   1.482   5.055  0.2185 -1.1661  0.7880
 1945WAT     H2 8487   5.780   1.431   5.135 -1.2922 -0.3654 -0.5013
 1945WAT    EPW 8488   5.803   1.472   5.072  0.0037  0.5734 -0.6160
 1946WAT      O 8489   4.779   6.163   2.911  0.0493 -0.1139  0.5463
 1946WAT     H1 8490   4.839   6.139   2.970  1.0376 -1.1867 -0.8191
 1946WAT     H2 8491   4.749   6.086   2.882 -1.2543  0.4121  0.4713
 1946WAT    EPW 8492   4.784   6.148   2.915  0.3313 -0.5015 -0.1817
 1947WAT      O 8493   1.977   1.231   4.402  0.4158  0.0350 -0.3190
 1947WAT     H1 8494   2.003   1.262   4.324  0.3950  3.2202  0.7590
 1947WAT     H2 8495   2.049   1.238   4.451 -0.2004  0.6300  0.5433
 1947WAT    EPW 8496   1.991   1.237   4.398  0.3377  0.2169  0.0170
 1948WAT      O 8497   0.391   3.874   2.167 -0.6323  0.3942 -0.3950
 1948WAT     H1 8498   0.375   3.959   2.156 -0.6079  0.5601  0.6755
 1948WAT     H2 8499   0.405   3.867   2.253 -0.1993 -0.6213 -0.5288
 1948WAT    EPW 8500   0.391   3.885   2.178  0.1197  0.6173 -0.1784
 1949WAT      O 8501   2.516   2.061   4.334 -0.1339  0.3829  0.5471
 1949WAT     H1 8502   2.480   2.140   4.324  0.8548  0.9601  1.3392
 1949WAT     H2 8503   2.561   2.069   4.408  0.9440 -0.5579  0.0223
 1949WAT    EPW 8504   2.517   2.074   4.343  0.4205  0.2190 -0.3069
 1950WAT      O 8505   5.922   0.245   2.738 -0.0949  0.2740  0.2335
 1950WAT     H1 8506   5.857   0.301   2.722 -0.3358 -0.1530 -0.3137
 1950WAT     H2 8507   5.975   0.256   2.670 -1.9995 -2.8249 -2.0089
 1950WAT    EPW 8508   5.920   0.255   2.726 -0.3020 -0.0196 -0.5836
 1951WAT      O 8509   7.210   1.920   4.278  0.2348  0.1364  0.5387
 1951WAT     H1 8510   7.155   1.941   4.343 -0.2035  0.4670  0.0641
 1951WAT     H2 8511   7.289   1.929   4.315 -0.0092 -1.7896  1.6953
 1951WAT    EPW 8512   7.213   1.924   4.293 -0.2465 -0.0980  0.0912
 1952WAT      O 8513   6.745   7.875   3.216 -0.2676 -0.3214 -0.2155
 1952WAT     H1 8514   6.680   7.919   3.179 -0.0754 -0.5847 -0.8764
 1952WAT     H2 8515   6.781   7.831   3.150 -0.9361 -2.0932  0.5446
 1952WAT    EPW 8516   6.741   7.875   3.201 -0.0059  0.2820 -0.0974
 1953WAT      O 8517   5.026   7.665   3.284 -0.3532  0.0732 -0.3477
 1953WAT     H1 8518   5.054   7.602   3.338 -2.9466 -0.3148  0.6857
 1953WAT     H2 8519   5.012   7.733   3.337 -0.5113  0.5212 -0.9514
 1953WAT    EPW 8520   5.028   7.666   3.300 -0.0204  0.3688  0.4634
 1954WAT      O 8521   0.792   1.028   4.766  0.0241 -0.0182 -0.7462
 1954WAT     H1 8522   0.817   0.971   4.704  0.1584 -0.2658 -0.4658
 1954WAT     H2 8523   0.741   0.980   4.818  0.1113  0.1262 -0.5244
 1954WAT    EPW 8524   0.788   1.012   4.764  0.0447  0.2825  0.6053
 1955WAT      O 8525   7.607   7.695   0.022 -0.0367 -0.3805  0.4045
 1955WAT     H1 8526   7.600   7.717   0.106 -1.6796  0.1008  0.1645
 1955WAT     H2 8527   7.612   7.771  -0.020 -0.1489 -0.5876  0.0027
 1955WAT    EPW 8528   7.607   7.709   0.028 -0.0075  0.1703  0.2738
 1956WAT      O 8529   5.779   2.181   1.845 -0.4028 -0.3387  0.2453
 1956WAT     H1 8530   5.780   2.153   1.763 -1.1347  1.1413 -0.2850
 1956WAT     H2 8531   5.799   2.109   1.891 -0.7529 -1.3639 -1.1509
 1956WAT    EPW 8532   5.782   2.166   1.840 -0.7347  0.1522 -0.2633
 1957WAT      O 8533   2.707   1.403   4.151  0.5205  0.0056 -0.0695
 1957WAT     H1 8534   2.667   1.388   4.075 -0.0942 -0.4821  0.3422
 1957WAT     H2 8535   2.684   1.484   4.171  1.0571  0.3037 -0.6176
 1957WAT    EPW 8536   2.698   1.412   4.143 -0.7406 -0.0801  0.0536
 1958WAT      O 8537   6.871   6.874   3.295  0.4941 -0.1559 -0.4590
 1958WAT     H1 8538   6.802   6.897   3.247 -0.7758  0.3928  1.5168
 1958WAT     H2 8539   6.904   6.951   3.321  0.9104 -0.4477 -0.1119
 1958WAT    EPW 8540   6.866   6.889   3.292 -0.8715  0.0781 -0.1058
 1959WAT      O 8541   0.219   0.032   2.548 -0.4348  0.4150 -0.2928
 1959WAT     H1 8542   0.174  -0.042   2.552 -0.3495  0.2520 -1.7098
 1959WAT     H2 8543   0.256   0.038   2.627 -0.0566 -1.3037 -0.3020
 1959WAT    EPW 8544   0.218   0.022   2.560  0.2551 -0.2329 -0.6328
 1960WAT      O 8545   6.322   4.624   4.204 -0.3218  0.6171 -0.0305
 1960WAT     H1 8546   6.268   4.657   4.264 -1.2320  0.4931 -0.7671
 1960WAT     H2 8547   6.375   4.572   4.250 -1.3655  0.0836  0.5899
 1960WAT    EPW 8548   6.322   4.621   4.220 -0.4415  0.0799 -0.0672
 1961WAT      O 8549   1.724   5.676   2.392  0.2449  0.2744 -0.2930
 1961WAT     H1 8550   1.741   5.761   2.386 -1.5120  0.6156 -0.9013
 1961WAT     H2 8551   1.720   5.650   2.308  0.0612 -0.2485 -0.1269
 1961WAT    EPW 8552   1.726   5.685   2.378 -0.1875 -0.2904 -0.0476
 1962WAT      O 8553   4.505   1.024   2.312 -0.0424  0.1239  0.0311
 1962WAT     H1 8554   4.425   1.011   2.346  0.7221  0.8928  2.2567
 1962WAT     H2 8555   4.515   1.110   2.315  0.4378  0.1379 -1.3676
 1962WAT    EPW 8556   4.494   1.035   2.317 -0.7023  0.6620 -0.2564
 1963WAT      O 8557   5.748   7.220   7.468 -0.2658  0.3354 -0.2009
 1963WAT     H1 8558   5.772   7.302   7.451 -0.2879  0.3657 -0.0914
 1963WAT     H2 8559   5.814   7.188   7.516  0.5586 -0.2668 -1.6947
 1963WAT    EPW 8560   5.761   7.228   7.473  0.1848 -0.0012  0.1495
 1964WAT      O 8561   3.348   2.880   0.494 -0.0949 -0.4277 -0.2844
 1964WAT     H1 8562   3.362   2.819   0.555  0.8815  1.2300  1.2909
 1964WAT     H2 8563   3.274   2.918   0.519  0.1869  0.1121 -0.2524
 1964WAT    EPW 8564   3.339   2.877   0.507 -0.1206  0.3411 -0.3621
 1965WAT      O 8565   7.179   4.922   0.852  0.0642  0.2301  0.6336
 1965WAT     H1 8566   7.250   4.972   0.848 -0.1297  0.6898  2.2049
 1965WAT     H2 8567   7.197   4.865   0.916  0.5037 -2.1532 -1.4619
 1965WAT    EPW 8568   7.192   4.921   0.861  0.0537 -0.3681  0.1509
 1966WAT      O 8569   0.347   1.230   0.784 -0.3492  0.7830 -0.1458
 1966WAT     H1 8570   0.335   1.151   0.818 -1.0680  1.3267  0.9203
 1966WAT     H2 8571   0.274   1.243   0.738 -0.5134  1.0584  0.1850
 1966WAT    EPW 8572   0.334   1.220   0.782 -0.2383  0.0821 -0.1983
 1967WAT      O 8573   6.612   6.176   0.768 -0.0835 -0.3067 -0.2728
 1967WAT     H1 8574   6.671   6.228   0.805 -1.5933  0.3425  1.3792
 1967WAT     H2 8575   6.575   6.226   0.707  0.8675 -0.6431 -1.1557
 1967WAT    EPW 8576   6.615   6.191   0.765 -0.2081  0.2660  0.1442
 1968WAT      O 8577   1.877   7.433   2.402 -0.1174  0.6225 -0.0311
 1968WAT     H1 8578   1.916   7.371   2.450 -1.8238 -0.4008  0.1359
 1968WAT     H2 8579   1.803   7.449   2.445 -1.6640 -0.2377 -2.1660
 1968WAT    EPW 8580   1.872   7.426   2.415  0.0949  0.1233  0.2217
 1969WAT      O 8581   2.820   7.698   3.090 -0.2628  0.2684 -0.5238
 1969WAT     H1 8582   2.846   7.717   3.009  0.9965 -2.8270 -0.9737
 1969WAT     H2 8583   2.733   7.707   3.086 -0.1848  0.6157 -2.0535
 1969WAT    EPW 8584   2.811   7.702   3.078  0.2997  0.4540 -0.0482
 1970WAT      O 8585   5.868   1.870   1.370  0.1834 -0.0210  0.1092
 1970WAT     H1 8586   5.865   1.909   1.292  2.2417 -1.6927 -0.8983
 1970WAT     H2 8587   5.872   1.936   1.426 -1.4322  1.2275 -1.1338
 1970WAT    EPW 8588   5.868   1.885   1.367  0.1882 -0.1869  0.1063
 1971WAT      O 8589   6.235   0.978   3.455  0.1513 -0.2978 -0.3587
 1971WAT     H1 8590   6.202   0.899   3.475  1.7334 -0.6391  1.1300
 1971WAT     H2 8591   6.245   1.016   3.533  0.4925  0.9264 -0.9835
 1971WAT    EPW 8592   6.231   0.972   3.470  0.4289  0.2292 -0.7343
 1972WAT      O 8593   2.252   2.290   3.926 -0.5997  0.0501  0.9115
 1972WAT     H1 8594   2.336   2.277   3.907 -0.5608  0.6709  0.6323
 1972WAT     H2 8595   2.240   2.246   4.000 -0.0395 -0.0810  0.9242
 1972WAT    EPW 8596   2.263   2.282   3.934 -0.3104 -0.1870 -0.6462
 1973WAT      O 8597   3.573   0.498   1.488 -0.7226 -0.3565 -0.2781
 1973WAT     H1 8598   3.627   0.543   1.437  0.5027 -0.9039  0.4925
 1973WAT     H2 8599   3.531   0.560   1.533 -0.3149  0.0595 -0.4669
 1973WAT    EPW 8600   3.575   0.514   1.487  0.3387 -0.3240  0.0813
 1974WAT      O 8601   1.016   5.326   0.376  0.1632 -0.1504 -0.0258
 1974WAT     H1 8602   0.965   5.256   0.368 -0.4262  0.0743  1.3927
 1974WAT     H2 8603   0.966   5.392   0.350 -0.2163  0.0328  1.0880
 1974WAT    EPW 8604   1.001   5.326   0.371  0.0578 -0.2973  0.1988
 1975WAT      O 8605   1.220   0.464   1.748  0.1176  0.4418 -0.8238
 1975WAT     H1 8606   1.156   0.524   1.752  1.7945  2.4603 -2.2077
 1975WAT     H2 8607   1.284   0.505   1.705  2.4918 -1.3685  0.7322
 1975WAT    EPW 8608   1.220   0.479   1.742 -0.3115  0.3549  0.1790
 1976WAT      O 8609   1.450   0.837   1.600 -0.2066 -0.0883  0.2356
 1976WAT     H1 8610   1.487   0.880   1.666  0.5387 -0.2744 -0.0473
 1976WAT     H2 8611   1.381   0.886   1.579 -0.2183  0.1800  0.8848
 1976WAT    EPW 8612   1.445   0.850   1.606  0.4105  0.0099  0.0111
 1977WAT      O 8613   5.245   2.115   1.955  0.2048 -0.4322  0.4455
 1977WAT     H1 8614   5.204   2.085   1.884 -1.9526 -1.8939  2.1513
 1977WAT     H2 8615   5.201   2.189   1.973  0.5018 -0.2593  0.4554
 1977WAT    EPW 8616   5.232   2.122   1.947  0.1253 -0.7302  0.3079
 1978WAT      O 8617   1.991   3.699   1.179 -0.4004 -0.3096  0.5775
 1978WAT     H1 8618   1.977   3.759   1.240  0.5963  0.2746  0.2582
 1978WAT     H2 8619   1.948   3.731   1.109  0.1392  0.0478  0.4043
 1978WAT    EPW 8620   1.982   3.713   1.178  0.3240  0.0753  0.1160
 1979WAT      O 8621   5.668   3.341   0.423 -0.1751 -0.6595  0.0899
 1979WAT     H1 8622   5.748   3.350   0.390 -0.4197  0.4011 -0.2516
 1979WAT     H2 8623   5.682   3.311   0.504  0.6374  0.6511  0.4605
 1979WAT    EPW 8624   5.681   3.338   0.430 -0.4971  0.2263 -0.3093
 1980WAT      O 8625   1.254   2.543   1.039  0.4000 -0.0756  0.1979
 1980WAT     H1 8626   1.332   2.505   1.052  1.1430  1.6489  1.1367
 1980WAT     H2 8627   1.253   2.608   1.097 -2.0132 -0.3796  0.6283
 1980WAT    EPW 8628   1.265   2.547   1.050 -0.2752  0.0918 -0.1346
 1981WAT      O 8629   0.643   0.219   0.412 -0.4093  0.1173 -0.5162
 1981WAT     H1 8630   0.633   0.244   0.329 -1.8911 -2.2009 -1.1624
 1981WAT     H2 8631   0.726   0.193   0.416  0.6428  3.1850 -0.2832
 1981WAT    EPW 8632   0.654   0.219   0.400  0.1069 -0.7206  0.0876
 1982WAT      O 8633   5.091   8.018   0.434  0.3233 -0.5271  0.3573
 1982WAT     H1 8634   5.062   7.939   0.459 -1.3564  0.5483  2.0686
 1982WAT     H2 8635   5.178   8.008   0.432  0.2809 -1.9677  2.3733
 1982WAT    EPW 8636   5.100   8.005   0.438  0.4327 -0.1610 -0.1462
 1983WAT      O 8637   6.871   2.521   1.016 -0.1948  0.1348 -0.4386
 1983WAT     H1 8638   6.862   2.595   1.061 -1.6481 -0.3211  0.0847
 1983WAT     H2 8639   6.936   2.480   1.058 -2.6180 -1.0741  2.5497
 1983WAT    EPW 8640   6.879   2.526   1.029 -0.4933  0.4616  0.5007
 1984WAT      O 8641   5.167   0.648   6.185  0.3398  0.1527  0.2050
 1984WAT     H1 8642   5.145   0.654   6.269  1.6814  0.7684  0.5475
 1984WAT     H2 8643   5.205   0.570   6.180 -0.4712 -0.2361 -0.0290
 1984WAT    EPW 8644   5.169   0.637   6.197 -0.1837 -0.3831  0.0826
 1985WAT      O 8645   6.617   5.270   0.515 -0.0321  0.2490 -0.7960
 1985WAT     H1 8646   6.582   5.345   0.542  0.1518 -0.0012  0.1964
 1985WAT     H2 8647   6.683   5.295   0.464  1.6093  0.8812  1.4660
 1985WAT    EPW 8648   6.622   5.285   0.512 -0.8055  0.0258  0.3778
 1986WAT      O 8649   6.090   7.275   1.253 -0.6966 -0.2285  0.3135
 1986WAT     H1 8650   6.130   7.316   1.188 -0.2898 -0.2167  0.5694
 1986WAT     H2 8651   6.098   7.191   1.233 -1.2852 -0.2044 -0.0660
 1986WAT    EPW 8652   6.097   7.269   1.240 -0.2362 -0.2291 -0.3691
 1987WAT      O 8653   6.366   7.307   7.992  0.2834  0.2588  0.4812
 1987WAT     H1 8654   6.295   7.355   8.009  0.0741 -0.7224  2.7698
 1987WAT     H2 8655   6.336   7.243   7.940  0.0267  1.1148 -0.4569
 1987WAT    EPW 8656   6.351   7.305   7.987  0.4311  0.0090  0.2690
 1988WAT      O 8657   1.905   7.081   2.389  0.4061  0.4576 -0.5580
 1988WAT     H1 8658   1.848   7.124   2.338  0.0198 -1.0780 -1.4740
 1988WAT     H2 8659   1.925   7.140   2.450 -2.0933  1.1259 -0.2556
 1988WAT    EPW 8660   1.899   7.096   2.390  0.1443 -0.1759  0.5465
 1989WAT      O 8661   0.182   2.895   0.222 -0.3113 -0.0382 -0.0230
 1989WAT     H1 8662   0.230   2.935   0.161 -0.4757 -0.3397 -0.3506
 1989WAT     H2 8663   0.169   2.958   0.281 -0.7370  0.4576 -0.6288
 1989WAT    EPW 8664   0.188   2.911   0.222  0.3085 -0.1574  0.8973
 1990WAT      O 8665   2.902   2.836   1.308 -0.2226  0.0273 -0.5952
 1990WAT     H1 8666   2.978   2.873   1.284 -0.4267  0.6089 -0.3647
 1990WAT     H2 8667   2.862   2.820   1.232  0.6157 -1.3667 -0.7794
 1990WAT    EPW 8668   2.908   2.839   1.294  0.4816 -0.3990  0.0234
 1991WAT      O 8669   1.392   3.587   3.896  0.0091 -0.1311 -0.0953
 1991WAT     H1 8670   1.462   3.640   3.897 -0.3773  0.3852  0.7754
 1991WAT     H2 8671   1.367   3.586   3.979 -0.7939 -0.6277 -0.3391
 1991WAT    EPW 8672   1.399   3.595   3.909 -0.1940 -0.0472 -0.4766
 1992WAT      O 8673   7.898   6.880   3.465 -0.2688 -0.0425 -0.4745
 1992WAT     H1 8674   7.865   6.824   3.524  0.1669  0.1616 -0.0329
 1992WAT     H2 8675   7.827   6.905   3.419 -0.8750  0.9158  0.9020
 1992WAT    EPW 8676   7.882   6.876   3.467 -0.0571  0.0638 -0.3655
 1993WAT      O 8677   4.419   4.457   2.317 -0.2529  0.4673 -0.0096
 1993WAT     H1 8678   4.386   4.468   2.237 -0.7545  0.2870  0.1683
 1993WAT     H2 8679   4.373   4.389   2.348 -1.0426  1.4090  0.9475
 1993WAT    EPW 8680   4.407   4.448   2.310  0.3532 -0.0213  0.5440
 1994WAT      O 8681   5.409   2.681   1.890  0.5941 -0.1048  0.0234
 1994WAT     H1 8682   5.473   2.661   1.945  0.5761 -0.5251 -0.1073
 1994WAT     H2 8683   5.389   2.605   1.852  0.3018  0.0972 -0.2383
 1994WAT    EPW 8684   5.415   2.667   1.892 -0.2828  0.4469  0.0126
 1995WAT      O 8685   0.284   7.881   0.535  0.1133  0.3348  0.1596
 1995WAT     H1 8686   0.343   7.911   0.591  0.4719  0.2085 -0.1471
 1995WAT     H2 8687   0.213   7.928   0.552 -0.0253 -0.2341  1.2524
 1995WAT    EPW 8688   0.282   7.892   0.545  0.0762 -0.1701  0.4500
 1996WAT      O 8689   5.312   6.211   6.374 -0.3710 -0.1534  0.4954
 1996WAT     H1 8690   5.390   6.176   6.354  0.0339  1.1328 -0.3033
 1996WAT     H2 8691   5.324   6.245   6.454 -0.6326 -1.4023  1.0816
 1996WAT    EPW 8692   5.325   6.211   6.383 -0.2581  0.0173 -0.0747
 1997WAT      O 8693   7.567   3.561   2.860 -0.3082 -0.0957  0.0967
 1997WAT     H1 8694   7.519   3.533   2.927 -0.8204 -0.2784 -0.3463
 1997WAT     H2 8695   7.516   3.548   2.791  0.9424 -1.7423 -0.5800
 1997WAT    EPW 8696   7.552   3.555   2.860  0.0841  0.8590  0.3442
 1998WAT      O 8697   5.906   4.281   1.434  0.7218  0.0306  0.6791
 1998WAT     H1 8698   5.978   4.235   1.418  0.9510  0.2022  1.1932
 1998WAT     H2 8699   5.856   4.266   1.364  2.1344  1.6706 -0.7581
 1998WAT    EPW 8700   5.910   4.272   1.421 -0.3981  0.2268 -0.0011
 1999WAT      O 8701   3.567   1.140   7.564 -0.4456  0.7482  0.0870
 1999WAT     H1 8702   3.619   1.207   7.546 -0.6792  0.7093 -0.7810
 1999WAT     H2 8703   3.592   1.078   7.508 -0.9092  0.4707  0.1750
 1999WAT    EPW 8704   3.578   1.140   7.553  0.2136  0.1407  0.1296
 2000WAT      O 8705   1.739   1.245   7.221  0.5469  0.0300  0.3799
 2000WAT     H1 8706   1.696   1.207   7.156 -1.2809  0.6725  1.1317
 2000WAT     H2 8707   1.822   1.244   7.195  0.3613 -2.7726 -0.4417
 2000WAT    EPW 8708   1.745   1.239   7.208 -0.0210  0.1046  0.5068
 2001WAT      O 8709   0.692   7.173   3.060 -0.3294 -0.2946  0.2493
 2001WAT     H1 8710   0.646   7.195   2.989  0.1547  0.3864  0.1334
 2001WAT     H2 8711   0.774   7.192   3.039 -0.1582 -0.2199  0.9359
 2001WAT    EPW 8712   0.697   7.179   3.047  0.4528  0.0931 -0.2376
 2002WAT      O 8713   5.987   0.551   2.454 -0.0400  0.1436 -0.1404
 2002WAT     H1 8714   6.035   0.620   2.478  1.7786 -0.7777 -0.9319
 2002WAT     H2 8715   5.909   0.567   2.490  0.3571  2.5088 -0.1612
 2002WAT    EPW 8716   5.983   0.564   2.463  0.1991  0.3486  0.0728
 2003WAT      O 8717   6.197   0.995   0.630  0.2473  0.3666 -0.3272
 2003WAT     H1 8718   6.175   1.053   0.691  2.4184  1.0729 -0.1215
 2003WAT     H2 8719   6.280   0.976   0.649  0.8366  0.2063 -2.7161
 2003WAT    EPW 8720   6.206   1.001   0.641  0.9924 -0.4336  0.4128
 2004WAT      O 8721   2.856   2.382   1.196 -0.4977 -0.2678 -0.0025
 2004WAT     H1 8722   2.896   2.453   1.229 -1.2942  0.4635 -0.5634
 2004WAT     H2 8723   2.786   2.372   1.247 -0.3502 -0.7033  0.1187
 2004WAT    EPW 8724   2.852   2.391   1.209  0.2507  0.2964 -0.1163
 2005WAT      O 8725   1.887   7.457   7.337 -0.4175 -0.1726 -0.3086
 2005WAT     H1 8726   1.829   7.504   7.381 -2.4463 -1.7243 -1.1711
 2005WAT     H2 8727   1.878   7.486   7.255  0.6758  0.1494 -0.3289
 2005WAT    EPW 8728   1.877   7.468   7.331  0.5748 -0.1540 -0.1478
 2006WAT      O 8729   2.627   7.053   7.447  0.5611 -0.0150 -0.2860
 2006WAT     H1 8730   2.629   7.056   7.360  2.2183 -0.1936 -0.2734
 2006WAT     H2 8731   2.711   7.055   7.470  0.1845 -0.9440  1.2846
 2006WAT    EPW 8732   2.639   7.054   7.437 -0.6509 -0.6080 -0.3712
 2007WAT      O 8733   7.776   1.829   1.441 -0.2005 -0.3171 -0.0069
 2007WAT     H1 8734   7.731   1.876   1.499  0.5856  1.1354 -0.5348
 2007WAT     H2 8735   7.714   1.797   1.389 -0.8053 -0.5188  0.8030
 2007WAT    EPW 8736   7.760   1.831   1.442 -0.0457 -0.7712  0.4139
 2008WAT      O 8737   8.054   2.258   0.552 -0.0824 -0.1053  0.2720
 2008WAT     H1 8738   8.140   2.243   0.548 -0.1968 -0.5247 -2.6639
 2008WAT     H2 8739   8.020   2.179   0.561 -0.1918 -0.3630 -1.8068
 2008WAT    EPW 8740   8.062   2.244   0.553  0.4999  0.3453  0.6759
 2009WAT      O 8741   1.820   0.227   5.306 -0.1657 -0.2187 -0.3084
 2009WAT     H1 8742   1.779   0.191   5.238 -0.5549 -0.2107 -0.0853
 2009WAT     H2 8743   1.797   0.311   5.300 -0.6606 -0.3143  0.1454
 2009WAT    EPW 8744   1.810   0.234   5.295 -0.5369  0.0430 -0.3685
 2010WAT      O 8745   2.094   0.413   6.034 -0.2123  0.2177  0.8524
 2010WAT     H1 8746   2.039   0.350   6.010  0.2087 -0.0346  0.5429
 2010WAT     H2 8747   2.056   0.486   6.003  0.0810 -0.0506 -0.1800
 2010WAT    EPW 8748   2.080   0.414   6.026 -0.2587  0.2696 -0.4430
 2011WAT      O 8749   5.948   7.722   3.574 -0.0082  0.3137 -0.2402
 2011WAT     H1 8750   5.996   7.769   3.518  0.8934 -2.7464 -2.3445
 2011WAT     H2 8751   5.897   7.674   3.521  0.0715 -1.9605  1.5845
 2011WAT    EPW 8752   5.947   7.722   3.558 -0.2172 -0.0092  0.4691
 2012WAT      O 8753   4.316   6.569   0.139  0.1842 -0.1491 -0.1501
 2012WAT     H1 8754   4.358   6.512   0.088 -3.3451 -0.4792 -3.1313
 2012WAT     H2 8755   4.329   6.645   0.099  1.5369  0.5558  1.5166
 2012WAT    EPW 8756   4.324   6.572   0.126  0.5221 -0.4178 -0.0434
 2013WAT      O 8757   7.143   6.364   4.043 -0.5098  0.1989 -0.5260
 2013WAT     H1 8758   7.224   6.344   4.070 -0.0860 -0.3500 -2.0628
 2013WAT     H2 8759   7.138   6.450   4.055  0.4574  0.3032 -0.7618
 2013WAT    EPW 8760   7.154   6.373   4.049  0.0812 -0.5551  0.7466
 2014WAT      O 8761   5.576   1.089   6.943  0.2878  0.1891  0.5927
 2014WAT     H1 8762   5.514   1.086   6.882  1.2304  2.9568 -0.6520
 2014WAT     H2 8763   5.560   1.163   6.986  0.3021 -1.1502  3.0719
 2014WAT    EPW 8764   5.565   1.099   6.940 -0.3992 -0.1214 -0.3078
 2015WAT      O 8765   3.050   7.427   1.364 -0.2447  0.0939 -0.1141
 2015WAT     H1 8766   3.089   7.371   1.309 -0.6697 -1.0415  0.6865
 2015WAT     H2 8767   2.966   7.403   1.361 -0.2006 -0.4352  1.4555
 2015WAT    EPW 8768   3.043   7.415   1.356  0.6917 -0.5856 -0.0718
 2016WAT      O 8769   0.824   2.163   0.454 -0.4564 -0.3308 -0.0983
 2016WAT     H1 8770   0.825   2.114   0.382 -1.9179 -0.5852  0.0359
 2016WAT     H2 8771   0.824   2.245   0.423 -0.5103 -0.4367 -0.3742
 2016WAT    EPW 8772   0.825   2.168   0.439  0.0002  0.2995 -0.2431
 2017WAT      O 8773   2.189   0.424   0.654 -0.0546  0.0168 -0.0782
 2017WAT     H1 8774   2.191   0.340   0.631 -3.4477  0.5774 -3.3771
 2017WAT     H2 8775   2.235   0.463   0.591  0.1382  0.8132  0.5373
 2017WAT    EPW 8776   2.196   0.417   0.641  0.3164 -0.1741  0.3182
 2018WAT      O 8777   1.717   7.672   6.909 -0.1638 -0.1502  0.1092
 2018WAT     H1 8778   1.702   7.657   6.824  0.2509  0.2876 -0.0445
 2018WAT     H2 8779   1.797   7.706   6.910  0.6111 -1.8921  0.8716
 2018WAT    EPW 8780   1.726   7.675   6.896 -0.2939 -0.0754 -0.0951
 2019WAT      O 8781   1.087   3.742   4.201 -0.0980  0.3663 -0.6002
 2019WAT     H1 8782   1.089   3.799   4.135 -0.8236  0.2750 -0.7024
 2019WAT     H2 8783   1.005   3.714   4.202 -0.2673  0.8107  0.7278
 2019WAT    EPW 8784   1.075   3.747   4.191 -0.6978  0.3294 -0.2466
 2020WAT      O 8785   1.085   3.344   1.732  0.0430  0.5597  0.8649
 2020WAT     H1 8786   1.004   3.365   1.708  0.4773  0.9040 -0.3757
 2020WAT     H2 8787   1.120   3.311   1.659  1.1898  0.9657  1.2111
 2020WAT    EPW 8788   1.078   3.342   1.718  0.1796  0.7565 -0.5352
 2021WAT      O 8789   6.727   0.361   0.370  0.1079  0.1707  0.7280
 2021WAT     H1 8790   6.681   0.308   0.421  0.8137 -1.2369 -0.0485
 2021WAT     H2 8791   6.677   0.370   0.299  0.7154 -0.8272  0.1599
 2021WAT    EPW 8792   6.713   0.355   0.367 -0.1162  0.4853  0.0869
 2022WAT      O 8793   6.874   6.811   2.959  0.3990  0.0979  0.3270
 2022WAT     H1 8794   6.953   6.807   2.996 -0.3510  0.4148  2.0725
 2022WAT     H2 8795   6.825   6.850   3.020 -1.4673 -1.4900 -0.0604
 2022WAT    EPW 8796   6.879   6.816   2.973 -0.1212 -0.6619 -0.1699
 2023WAT      O 8797   4.439   0.527   7.974 -0.0726  0.2874  0.3130
 2023WAT     H1 8798   4.514   0.565   7.948  1.0048 -1.5021  0.6054
 2023WAT     H2 8799   4.414   0.575   8.042  1.1663  0.5503  0.6048
 2023WAT    EPW 8800   4.447   0.539   7.980  0.0401 -0.0030 -0.0580
 2024WAT      O 8801   3.044   1.693   0.598  0.2166 -0.4952 -0.3050
 2024WAT     H1 8802   2.976   1.652   0.563 -0.0359 -0.3785  0.0411
 2024WAT     H2 8803   3.040   1.773   0.565 -0.3847 -0.1965  0.4470
 2024WAT    EPW 8804   3.033   1.699   0.588 -0.1130 -0.8757  0.0986
 2025WAT      O 8805   4.975   0.338   1.811  0.4305 -0.8442  0.3470
 2025WAT     H1 8806   5.054   0.311   1.788  1.2115  0.9396  0.8137
 2025WAT     H2 8807   4.932   0.345   1.736  0.8645 -1.3335  0.0496
 2025WAT    EPW 8808   4.980   0.335   1.797  0.5308 -0.1139 -0.3902
 2026WAT      O 8809   0.312   1.086   0.445 -0.0021 -0.7582  0.1290
 2026WAT     H1 8810   0.327   1.001   0.456  1.0231 -0.5313  0.6784
 2026WAT     H2 8811   0.389   1.122   0.464 -1.2150  0.5653  3.1622
 2026WAT    EPW 8812   0.326   1.079   0.449 -0.4124 -0.1458  0.1717
 2027WAT      O 8813   5.802   2.641   3.958  0.0871 -0.0313  0.0209
 2027WAT     H1 8814   5.878   2.684   3.955 -0.5550  1.1538  0.4714
 2027WAT     H2 8815   5.742   2.704   3.958 -0.8698 -0.8901  1.1839
 2027WAT    EPW 8816   5.805   2.657   3.958 -0.2264  0.3432  0.5512
 2028WAT      O 8817   4.981   4.148   6.036 -0.1609  0.1559 -0.0155
 2028WAT     H1 8818   5.023   4.151   6.112  2.1487 -0.9801 -1.1528
 2028WAT     H2 8819   5.031   4.096   5.987 -1.4380  1.0257 -2.3877
 2028WAT    EPW 8820   4.994   4.141   6.040  0.5696  0.4504 -0.2435
 2029WAT      O 8821   2.374   1.497   1.920 -0.0598  0.1008  0.1136
 2029WAT     H1 8822   2.392   1.530   1.841  0.5599  0.0066  0.2118
 2029WAT     H2 8823   2.364   1.412   1.904 -0.2762  0.1298  0.0861
 2029WAT    EPW 8824   2.375   1.489   1.906 -0.2187 -0.2936  0.1371
 2030WAT      O 8825   1.046   1.128   4.850 -0.0595 -0.1940 -0.1369
 2030WAT     H1 8826   1.041   1.215   4.855  3.3793  0.2141 -1.1019
 2030WAT     H2 8827   0.964   1.103   4.834 -1.0220  2.9292 -0.7485
 2030WAT    EPW 8828   1.033   1.137   4.849  0.6219 -0.1597 -0.4293
 2031WAT      O 8829   5.968   6.499   0.493  0.2770  0.0165 -0.4012
 2031WAT     H1 8830   5.902   6.443   0.507  0.9391 -0.4850  0.9194
 2031WAT     H2 8831   5.986   6.530   0.573  0.4276  1.5687 -1.0009
 2031WAT    EPW 8832   5.961   6.495   0.507 -0.2286  0.1570 -0.0146
 2032WAT      O 8833   5.543  -0.016   0.696 -0.2631 -0.4865  0.5930
 2032WAT     H1 8834   5.626   0.012   0.688 -0.6322  0.3467 -0.5077
 2032WAT     H2 8835   5.497   0.057   0.700 -1.0748 -0.9405 -0.2283
 2032WAT    EPW 8836   5.549  -0.001   0.695 -0.6791 -0.8003  0.0585
 2033WAT      O 8837   6.089   5.020   7.729  0.3936 -0.1827 -1.0684
 2033WAT     H1 8838   6.051   4.944   7.710 -2.1782  1.1559 -1.6673
 2033WAT     H2 8839   6.121   5.047   7.652  0.7925 -0.3879 -0.9750
 2033WAT    EPW 8840   6.088   5.013   7.715 -0.8121  0.3708 -0.0051
 2034WAT      O 8841   5.954   7.338   6.944 -0.1950 -0.1288 -0.2588
 2034WAT     H1 8842   5.938   7.281   7.008 -2.1936 -0.6678 -1.1578
 2034WAT     H2 8843   5.973   7.412   6.987  0.0384 -0.8400  0.9266
 2034WAT    EPW 8844   5.954   7.340   6.960 -0.4339 -0.2325 -0.6285
 2035WAT      O 8845   4.761   5.540   5.698 -0.0147 -0.1063  0.2294
 2035WAT     H1 8846   4.675   5.548   5.706  0.0069 -0.0829  0.4462
 2035WAT     H2 8847   4.792   5.586   5.766  0.1417 -0.9860  0.7753
 2035WAT    EPW 8848   4.753   5.548   5.710 -0.1109  0.3116 -0.3540
 2036WAT      O 8849   4.919   6.759   6.411 -0.0739  0.3844 -0.6606
 2036WAT     H1 8850   4.965   6.687   6.430 -0.4769  0.6607  1.7240
 2036WAT     H2 8851   4.871   6.736   6.342  0.4540 -1.3215 -0.5024
 2036WAT    EPW 8852   4.919   6.745   6.404  0.0465  0.2382  0.5163
 2037WAT      O 8853   5.560   0.244   4.380  0.4620  0.0760  0.0145
 2037WAT     H1 8854   5.593   0.201   4.311 -1.5716 -1.4195 -0.1415
 2037WAT     H2 8855   5.544   0.181   4.438  0.9517  1.1560  1.3755
 2037WAT    EPW 8856   5.563   0.228   4.378  0.3306 -0.1586  0.2289
 2038WAT      O 8857   4.708   2.826   0.181  0.0181  0.4061  0.5999
 2038WAT     H1 8858   4.654   2.894   0.180 -0.4554  0.0402  0.8660
 2038WAT     H2 8859   4.709   2.801   0.264 -0.0733 -0.1046  0.4552
 2038WAT    EPW 8860   4.700   2.832   0.193  0.1739 -0.4634  0.1031
 2039WAT      O 8861   2.236   6.601   4.818 -0.1947 -0.2452 -0.2399
 2039WAT     H1 8862   2.250   6.516   4.809 -2.4153 -0.6119 -0.8566
 2039WAT     H2 8863   2.202   6.624   4.741  0.0915  1.1566  0.0239
 2039WAT    EPW 8864   2.233   6.592   4.805  1.0257 -0.2722  0.2373
 2040WAT      O 8865   5.672   5.306   1.101 -0.0417  0.2057  0.2324
 2040WAT     H1 8866   5.685   5.253   1.169 -0.3753  0.6807  0.6723
 2040WAT     H2 8867   5.733   5.368   1.111 -1.0395  1.1157  0.9651
 2040WAT    EPW 8868   5.683   5.307   1.113  0.2995 -0.1689 -0.2303
 2041WAT      O 8869   5.823   6.717   7.187  0.0513  0.7911  0.1815
 2041WAT     H1 8870   5.844   6.724   7.271 -0.4448 -0.3805  0.4195
 2041WAT     H2 8871   5.780   6.641   7.183  0.1835  0.7667 -1.1507
 2041WAT    EPW 8872   5.820   6.707   7.199 -0.2807 -0.2980 -0.0524
 2042WAT      O 8873   1.754   5.875   6.019 -0.3094 -0.3821  0.3491
 2042WAT     H1 8874   1.753   5.928   6.089 -0.2374 -0.2406  0.2421
 2042WAT     H2 8875   1.771   5.797   6.054  0.1602 -0.2429  0.4455
 2042WAT    EPW 8876   1.756   5.871   6.035  0.0044 -0.1379 -0.1900
 2043WAT      O 8877   4.397   7.773   7.430 -0.1688 -0.2831  0.1905
 2043WAT     H1 8878   4.481   7.762   7.409  0.1163  0.3555  0.9401
 2043WAT     H2 8879   4.401   7.816   7.506 -1.1745 -0.4145  0.3240
 2043WAT    EPW 8880   4.410   7.778   7.438  0.7200  0.2985  0.4126
 2044WAT      O 8881   0.508   2.347   3.224 -0.8261  0.4974 -0.5915
 2044WAT     H1 8882   0.446   2.397   3.186 -1.4478 -0.7175 -1.2417
 2044WAT     H2 8883   0.488   2.266   3.197  1.0453  0.0628 -0.7937
 2044WAT    EPW 8884   0.496   2.343   3.214 -0.4407 -0.2566 -0.2644
 2045WAT      O 8885   6.743   5.384   2.881  0.0727 -0.4674 -1.0590
 2045WAT     H1 8886   6.809   5.428   2.917 -0.5297  1.3489 -2.0712
 2045WAT     H2 8887   6.692   5.364   2.950 -0.0641  1.2057 -0.6320
 2045WAT    EPW 8888   6.745   5.388   2.897 -0.4563  0.4838  0.5883
 2046WAT      O 8889   5.619   4.652   1.092  0.2448 -0.8127 -0.1931
 2046WAT     H1 8890   5.551   4.684   1.047  0.3856 -0.2287  0.0134
 2046WAT     H2 8891   5.581   4.608   1.157  0.0435 -1.4721 -0.7424
 2046WAT    EPW 8892   5.603   4.650   1.095  0.8789  0.3233 -0.1453
 2047WAT      O 8893   6.581   1.102   4.341  0.0707 -0.1886  0.3070
 2047WAT     H1 8894   6.608   1.020   4.347  1.3242 -0.2211 -3.4340
 2047WAT     H2 8895   6.500   1.099   4.374  0.7508 -2.4167  2.0373
 2047WAT    EPW 8896   6.573   1.090   4.347 -0.3794 -0.8384 -0.3789
 2048WAT      O 8897   7.454   7.695   0.781  0.0807 -0.2719 -0.1471
 2048WAT     H1 8898   7.437   7.729   0.859  2.5834 -0.9108  0.7769
 2048WAT     H2 8899   7.461   7.764   0.729  1.0148  0.3566  0.7879
 2048WAT    EPW 8900   7.452   7.710   0.785 -0.0136  0.0974  0.0949
 2049WAT      O 8901   5.136   6.746   5.129  0.8490  0.6599  0.5332
 2049WAT     H1 8902   5.084   6.811   5.156 -0.2077 -0.8968  2.4325
 2049WAT     H2 8903   5.186   6.729   5.198  1.6779 -0.0134 -0.2110
 2049WAT    EPW 8904   5.135   6.753   5.143  0.1183 -0.3041 -0.3985
 2050WAT      O 8905   3.726   1.273   2.247  0.2992  0.5641 -0.2069
 2050WAT     H1 8906   3.661   1.241   2.295  0.5646  0.9139  0.3897
 2050WAT     H2 8907   3.741   1.209   2.189  0.0042  0.1235  0.1927
 2050WAT    EPW 8908   3.719   1.259   2.245  0.0683  0.2871 -0.5071
 2051WAT      O 8909   5.238   3.046   5.926  0.1096 -0.4686  0.5090
 2051WAT     H1 8910   5.303   3.076   5.977 -1.0089  1.3106  0.9879
 2051WAT     H2 8911   5.197   2.989   5.977  0.4388 -0.5018  0.7401
 2051WAT    EPW 8912   5.242   3.042   5.941  0.4362  0.8739  0.7618
 2052WAT      O 8913   4.502   6.192   0.807 -0.2244  0.2019 -0.3290
 2052WAT     H1 8914   4.579   6.196   0.847 -0.5268 -0.0324  0.2889
 2052WAT     H2 8915   4.480   6.107   0.812 -0.5313  0.2689 -0.4743
 2052WAT    EPW 8916   4.510   6.180   0.813  0.1044 -0.4554 -0.2581
 2053WAT      O 8917   7.399   6.720   0.407  0.1397  0.0531 -0.1981
 2053WAT     H1 8918   7.324   6.723   0.363  0.4234 -0.6261 -0.7357
 2053WAT     H2 8919   7.404   6.799   0.444 -1.3823 -0.2817  0.7738
 2053WAT    EPW 8920   7.389   6.732   0.406 -0.2134  0.2982  0.1917
 2054WAT      O 8921   5.474   1.275   0.156 -0.6327  0.5230  0.0500
 2054WAT     H1 8922   5.459   1.355   0.185 -0.5731  0.7344 -0.4842
 2054WAT     H2 8923   5.559   1.276   0.135 -1.0565  0.9502 -1.8169
 2054WAT    EPW 8924   5.484   1.287   0.157 -0.2707  0.0415 -0.5705
 2055WAT      O 8925   6.363   7.006   2.292  0.0146 -0.3770 -0.0723
 2055WAT     H1 8926   6.295   7.024   2.240  0.9854  1.9956 -0.6193
 2055WAT     H2 8927   6.328   7.011   2.372 -0.8804 -1.2720 -0.3818
 2055WAT    EPW 8928   6.348   7.009   2.297 -0.4481 -0.3780  0.3118
 2056WAT      O 8929   4.291   6.050   8.051  0.1540 -0.1753 -0.4629
 2056WAT     H1 8930   4.210   6.043   8.018 -0.1827  2.9294 -0.6172
 2056WAT     H2 8931   4.341   6.061   7.980 -0.1270  3.1226 -0.3373
 2056WAT    EPW 8932   4.286   6.051   8.035 -0.5896  0.4519  0.4409
 2057WAT      O 8933   4.040   6.622   6.521 -0.2077  0.3541  0.5028
 2057WAT     H1 8934   4.090   6.693   6.525 -0.1350  0.3037  0.5067
 2057WAT     H2 8935   4.050   6.594   6.439 -2.8827  2.2241 -0.6185
 2057WAT    EPW 8936   4.049   6.628   6.510 -0.0642  0.1134 -0.1145
 2058WAT      O 8937   4.315   0.078   7.655 -0.4845 -0.1184 -0.2171
 2058WAT     H1 8938   4.339   0.145   7.706  0.9914 -1.8212  1.4788
 2058WAT     H2 8939   4.348   0.098   7.577  2.1276  0.0295  0.8489
 2058WAT    EPW 8940   4.323   0.091   7.651 -0.1319  0.2286 -0.1388
 2059WAT      O 8941   7.985   3.952   0.860  0.2961 -0.4362  0.4212
 2059WAT     H1 8942   7.955   3.874   0.886 -1.3883  0.1381  0.3238
 2059WAT     H2 8943   8.072   3.942   0.861  0.1734 -1.8173  1.9484
 2059WAT    EPW 8944   7.993   3.939   0.864  0.1559 -0.4016  0.2326
 2060WAT      O 8945   2.203   1.056   6.828 -0.4078  0.2045 -0.1214
 2060WAT     H1 8946   2.134   1.031   6.876 -0.1628  1.6789  1.0533
 2060WAT     H2 8947   2.270   1.014   6.865 -0.4870 -0.2376 -0.4686
 2060WAT    EPW 8948   2.202   1.046   6.840  0.5065  0.9724 -0.3746
 2061WAT      O 8949   4.240   6.077   5.373 -1.1889  0.0132  0.2539
 2061WAT     H1 8950   4.165   6.039   5.351 -0.9637  0.8071 -2.1601
 2061WAT     H2 8951   4.297   6.011   5.370 -1.0899  0.1261 -2.2602
 2061WAT    EPW 8952   4.237   6.062   5.369  0.3286  0.2655 -0.4557
 2062WAT      O 8953   4.568   2.812   2.460  0.3057  0.2463  0.5580
 2062WAT     H1 8954   4.650   2.797   2.487  0.1795 -0.5211  0.5408
 2062WAT     H2 8955   4.577   2.829   2.375  0.6655  2.3193  0.9414
 2062WAT    EPW 8956   4.581   2.813   2.452  0.4288 -0.3795 -0.4788
 2063WAT      O 8957   4.520   1.076   7.631 -0.1315 -0.3179  0.1221
 2063WAT     H1 8958   4.459   1.107   7.576  0.4924  0.0013 -0.4078
 2063WAT     H2 8959   4.506   1.122   7.704 -0.5100 -0.2254 -0.0054
 2063WAT    EPW 8960   4.509   1.088   7.633 -0.0216 -0.7819 -0.4084
 2064WAT      O 8961   1.924   2.557   3.017  0.0061 -0.3069 -0.5557
 2064WAT     H1 8962   1.981   2.513   3.066 -0.8161 -1.2040 -0.3656
 2064WAT     H2 8963   1.931   2.520   2.939 -1.5462 -1.6641 -0.1083
 2064WAT    EPW 8964   1.934   2.545   3.013  0.7249 -0.4465  0.5267
 2065WAT      O 8965   7.259   1.800   0.569  0.3064  0.4389  0.0555
 2065WAT     H1 8966   7.277   1.714   0.572  2.6586  0.8050 -1.2122
 2065WAT     H2 8967   7.236   1.814   0.486  1.3614  1.2256 -0.1314
 2065WAT    EPW 8968   7.258   1.789   0.557 -0.3308 -0.0095  0.2706
 2066WAT      O 8969   6.303   5.891   0.667 -0.3060 -0.3867  0.7682
 2066WAT     H1 8970   6.231   5.930   0.698 -0.9721 -0.7232 -0.3260
 2066WAT     H2 8971   6.367   5.946   0.690 -0.7050 -0.7620  3.0166
 2066WAT    EPW 8972   6.302   5.905   0.675  0.0757  0.9774 -0.1055
 2067WAT      O 8973   3.809   7.125   6.225  0.1098 -0.5586  0.3228
 2067WAT     H1 8974   3.755   7.104   6.161 -0.0136  0.2374  0.1602
 2067WAT     H2 8975   3.856   7.052   6.237  0.0311 -0.7612 -0.5596
 2067WAT    EPW 8976   3.808   7.111   6.218  0.3324  0.2066 -0.2607
 2068WAT      O 8977   7.895   6.245   1.977 -0.3024  0.1417 -0.4244
 2068WAT     H1 8978   7.819   6.286   1.965 -0.7542 -0.5684 -0.0712
 2068WAT     H2 8979   7.889   6.214   2.058  0.9164  1.1860  0.0819
 2068WAT    EPW 8980   7.883   6.247   1.987 -0.0636  0.6710 -0.3459
 2069WAT      O 8981   2.846   5.691   4.726 -0.0291  0.1986 -0.4553
 2069WAT     H1 8982   2.834   5.611   4.758  2.8103  0.4184  1.4702
 2069WAT     H2 8983   2.857   5.677   4.641  0.9389 -1.5742 -0.0952
 2069WAT    EPW 8984   2.846   5.677   4.718 -0.3699  0.6230 -0.5917
 2070WAT      O 8985   6.842   5.604   1.506 -0.0508  0.2360 -0.1427
 2070WAT     H1 8986   6.825   5.670   1.451  0.0493  0.8574  0.5573
 2070WAT     H2 8987   6.822   5.533   1.460 -1.0512  0.7937 -0.5936
 2070WAT    EPW 8988   6.836   5.603   1.491 -0.6868 -0.7002  0.1068
 2071WAT      O 8989   5.209   5.829   3.661 -0.0723 -0.1721  0.1642
 2071WAT     H1 8990   5.237   5.832   3.744  0.1862 -2.2768  0.2224
 2071WAT     H2 8991   5.190   5.744   3.650 -0.0586  0.0597 -1.9483
 2071WAT    EPW 8992   5.211   5.817   3.672 -1.0293  0.2918 -0.1357
 2072WAT      O 8993   4.433   1.841   5.819  0.3905 -0.4149  0.5137
 2072WAT     H1 8994   4.385   1.788   5.770 -0.3151 -0.4218  1.2035
 2072WAT     H2 8995   4.446   1.911   5.767  1.4668 -1.2833 -0.4627
 2072WAT    EPW 8996   4.428   1.844   5.804  0.1395 -0.3931 -0.2891
 2073WAT      O 8997   3.521   6.069   4.243  0.1880  0.0845 -0.4245
 2073WAT     H1 8998   3.478   6.126   4.194  1.0394 -1.1993 -2.7939
 2073WAT     H2 8999   3.602   6.103   4.248  0.0978  0.2300  0.1761
 2073WAT    EPW 9000   3.527   6.082   4.237  0.3423 -0.1087 -0.0652
 2074WAT      O 9001   4.150   2.272   5.947 -0.2654  0.3784  0.2439
 2074WAT     H1 9002   4.183   2.323   5.885  0.6493  0.5008  0.8096
 2074WAT     H2 9003   4.071   2.252   5.917  0.3560 -0.0291 -1.2247
 2074WAT    EPW 9004   4.143   2.276   5.934  0.2512 -0.4988  0.0932
 2075WAT      O 9005   6.825   5.411   4.459  0.0908 -0.1831 -0.2939
 2075WAT     H1 9006   6.867   5.449   4.525 -1.0822 -0.2062  0.4852
 2075WAT     H2 9007   6.747   5.450   4.458 -0.5920 -1.4911 -0.4401
 2075WAT    EPW 9008   6.820   5.422   4.468 -0.5650  0.2130 -0.3321
 2076WAT      O 9009   5.594   7.558   5.560  0.5668  0.2985 -0.0115
 2076WAT     H1 9010   5.576   7.473   5.568  0.7334  0.2119 -0.5154
 2076WAT     H2 9011   5.658   7.572   5.617  1.1121 -0.1010 -0.5194
 2076WAT    EPW 9012   5.601   7.548   5.569  0.1982  0.5488 -0.7950
 2077WAT      O 9013   4.560   6.902   3.624 -0.2615 -0.1304 -0.0108
 2077WAT     H1 9014   4.577   6.852   3.555  0.4595  0.6367 -0.4047
 2077WAT     H2 9015   4.498   6.956   3.596  0.5783  0.6920 -0.3195
 2077WAT    EPW 9016   4.553   6.902   3.610 -0.2312 -0.1796  0.6891
 2078WAT      O 9017   4.797   1.692   0.719  0.6603 -0.3004 -0.1157
 2078WAT     H1 9018   4.763   1.667   0.796 -0.0564 -0.7250 -0.5570
 2078WAT     H2 9019   4.784   1.778   0.719  0.1221 -0.3749 -0.0093
 2078WAT    EPW 9020   4.790   1.701   0.730  0.1217  0.2328  0.1310
 2079WAT      O 9021   1.667   1.255   6.240 -0.8176 -0.0719  0.0904
 2079WAT     H1 9022   1.676   1.229   6.323 -2.4785  0.6370  0.5425
 2079WAT     H2 9023   1.713   1.329   6.236 -0.0349 -0.5442  0.1222
 2079WAT    EPW 9024   1.675   1.262   6.252 -0.1543  0.0213  0.1542
 2080WAT      O 9025   4.106   6.444   1.478  0.2021 -0.2536  0.1061
 2080WAT     H1 9026   4.101   6.426   1.563 -0.7038 -1.4910 -0.1801
 2080WAT     H2 9027   4.186   6.417   1.456 -0.3418 -2.0384  0.1539
 2080WAT    EPW 9028   4.117   6.437   1.487 -0.3779 -0.5076  0.3676
 2081WAT      O 9029   2.824   2.204   5.219 -0.1684  0.5833 -0.3815
 2081WAT     H1 9030   2.846   2.232   5.299  1.0668 -0.1586 -0.4311
 2081WAT     H2 9031   2.767   2.264   5.191 -0.4071  1.0064  0.9389
 2081WAT    EPW 9032   2.819   2.217   5.227 -0.1816 -0.9719  0.8247
 2082WAT      O 9033   3.599   7.656   1.172  0.3144  0.1493 -0.4784
 2082WAT     H1 9034   3.673   7.624   1.207  0.3893 -1.2660 -1.8230
 2082WAT     H2 9035   3.537   7.608   1.209  0.2942 -0.4245 -1.2229
 2082WAT    EPW 9036   3.601   7.645   1.183 -0.1014 -0.2457  1.0273
 2083WAT      O 9037   4.961   6.338   5.054  0.1690 -0.2114  0.2365
 2083WAT     H1 9038   5.044   6.364   5.044  0.2003 -0.2553  0.3805
 2083WAT     H2 9039   4.955   6.270   4.999 -0.5257  1.3635 -1.7732
 2083WAT    EPW 9040   4.972   6.332   5.044  0.3444  0.1359 -0.2497
 2084WAT      O 9041   5.581   0.398   6.326 -0.3722  0.1600  0.2392
 2084WAT     H1 9042   5.621   0.474   6.336 -1.9150  1.3656 -1.8971
 2084WAT     H2 9043   5.606   0.371   6.247 -1.1783 -0.7048  0.2488
 2084WAT    EPW 9044   5.591   0.405   6.316  0.4484  0.7998 -0.5618
 2085WAT      O 9045   2.329   7.398   3.092  0.4579  0.0928 -0.4461
 2085WAT     H1 9046   2.342   7.444   3.019  0.4794 -0.5929 -0.8779
 2085WAT     H2 9047   2.243   7.406   3.105  0.3678 -0.2143 -0.8364
 2085WAT    EPW 9048   2.318   7.406   3.083 -0.1010 -0.3889  0.4908
 2086WAT      O 9049   7.352   3.151   1.486  0.2582 -0.3013  0.0250
 2086WAT     H1 9050   7.301   3.170   1.418 -0.1169 -1.4637 -0.0331
 2086WAT     H2 9051   7.342   3.065   1.496  0.2764 -0.1445  1.5764
 2086WAT    EPW 9052   7.343   3.141   1.477 -0.1619  0.5498  0.1973
 2087WAT      O 9053   4.187   4.833   6.867  0.0196 -0.1862 -0.5068
 2087WAT     H1 9054   4.138   4.763   6.884  1.0241 -0.5556  1.1156
 2087WAT     H2 9055   4.269   4.803   6.875  0.5495  0.5170 -2.6707
 2087WAT    EPW 9056   4.192   4.818   6.871  0.2971  0.5594  0.9363
 2088WAT      O 9057   5.791   4.605   0.149  0.6045 -0.2933 -0.0295
 2088WAT     H1 9058   5.745   4.623   0.221  0.3412 -1.1465  0.0278
 2088WAT     H2 9059   5.775   4.674   0.098 -0.8239 -0.5939 -0.0374
 2088WAT    EPW 9060   5.782   4.618   0.152  0.7268  0.1716  0.6057
 2089WAT      O 9061   4.781   3.850   5.316  0.6070  0.1730 -0.0386
 2089WAT     H1 9062   4.710   3.894   5.343 -0.0292 -0.3010 -0.8707
 2089WAT     H2 9063   4.773   3.772   5.354  0.0719 -0.2587 -0.9925
 2089WAT    EPW 9064   4.769   3.845   5.325 -0.0949 -0.4694  0.4116
 2090WAT      O 9065   4.284   6.118   1.651 -0.0778 -0.4366 -0.4603
 2090WAT     H1 9066   4.268   6.035   1.631 -0.6127 -0.6939  0.9282
 2090WAT     H2 9067   4.240   6.130   1.725  0.9481  0.7422 -0.0053
 2090WAT    EPW 9068   4.275   6.108   1.659  0.1597 -0.3233  0.2718
 2091WAT      O 9069   3.743   5.399   3.372  0.1845  0.8409 -0.5864
 2091WAT     H1 9070   3.658   5.386   3.360  0.0669  1.0310  0.0101
 2091WAT     H2 9071   3.770   5.328   3.415  0.4660  0.4696 -1.3668
 2091WAT    EPW 9072   3.735   5.387   3.377 -0.1134 -0.2351  0.2545
 2092WAT      O 9073   3.570   7.477   3.648 -0.4863  0.2793  0.1536
 2092WAT     H1 9074   3.534   7.494   3.726  1.3793 -0.0358  1.1256
 2092WAT     H2 9075   3.609   7.553   3.627 -0.2323  0.0902 -0.0588
 2092WAT    EPW 9076   3.570   7.491   3.656  0.5991 -0.0358 -0.0764
 2093WAT      O 9077   3.377   5.409   6.071  0.2115 -0.1433 -0.0829
 2093WAT     H1 9078   3.360   5.356   6.004  0.0259 -0.1814 -0.0056
 2093WAT     H2 9079   3.397   5.354   6.136 -1.1438 -0.1726  0.3340
 2093WAT    EPW 9080   3.377   5.393   6.070 -0.0075  0.5454 -0.1758
 2094WAT      O 9081   3.802   1.879   8.053 -0.3267 -0.1677  0.1744
 2094WAT     H1 9082   3.827   1.798   8.031 -0.7944 -0.6705  1.4090
 2094WAT     H2 9083   3.716   1.871   8.067 -0.7555  0.9690 -1.4955
 2094WAT    EPW 9084   3.793   1.866   8.052  0.4022  0.1366 -0.8928
 2095WAT      O 9085   2.742   6.110   1.311  0.1025  0.3542 -0.1275
 2095WAT     H1 9086   2.665   6.121   1.351 -0.4924  1.6752 -1.5109
 2095WAT     H2 9087   2.756   6.024   1.316 -0.9726  0.2131  0.9973
 2095WAT    EPW 9088   2.733   6.099   1.318  0.3233 -0.3704 -0.4924
 2096WAT      O 9089   2.270   1.509   5.898 -0.1702 -0.4030  0.3533
 2096WAT     H1 9090   2.354   1.534   5.900 -0.1266 -0.2266 -1.6207
 2096WAT     H2 9091   2.247   1.522   5.815 -1.9650 -1.1171  0.6954
 2096WAT    EPW 9092   2.279   1.515   5.886 -0.1419 -0.4462 -0.0113
 2097WAT      O 9093   5.591   5.409   3.473  0.3585 -0.1941  0.2643
 2097WAT     H1 9094   5.668   5.437   3.504 -0.1604  1.3236  0.2805
 2097WAT     H2 9095   5.540   5.406   3.543 -0.5542  2.3407 -0.1558
 2097WAT    EPW 9096   5.595   5.413   3.488  0.1343  0.0123 -0.3665
 2098WAT      O 9097   5.769   6.775   5.255  0.0082  0.4917  0.0011
 2098WAT     H1 9098   5.752   6.834   5.193 -1.4210 -0.5693 -0.6818
 2098WAT     H2 9099   5.849   6.796   5.283  0.2447  1.6504 -1.4561
 2098WAT    EPW 9100   5.778   6.787   5.250 -0.4784 -0.2393 -0.5402
 2099WAT      O 9101   2.585   6.157   0.604 -0.1344  0.6329 -0.0418
 2099WAT     H1 9102   2.610   6.077   0.627  0.3656  0.7362 -0.2033
 2099WAT     H2 9103   2.603   6.206   0.675  1.4420  0.9580 -0.6271
 2099WAT    EPW 9104   2.591   6.153   0.618 -0.1498  0.5330  0.3452
 2100WAT      O 9105   6.504   2.842   4.995 -0.3739 -0.1508 -0.1536
 2100WAT     H1 9106   6.440   2.821   4.939 -2.2762  0.0578  1.7888
 2100WAT     H2 9107   6.552   2.900   4.951 -1.1307 -0.7924 -1.9188
 2100WAT    EPW 9108   6.502   2.848   4.980  0.0020  0.1424 -0.0533
 2101WAT      O 9109   2.034   1.635   0.076  0.4407  0.0794 -0.2743
 2101WAT     H1 9110   1.986   1.698   0.040 -0.3276  0.1100  0.7889
 2101WAT     H2 9111   2.072   1.673   0.144  1.5082 -0.1123 -0.7282
 2101WAT    EPW 9112   2.033   1.650   0.081 -0.3329 -0.6025 -0.4291
 2102WAT      O 9113   6.270   2.683   2.354 -0.0447 -0.5970 -0.1302
 2102WAT     H1 9114   6.197   2.637   2.348  0.1826 -0.8988 -0.5668
 2102WAT     H2 9115   6.332   2.623   2.369  0.0428 -0.2963  0.8240
 2102WAT    EPW 9116   6.269   2.668   2.356 -0.1033  0.0127  0.1646
 2103WAT      O 9117   1.842   6.338   7.157 -0.4857  0.0115 -0.4720
 2103WAT     H1 9118   1.863   6.384   7.228  0.2317  1.2501 -1.4536
 2103WAT     H2 9119   1.915   6.296   7.137 -0.9759 -1.1529  0.0849
 2103WAT    EPW 9120   1.856   6.339   7.165 -0.4492 -0.2103  0.6695
 2104WAT      O 9121   5.253   0.615   0.482 -0.2750  0.4150 -0.1584
 2104WAT     H1 9122   5.254   0.702   0.474  1.1956  0.3355 -1.2255
 2104WAT     H2 9123   5.168   0.596   0.485 -0.7252  1.7221 -2.3288
 2104WAT    EPW 9124   5.240   0.625   0.482 -0.0249  0.4875  0.4313
 2105WAT      O 9125   3.132   6.437   4.908  0.3562  0.4568  0.1187
 2105WAT     H1 9126   3.173   6.442   4.985 -0.1193  0.3170  0.3917
 2105WAT     H2 9127   3.168   6.368   4.869 -0.4032 -0.3679  0.8402
 2105WAT    EPW 9128   3.143   6.428   4.914  0.1003  0.3619  0.8165
 2106WAT      O 9129   3.970   4.255   0.451 -0.3149 -0.1095  0.4894
 2106WAT     H1 9130   3.981   4.327   0.498 -2.0630  0.4877  0.0628
 2106WAT     H2 9131   4.012   4.272   0.376 -0.6411  0.4508  0.4273
 2106WAT    EPW 9132   3.978   4.268   0.447 -0.4699  0.0582  0.0864
 2107WAT      O 9133   0.537   1.627   1.351  1.2672  0.0169  0.4858
 2107WAT     H1 9134   0.571   1.566   1.299  0.7056  0.9416 -1.0355
 2107WAT     H2 9135   0.459   1.594   1.373  1.6878 -0.5726  1.1443
 2107WAT    EPW 9136   0.531   1.614   1.347 -0.7493  0.0783  0.0118
 2108WAT      O 9137   4.525   0.974   3.866  0.6851  0.0349  0.3432
 2108WAT     H1 9138   4.521   0.966   3.952  1.0019 -0.0417  0.3501
 2108WAT     H2 9139   4.571   0.904   3.840  0.6344  0.0830  0.1180
 2108WAT    EPW 9140   4.531   0.962   3.875 -0.2632  0.4391  0.2273
 2109WAT      O 9141   6.030   2.882   5.973  0.4542  0.1551  0.9880
 2109WAT     H1 9142   5.959   2.852   5.933 -0.1053  1.9213  0.5605
 2109WAT     H2 9143   6.068   2.810   6.005 -1.3364 -0.8516  0.9544
 2109WAT    EPW 9144   6.025   2.867   5.972 -0.1330  0.2665  0.4972
 2110WAT      O 9145   5.357   1.395   5.017  0.1682 -0.0057  0.1316
 2110WAT     H1 9146   5.381   1.408   5.099  0.2399 -2.2725  0.5415
 2110WAT     H2 9147   5.403   1.454   4.972 -0.3533  1.7031  1.7235
 2110WAT    EPW 9148   5.368   1.406   5.022 -0.5201  0.6830  0.2384
 2111WAT      O 9149   4.902   4.635   5.666 -0.6881 -0.0168 -0.1571
 2111WAT     H1 9150   4.935   4.621   5.586 -2.5511  0.0860 -0.9895
 2111WAT     H2 9151   4.817   4.650   5.651 -1.0460  0.2092  1.8349
 2111WAT    EPW 9152   4.894   4.635   5.652  0.5720 -0.0422 -0.4894
 2112WAT      O 9153   3.828   7.521   1.347  0.1078  0.4087 -0.5820
 2112WAT     H1 9154   3.812   7.440   1.322  2.4471 -0.7219  1.1920
 2112WAT     H2 9155   3.894   7.546   1.295  1.0655  0.2139  0.5164
 2112WAT    EPW 9156   3.836   7.513   1.335  0.6115 -0.2794  0.5898
 2113WAT      O 9157   5.103   1.341   1.051 -0.3192  0.7978 -0.0226
 2113WAT     H1 9158   5.019   1.362   1.040 -0.0537  1.5073 -0.7582
 2113WAT     H2 9159   5.102   1.254   1.055 -1.2109  0.8316  1.0994
 2113WAT    EPW 9160   5.091   1.332   1.050  0.4208 -0.1115 -1.2359
 2114WAT      O 9161   7.177   2.052   3.002  0.8716 -0.6444 -0.0969
 2114WAT     H1 9162   7.098   2.046   3.038  0.8938 -0.4240 -0.0117
 2114WAT     H2 9163   7.224   2.093   3.063  0.9517 -0.4266 -0.3059
 2114WAT    EPW 9164   7.172   2.058   3.016 -0.5729 -0.0442 -0.1011
 2115WAT      O 9165   2.376   0.698   7.389 -0.4763 -0.1345 -0.0593
 2115WAT     H1 9166   2.445   0.707   7.442 -2.0319  0.0183  2.1009
 2115WAT     H2 9167   2.399   0.633   7.336  0.9922 -0.6659  1.1441
 2115WAT    EPW 9168   2.390   0.690   7.389  0.0371  0.4444  0.1144
 2116WAT      O 9169   5.280   3.588   0.656 -0.0673  0.4140 -0.0962
 2116WAT     H1 9170   5.338   3.586   0.591  1.2678 -1.0532  1.0501
 2116WAT     H2 9171   5.211   3.546   0.624  0.8106 -0.8501 -0.3880
 2116WAT    EPW 9172   5.278   3.582   0.641  0.1577  0.4824 -1.1759
 2117WAT      O 9173   3.484   0.042   7.908  0.5210 -0.2681 -0.2265
 2117WAT     H1 9174   3.398   0.047   7.896  0.3037 -0.7890  1.0206
 2117WAT     H2 9175   3.496   0.075   7.988  1.4532 -0.4309 -0.2847
 2117WAT    EPW 9176   3.473   0.048   7.918 -0.0336 -0.2662 -0.1013
 2118WAT      O 9177   5.443   0.052   6.095  0.0459 -0.7116 -0.8321
 2118WAT     H1 9178   5.455  -0.013   6.152  0.6041 -0.9786 -1.2471
 2118WAT     H2 9179   5.403   0.014   6.028  1.2140 -0.8446 -1.4780
 2118WAT    EPW 9180   5.439   0.037   6.094  0.4365 -0.7063 -0.4047
 2119WAT      O 9181   8.033   1.481   4.777  0.0129  0.0569  0.1678
 2119WAT     H1 9182   8.073   1.517   4.846  1.6233  0.7208 -1.0756
 2119WAT     H2 9183   8.009   1.550   4.729 -1.1506 -0.4017  0.0646
 2119WAT    EPW 9184   8.035   1.497   4.780  0.2132  0.2405  0.4101
 2120WAT      O 9185   5.655   3.320   4.876 -0.2796 -0.6472  0.7442
 2120WAT     H1 9186   5.596   3.383   4.892 -0.4058 -0.7595  0.7244
 2120WAT     H2 9187   5.726   3.348   4.918  0.4074  0.6600 -1.1640
 2120WAT    EPW 9188   5.657   3.333   4.885 -0.1814 -0.2013 -0.0663
 2121WAT      O 9189   3.452   0.730   6.506 -0.3380  0.0759  0.0140
 2121WAT     H1 9190   3.465   0.659   6.458 -0.3221  0.8242 -1.1333
 2121WAT     H2 9191   3.374   0.759   6.479 -0.6181  0.1760  0.8973
 2121WAT    EPW 9192   3.443   0.724   6.495 -0.6122 -0.1164  0.1453
 2122WAT      O 9193   5.832   0.738   5.115  0.0222 -0.3447 -0.3622
 2122WAT     H1 9194   5.804   0.762   5.036  0.4339  1.2706 -0.0556
 2122WAT     H2 9195   5.869   0.661   5.100 -0.8980 -0.5979 -1.5306
 2122WAT    EPW 9196   5.833   0.730   5.101  0.3895 -1.0235  0.4651
 2123WAT      O 9197   5.508   4.091   4.355 -0.0717  0.5388 -0.1568
 2123WAT     H1 9198   5.483   4.037   4.419 -1.8727 -0.5245 -1.6398
 2123WAT     H2 9199   5.501   4.170   4.391 -0.6083 -0.0511  1.0938
 2123WAT    EPW 9200   5.503   4.094   4.370  0.0962 -0.1969  0.0011
 2124WAT      O 9201   4.146   1.763   7.006  0.3005  0.4461 -0.2673
 2124WAT     H1 9202   4.111   1.756   7.086  0.8560 -1.2941 -0.1197
 2124WAT     H2 9203   4.077   1.778   6.955 -0.2674  0.0663  0.3699
 2124WAT    EPW 9204   4.131   1.764   7.011 -0.1610  0.1575 -0.8759
 2125WAT      O 9205   6.303   6.035   5.064 -0.4682 -0.2478  0.3076
 2125WAT     H1 9206   6.344   6.025   4.988 -0.1193 -1.7328  0.6466
 2125WAT     H2 9207   6.356   6.088   5.109  0.1678 -0.6889  0.0898
 2125WAT    EPW 9208   6.317   6.042   5.060 -0.1591  0.3399 -0.0688
 2126WAT      O 9209   1.868   6.880   5.502 -0.4763  0.3357  0.1234
 2126WAT     H1 9210   1.910   6.895   5.427 -0.6167  3.2103  0.5233
 2126WAT     H2 9211   1.888   6.797   5.520  0.0911 -0.2390 -2.7262
 2126WAT    EPW 9212   1.877   6.870   5.494 -0.1145 -0.3897  0.4521
 2127WAT      O 9213   5.635   1.016   1.243  1.0173 -0.1219 -0.8220
 2127WAT     H1 9214   5.683   1.084   1.214  2.2353 -1.2327 -1.5339
 2127WAT     H2 9215   5.695   0.960   1.272 -0.0458  0.4949  3.2378
 2127WAT    EPW 9216   5.651   1.018   1.243  0.1205  0.0612  0.0684
 2128WAT      O 9217   2.423   7.794   4.232  0.1295 -0.4009  0.2126
 2128WAT     H1 9218   2.386   7.831   4.302  0.3851  0.1298  0.0747
 2128WAT     H2 9219   2.399   7.846   4.166  0.7637 -0.2812  0.0605
 2128WAT    EPW 9220   2.414   7.807   4.232  0.5315  0.2047  0.6302
 2129WAT      O 9221   2.386   7.643   4.788  0.2505  0.2856  0.1901
 2129WAT     H1 9222   2.456   7.696   4.794  1.0532 -0.9425  3.1668
 2129WAT     H2 9223   2.416   7.576   4.741  1.2873 -0.4584  1.8500
 2129WAT    EPW 9224   2.401   7.641   4.782 -0.0582  0.4375  0.2570
 2130WAT      O 9225   4.545   0.321   7.265  0.4375 -0.2920  0.3907
 2130WAT     H1 9226   4.508   0.368   7.202  0.9412 -0.7232 -0.2450
 2130WAT     H2 9227   4.607   0.374   7.296 -0.8898  0.5573  1.6873
 2130WAT    EPW 9228   4.549   0.336   7.260  0.0382  0.3349 -0.1291
 2131WAT      O 9229   2.074   7.249   5.264 -0.3679 -0.7636 -0.0268
 2131WAT     H1 9230   2.022   7.318   5.279 -0.5332 -1.2493  1.8792
 2131WAT     H2 9231   2.123   7.275   5.196  1.4654  2.3601  2.2395
 2131WAT    EPW 9232   2.073   7.263   5.256  0.8170  0.2163 -0.0135
 2132WAT      O 9233   6.098   1.013   2.777  0.3071 -0.2401  0.4041
 2132WAT     H1 9234   6.106   1.035   2.860 -0.8372  0.3235  0.3846
 2132WAT     H2 9235   6.131   1.081   2.734 -0.6824  0.2467  0.3870
 2132WAT    EPW 9236   6.104   1.026   2.783  0.3326 -0.1305  0.2358
 2133WAT      O 9237   2.122   0.605   7.483 -0.4634 -0.0335 -0.5533
 2133WAT     H1 9238   2.138   0.527   7.519  0.3753  0.6736  0.6917
 2133WAT     H2 9239   2.200   0.632   7.456 -0.5839  0.7421 -0.1684
 2133WAT    EPW 9240   2.136   0.598   7.484  0.1819  0.6966  0.5261
 2134WAT      O 9241   5.850   6.342   1.331  0.1076 -0.3847  0.3576
 2134WAT     H1 9242   5.891   6.280   1.378  0.9064  1.7505  2.7064
 2134WAT     H2 9243   5.770   6.344   1.366  0.5276  0.8118  1.3412
 2134WAT    EPW 9244   5.844   6.333   1.343 -0.3085  0.3344  1.0479
 2135WAT      O 9245   4.294   0.702   0.117  0.1522 -0.6065 -0.2867
 2135WAT     H1 9246   4.232   0.760   0.095 -1.4291 -2.2059 -0.2263
 2135WAT     H2 9247   4.329   0.736   0.190 -0.9505  0.1362 -0.0832
 2135WAT    EPW 9248   4.290   0.716   0.125 -0.2279  0.6299  0.0377
 2136WAT      O 9249   4.189   1.265   4.070 -0.1520  0.1365  0.1440
 2136WAT     H1 9250   4.241   1.322   4.111  0.7913  0.9145 -1.9360
 2136WAT     H2 9251   4.198   1.288   3.986 -3.0918 -0.3725 -0.4135
 2136WAT    EPW 9252   4.198   1.277   4.063 -0.1091 -0.1084 -0.5160
 2137WAT      O 9253   4.865   1.053   6.941  0.2483  0.0246 -0.0139
 2137WAT     H1 9254   4.883   1.134   6.967  0.6534 -0.7136  2.2026
 2137WAT     H2 9255   4.897   1.003   7.005  0.5724 -1.9388 -1.6060
 2137WAT    EPW 9256   4.873   1.057   6.954  0.0198 -0.0713 -0.0567
 2138WAT      O 9257   2.561   2.296   7.394  0.1682  0.2102  0.7500
 2138WAT     H1 9258   2.606   2.236   7.349 -0.7050  0.4998 -0.5866
 2138WAT     H2 9259   2.515   2.337   7.332 -3.0269 -0.9787  2.1112
 2138WAT    EPW 9260   2.561   2.293   7.378  0.0425  0.1230  0.5534
 2139WAT      O 9261   1.339   6.717   1.470  0.3517  0.0238  0.0900
 2139WAT     H1 9262   1.303   6.770   1.529 -0.2756 -0.7436  0.4110
 2139WAT     H2 9263   1.400   6.766   1.433  0.1917  0.7783  0.8053
 2139WAT    EPW 9264   1.343   6.732   1.473 -0.2198  0.0144  0.0345
 2140WAT      O 9265   6.385   0.119   2.096  0.5394 -0.2715  0.0335
 2140WAT     H1 9266   6.458   0.107   2.049  1.6294 -0.1396  1.6286
 2140WAT     H2 9267   6.342   0.180   2.051  0.8579 -1.1337 -1.5159
 2140WAT    EPW 9268   6.390   0.126   2.082  0.0305 -0.1382 -0.3563
 2141WAT      O 9269   6.023   7.899   1.540  0.2620  0.2812 -0.5040
 2141WAT     H1 9270   5.970   7.846   1.496  0.1217 -0.3048  0.3499
 2141WAT     H2 9271   6.080   7.844   1.577  1.1751  0.8599 -1.0095
 2141WAT    EPW 9272   6.024   7.883   1.539 -0.0617 -0.4923 -0.1410
 2142WAT      O 9273   5.180   7.782   5.524 -0.3180 -0.8275 -0.0635
 2142WAT     H1 9274   5.136   7.730   5.470 -0.5188 -0.5764 -0.1429
 2142WAT     H2 9275   5.169   7.861   5.490  0.5976 -0.8112 -0.3588
 2142WAT    EPW 9276   5.172   7.786   5.511 -0.2226 -1.0526 -0.1277
 2143WAT      O 9277   6.486   2.427   2.081  0.1448 -0.2050 -0.1458
 2143WAT     H1 9278   6.410   2.463   2.057  1.0945  1.5011 -0.7294
 2143WAT     H2 9279   6.545   2.487   2.060  1.5772 -1.0077  1.3403
 2143WAT    EPW 9280   6.483   2.441   2.074 -0.2611 -0.4019  0.7654
 2144WAT      O 9281   0.704   6.504   0.968  0.2704  0.0566  0.5027
 2144WAT     H1 9282   0.669   6.560   1.025  0.5108  0.9659 -0.2231
 2144WAT     H2 9283   0.653   6.512   0.897  2.3291  2.0663 -0.9076
 2144WAT    EPW 9284   0.691   6.514   0.966 -0.1014  0.0747 -0.2728
 2145WAT      O 9285   3.782   6.662   4.269  0.4551  0.0715  0.1913
 2145WAT     H1 9286   3.746   6.599   4.220  2.1519 -1.6770  1.0708
 2145WAT     H2 9287   3.852   6.686   4.224  0.4748  0.4970  0.4429
 2145WAT    EPW 9288   3.787   6.656   4.255 -0.0216 -0.1431  0.2277
 2146WAT      O 9289   5.041   1.249   1.457  0.4897  0.2338 -0.2190
 2146WAT     H1 9290   5.001   1.320   1.424  0.1521 -0.3167 -1.0409
 2146WAT     H2 9291   4.999   1.183   1.419  0.3260 -0.4333  1.0967
 2146WAT    EPW 9292   5.029   1.250   1.446 -0.0048 -0.2095  0.2606
 2147WAT      O 9293   3.948   3.549   7.147 -0.2594  0.3421 -0.3633
 2147WAT     H1 9294   3.925   3.465   7.148 -1.2845  0.5567 -1.9550
 2147WAT     H2 9295   3.932   3.576   7.228 -1.6071 -0.6020 -0.2832
 2147WAT    EPW 9296   3.942   3.541   7.159  0.2088  0.3058 -0.3147
 2148WAT      O 9297   7.618   5.504   2.920  0.0804 -0.7123 -0.1936
 2148WAT     H1 9298   7.579   5.507   2.998 -0.3397 -1.3724 -0.3637
 2148WAT     H2 9299   7.687   5.452   2.934  0.3554 -0.3279 -0.1187
 2148WAT    EPW 9300   7.623   5.497   2.934  0.1514  0.0765 -1.0000
 2149WAT      O 9301   1.468   3.642   6.685 -0.5751  0.3841 -0.4752
 2149WAT     H1 9302   1.547   3.675   6.672  0.1534 -0.7286  0.8021
 2149WAT     H2 9303   1.451   3.598   6.612  1.5864 -2.3215  0.4780
 2149WAT    EPW 9304   1.477   3.640   6.672 -0.4094 -0.0494 -0.5748
 2150WAT      O 9305   6.043   6.779   5.379  0.2317  0.8803 -0.1152
 2150WAT     H1 9306   6.047   6.692   5.383 -0.9815  0.7369 -1.2016
 2150WAT     H2 9307   6.018   6.802   5.460 -0.7697  0.0930 -0.1837
 2150WAT    EPW 9308   6.040   6.770   5.391  0.1499  0.2373 -0.3015
 2151WAT      O 9309   4.251   7.870   3.007  0.7391 -0.7052 -0.1416
 2151WAT     H1 9310   4.323   7.919   3.015  0.5377 -0.4687  0.2547
 2151WAT     H2 9311   4.231   7.878   2.923 -0.0854  1.0542  0.1857
 2151WAT    EPW 9312   4.259   7.879   2.996  0.2559  0.3224 -0.0522
 2152WAT      O 9313   1.743   1.432   0.483  0.4211  0.1903 -0.2421
 2152WAT     H1 9314   1.789   1.504   0.470  1.1413 -0.2322 -0.1111
 2152WAT     H2 9315   1.760   1.412   0.566 -1.2683  0.8908  0.3270
 2152WAT    EPW 9316   1.752   1.439   0.494  0.1016 -0.6475  0.0190
 2153WAT      O 9317   4.524   4.295   1.818  0.4237 -0.1748 -0.4085
 2153WAT     H1 9318   4.591   4.275   1.766  0.7050 -1.1447  0.3019
 2153WAT     H2 9319   4.551   4.367   1.860  1.5528 -1.2244  0.7448
 2153WAT    EPW 9320   4.538   4.303   1.817  0.5158  0.2319 -0.1192
 2154WAT      O 9321   5.586   1.045   7.601 -0.0526  0.2581 -0.0832
 2154WAT     H1 9322   5.664   1.021   7.631  0.2257 -0.2088 -1.1329
 2154WAT     H2 9323   5.540   1.061   7.674  0.4292 -1.3276  0.6150
 2154WAT    EPW 9324   5.591   1.044   7.616 -0.4696 -0.0458 -0.3590
 2155WAT      O 9325   4.034   4.784   2.671  0.2441  0.2379 -0.2998
 2155WAT     H1 9326   3.957   4.786   2.631  0.4090 -1.6725 -0.7962
 2155WAT     H2 9327   4.048   4.868   2.693 -0.8522  1.0215 -2.3081
 2155WAT    EPW 9328   4.025   4.797   2.668  0.2782 -0.0659  0.0669
 2156WAT      O 9329   3.364   0.325   7.865  0.2503  0.3502 -0.3334
 2156WAT     H1 9330   3.328   0.308   7.943  2.4112  1.0886  0.9365
 2156WAT     H2 9331   3.380   0.246   7.832 -1.2007  0.0246 -0.3270
 2156WAT    EPW 9332   3.361   0.311   7.872 -0.1790  0.3866  0.2608
 2157WAT      O 9333   3.165   6.880   4.792 -0.0707 -0.2154 -0.8527
 2157WAT     H1 9334   3.166   6.793   4.791 -0.9392 -0.2382 -0.9247
 2157WAT     H2 9335   3.207   6.903   4.719  0.1969 -0.5711 -0.8088
 2157WAT    EPW 9336   3.171   6.871   4.781  0.5937 -0.0323  0.0409
 2158WAT      O 9337   6.730   1.297   3.792 -0.2034  0.0865  0.8479
 2158WAT     H1 9338   6.797   1.301   3.736  0.9522 -1.7448  1.9881
 2158WAT     H2 9339   6.769   1.296   3.870 -1.6273 -0.1070  1.5870
 2158WAT    EPW 9340   6.746   1.298   3.796  0.3471  0.1780  0.0758
 2159WAT      O 9341   2.302   1.779   7.332  0.4744  0.5558 -0.1781
 2159WAT     H1 9342   2.379   1.819   7.346  0.4198  0.3366  0.8272
 2159WAT     H2 9343   2.291   1.787   7.246  1.0826  1.5845 -0.1895
 2159WAT    EPW 9344   2.312   1.786   7.321 -0.2638  0.5936  0.0259
 2160WAT      O 9345   2.858   7.537   0.423  0.4780 -0.5149 -0.0429
 2160WAT     H1 9346   2.842   7.521   0.339  0.5340  1.7375 -0.5452
 2160WAT     H2 9347   2.944   7.521   0.431  1.6593  3.6395 -1.7293
 2160WAT    EPW 9348   2.868   7.532   0.412 -0.5387 -0.3759 -0.1712
 2161WAT      O 9349   6.907   0.250   4.799  0.2690  0.1169 -0.3750
 2161WAT     H1 9350   6.975   0.292   4.834 -1.1730  1.0537  1.4729
 2161WAT     H2 9351   6.844   0.310   4.799 -0.5428 -0.6640 -2.2472
 2161WAT    EPW 9352   6.908   0.265   4.804 -0.6147  0.9479 -0.7631
 2162WAT      O 9353   5.072   1.620   4.043  0.1943  0.4500 -0.1925
 2162WAT     H1 9354   5.007   1.562   4.035 -0.3530  1.2019 -1.4578
 2162WAT     H2 9355   5.101   1.607   4.125 -1.8402  0.3983  0.5786
 2162WAT    EPW 9356   5.066   1.609   4.054  0.1645 -0.0641  0.3329
 2163WAT      O 9357   5.444   3.985   0.324 -0.0937  0.5152 -0.3097
 2163WAT     H1 9358   5.530   3.976   0.309  0.1796  1.7581  0.3977
 2163WAT     H2 9359   5.418   4.042   0.263 -0.3583  0.3582 -0.3447
 2163WAT    EPW 9360   5.453   3.992   0.313 -0.0008 -0.7322 -0.4587
 2164WAT      O 9361   5.262   1.541   3.456 -0.3172 -0.4850 -0.2094
 2164WAT     H1 9362   5.179   1.532   3.429  0.0501 -0.6884 -1.3193
 2164WAT     H2 9363   5.307   1.543   3.382  0.5930  0.6285  0.3606
 2164WAT    EPW 9364   5.256   1.540   3.441 -0.4417  0.2684  0.0133
 2165WAT      O 9365   3.275   7.819   0.505  0.3689 -0.7338 -0.4392
 2165WAT     H1 9366   3.195   7.840   0.533  1.0540 -0.1013  1.1661
 2165WAT     H2 9367   3.321   7.810   0.578  1.4931 -2.3245 -1.2921
 2165WAT    EPW 9368   3.270   7.821   0.520 -0.2405 -0.4563  0.1811
 2166WAT      O 9369   1.992   5.662   6.967  0.8707  0.2011  0.5953
 2166WAT     H1 9370   1.943   5.597   6.934 -1.5886  1.3698  1.6942
 2166WAT     H2 9371   2.069   5.652   6.927 -0.4488 -1.3403 -1.8108
 2166WAT    EPW 9372   1.996   5.651   6.956 -0.2087  0.3895  0.4588
 2167WAT      O 9373   1.995   6.013   7.262  0.4412  0.2652  0.6061
 2167WAT     H1 9374   2.068   6.034   7.219  0.5238  0.9054  1.0535
 2167WAT     H2 9375   2.009   5.929   7.284  0.3562 -0.1076 -0.6679
 2167WAT    EPW 9376   2.008   6.003   7.259  0.3210 -0.3737 -0.7908
 2168WAT      O 9377   5.015   6.494   4.640 -0.4155 -0.3263  0.4441
 2168WAT     H1 9378   5.023   6.516   4.724 -0.3658 -0.8040  0.5678
 2168WAT     H2 9379   4.950   6.436   4.640 -1.0071  0.3168  0.0288
 2168WAT    EPW 9380   5.007   6.488   4.653 -0.0158 -0.2919 -0.4231
 2169WAT      O 9381   5.688   6.109   6.943 -0.7724 -0.5137  0.5730
 2169WAT     H1 9382   5.648   6.075   7.013 -3.7454 -2.1450 -1.6611
 2169WAT     H2 9383   5.629   6.166   6.911  1.0076  1.1116  0.0286
 2169WAT    EPW 9384   5.673   6.112   6.948 -0.2131  0.0960 -0.5943
 2170WAT      O 9385   5.291   1.129   6.212 -0.2456  0.0167  0.0273
 2170WAT     H1 9386   5.231   1.128   6.149 -1.3381  1.3023  1.0050
 2170WAT     H2 9387   5.346   1.191   6.187  0.8535 -1.2862 -0.9630
 2170WAT    EPW 9388   5.290   1.138   6.199 -0.0112 -0.3492  0.0944
 2171WAT      O 9389   3.259   0.129   2.231  0.0177 -0.1353 -0.0308
 2171WAT     H1 9390   3.259   0.216   2.224  3.2095 -0.0182  0.1824
 2171WAT     H2 9391   3.293   0.102   2.155  1.8946 -0.9499  1.0366
 2171WAT    EPW 9392   3.264   0.138   2.218  0.0114 -0.5636  0.6500
 2172WAT      O 9393   4.739   7.885   5.626 -0.2127  0.5255  0.2446
 2172WAT     H1 9394   4.785   7.882   5.700 -2.4864  0.8015  1.7869
 2172WAT     H2 9395   4.696   7.809   5.625  1.0262 -0.2217 -1.7289
 2172WAT    EPW 9396   4.739   7.874   5.637 -0.3845 -0.1182  0.3528
 2173WAT      O 9397   7.436   7.711   2.561 -0.1274  0.1436 -0.4909
 2173WAT     H1 9398   7.382   7.774   2.588  0.7696  0.0961  1.5722
 2173WAT     H2 9399   7.505   7.755   2.530  0.0862  0.2072  0.0580
 2173WAT    EPW 9400   7.438   7.727   2.560  0.0216  0.5557  0.2063
 2174WAT      O 9401   4.595   1.534   3.223 -0.2364  0.1943 -0.0687
 2174WAT     H1 9402   4.667   1.578   3.247  1.5562 -0.3731 -3.6398
 2174WAT     H2 9403   4.574   1.570   3.147 -1.2281 -2.3402 -1.1075
 2174WAT    EPW 9404   4.603   1.546   3.215 -0.0794  0.6547 -0.2525
 2175WAT      O 9405   2.923   0.213   0.598 -0.1127 -0.2364 -0.3982
 2175WAT     H1 9406   3.008   0.208   0.617 -0.1010 -1.7519 -0.7275
 2175WAT     H2 9407   2.886   0.165   0.661 -0.5576 -0.9527 -1.1975
 2175WAT    EPW 9408   2.930   0.206   0.610  0.2384 -0.4195  0.2829
 2176WAT      O 9409   2.378   7.508   7.705  0.7211 -0.0401 -0.0263
 2176WAT     H1 9410   2.461   7.493   7.684  1.1650  1.5806  0.4275
 2176WAT     H2 9411   2.369   7.469   7.783  0.8052 -0.8859 -0.4260
 2176WAT    EPW 9412   2.389   7.500   7.713 -0.2165 -0.5052 -0.1402
 2177WAT      O 9413   0.166   7.424   4.216  0.0808 -0.3571  0.4635
 2177WAT     H1 9414   0.152   7.353   4.167  0.1984 -0.4861  0.6174
 2177WAT     H2 9415   0.188   7.485   4.158 -0.7775 -0.2419  0.2492
 2177WAT    EPW 9416   0.167   7.423   4.200  0.4259 -0.3536  0.0843
 2178WAT      O 9417   5.611   2.091   4.278  0.1911  0.1089 -0.0365
 2178WAT     H1 9418   5.583   2.107   4.359  0.0768  3.0110 -0.5267
 2178WAT     H2 9419   5.677   2.147   4.267 -1.1831  1.4323 -2.6029
 2178WAT    EPW 9420   5.617   2.102   4.288  0.0688 -0.2570  0.1985
 2179WAT      O 9421   6.802   7.583   1.009  0.8594  0.6404  0.3819
 2179WAT     H1 9422   6.867   7.531   0.982  0.4740  0.1270  0.4451
 2179WAT     H2 9423   6.844   7.655   1.036  1.2993  1.1001 -1.3498
 2179WAT    EPW 9424   6.818   7.586   1.009  0.2403 -0.0302 -0.2521
 2180WAT      O 9425   7.520   6.006   3.285  0.3701  0.6058  0.1614
 2180WAT     H1 9426   7.502   6.052   3.213  0.3286 -0.2395 -0.3910
 2180WAT     H2 9427   7.442   5.994   3.322  0.3525  0.7746  0.1779
 2180WAT    EPW 9428   7.506   6.011   3.280  0.7707 -0.3187  0.2581
 2181WAT      O 9429   2.684   4.920   6.130  0.5127  0.0280 -0.3197
 2181WAT     H1 9430   2.657   4.840   6.112 -2.7374  0.1328  2.8433
 2181WAT     H2 9431   2.712   4.914   6.213  1.6939  1.8476 -0.5378
 2181WAT    EPW 9432   2.684   4.908   6.140 -0.1805  0.0429 -0.2669
 2182WAT      O 9433   5.014   6.782   4.536 -0.5469  0.2895  0.0423
 2182WAT     H1 9434   5.004   6.864   4.507  2.0675  1.0879  1.1388
 2182WAT     H2 9435   4.957   6.777   4.602  1.5254  2.5389  2.2476
 2182WAT    EPW 9436   5.004   6.794   4.542 -0.1158  0.1773 -0.0089
 2183WAT      O 9437   6.728   1.740   4.883  0.0563  0.2583  0.2846
 2183WAT     H1 9438   6.693   1.748   4.962 -1.5679  1.2126 -0.4684
 2183WAT     H2 9439   6.745   1.655   4.876 -3.3541 -0.5295  0.2691
 2183WAT    EPW 9440   6.726   1.729   4.893 -0.0576  0.0271 -0.4160
 2184WAT      O 9441   6.867   0.302   3.747 -0.6088 -0.2136  0.1907
 2184WAT     H1 9442   6.833   0.229   3.779 -0.1205 -0.6775 -0.3386
 2184WAT     H2 9443   6.796   0.351   3.730 -0.8858 -0.0541  1.6964
 2184WAT    EPW 9444   6.851   0.299   3.749 -0.3385  0.2412 -0.1118
 2185WAT      O 9445   3.366   0.914   4.662  0.3956 -0.1436 -0.3531
 2185WAT     H1 9446   3.450   0.931   4.647  0.5515 -0.2326  0.3860
 2185WAT     H2 9447   3.327   0.939   4.588  1.0795 -0.1956 -0.7436
 2185WAT    EPW 9448   3.373   0.920   4.648  0.3371  0.2702  0.1122
 2186WAT      O 9449   0.895   6.449   4.860  0.5852 -0.2282 -0.1607
 2186WAT     H1 9450   0.914   6.399   4.790 -0.1662 -1.5221  0.5188
 2186WAT     H2 9451   0.821   6.488   4.837 -0.2465 -1.4861  0.2920
 2186WAT    EPW 9452   0.887   6.447   4.846  0.1283 -0.4872 -0.0411
 2187WAT      O 9453   5.508   2.029   4.908  0.1592  0.1138 -0.5791
 2187WAT     H1 9454   5.476   2.050   4.987  0.0979  0.4736 -0.6993
 2187WAT     H2 9455   5.453   2.067   4.853 -1.0171 -1.8390 -0.8466
 2187WAT    EPW 9456   5.495   2.038   4.912 -0.3383 -0.3219  0.0869
 2188WAT      O 9457   6.290   0.255   1.894  0.2648  0.8408  0.1569
 2188WAT     H1 9458   6.356   0.262   1.837 -0.3595  0.0189 -0.7129
 2188WAT     H2 9459   6.241   0.190   1.860 -0.5927  0.9335  1.1677
 2188WAT    EPW 9460   6.292   0.246   1.880 -0.4528  0.6361 -0.6501
 2189WAT      O 9461   5.646   2.705   1.054 -0.5298  0.3265 -0.0115
 2189WAT     H1 9462   5.586   2.743   1.005 -1.5081  1.0318  1.6597
 2189WAT     H2 9463   5.701   2.770   1.074 -0.4592  0.1713  0.3006
 2189WAT    EPW 9464   5.646   2.720   1.050  0.2882 -0.0841 -0.1752
 2190WAT      O 9465   2.357   7.440   4.565  0.6413 -0.7735 -0.4864
 2190WAT     H1 9466   2.371   7.459   4.481 -0.3543 -1.7132 -0.8902
 2190WAT     H2 9467   2.335   7.356   4.563  0.3613 -0.7369  0.6934
 2190WAT    EPW 9468   2.356   7.431   4.552 -0.1313  0.1965 -0.2907
 2191WAT      O 9469   6.289   2.332   1.508 -0.0396 -0.2304  0.5203
 2191WAT     H1 9470   6.240   2.274   1.466  0.7857 -0.3473 -0.3178
 2191WAT     H2 9471   6.292   2.301   1.589  0.6237 -1.5512  0.0336
 2191WAT    EPW 9472   6.282   2.319   1.514  0.1392 -0.4359  0.1498
 2192WAT      O 9473   2.944   7.525   3.639 -0.1866 -0.4655 -0.1194
 2192WAT     H1 9474   3.018   7.571   3.638 -0.3611 -0.0827  1.4751
 2192WAT     H2 9475   2.882   7.584   3.624 -0.3227 -0.3674  0.7771
 2192WAT    EPW 9476   2.946   7.540   3.637 -0.0951  0.2390  0.6293
 2193WAT      O 9477   5.582   5.568   4.741  0.2042  0.2139 -0.2176
 2193WAT     H1 9478   5.545   5.491   4.725  1.9430 -0.3380 -2.2252
 2193WAT     H2 9479   5.539   5.598   4.810 -1.5414 -1.8691 -0.2734
 2193WAT    EPW 9480   5.570   5.561   4.749 -0.9724 -0.3538  0.0320
 2194WAT      O 9481   7.319   5.361   1.257 -0.3018  0.2046  0.2084
 2194WAT     H1 9482   7.297   5.414   1.192 -3.2428 -1.9933 -0.8060
 2194WAT     H2 9483   7.346   5.288   1.217 -2.5000 -1.3218  1.3309
 2194WAT    EPW 9484   7.320   5.358   1.242 -0.3271 -0.1739 -0.0657
 2195WAT      O 9485   7.355   6.347   3.276  0.0684 -0.2577  0.0319
 2195WAT     H1 9486   7.269   6.332   3.280 -0.3317  0.2628 -3.4715
 2195WAT     H2 9487   7.360   6.434   3.279  0.5632 -0.3024  0.7143
 2195WAT    EPW 9488   7.343   6.358   3.277  0.1274  0.4505 -0.1878
 2196WAT      O 9489   0.227   5.021   4.074 -0.7027  0.0132  0.2354
 2196WAT     H1 9490   0.178   5.052   4.008 -1.1676  0.9728  0.9992
 2196WAT     H2 9491   0.172   5.021   4.141 -0.7652 -2.6593  0.2899
 2196WAT    EPW 9492   0.212   5.026   4.074 -0.1882  0.4549 -0.9243
 2197WAT      O 9493   3.720   6.994   2.267 -0.1926  0.2010  0.1402
 2197WAT     H1 9494   3.674   6.943   2.321  1.1365 -0.2288  0.9398
 2197WAT     H2 9495   3.676   6.991   2.192 -1.1897 -0.5633  0.7320
 2197WAT    EPW 9496   3.707   6.986   2.264 -0.3486 -0.1893 -0.2127
 2198WAT      O 9497   7.190   3.198   1.252 -0.4292  0.2932  0.2392
 2198WAT     H1 9498   7.130   3.156   1.205  0.5343 -0.3203 -0.5028
 2198WAT     H2 9499   7.204   3.271   1.206 -0.2949  0.2250  0.1706
 2198WAT    EPW 9500   7.184   3.202   1.238 -0.6740  0.2734  0.0577
 2199WAT      O 9501   2.756   3.600   3.805  0.0227  0.1881 -0.3198
 2199WAT     H1 9502   2.825   3.550   3.784 -0.5392 -0.1540 -1.4003
 2199WAT     H2 9503   2.789   3.681   3.805  0.8962 -0.1196  1.2555
 2199WAT    EPW 9504   2.771   3.604   3.802  0.6701 -0.2522  0.7677
 2200WAT      O 9505   2.239   7.612   6.644  0.9057 -0.2103 -0.2737
 2200WAT     H1 9506   2.275   7.541   6.606  0.8488 -1.0347  1.1586
 2200WAT     H2 9507   2.302   7.639   6.698  0.4261  0.0528  0.1490
 2200WAT    EPW 9508   2.254   7.605   6.646  0.3448 -0.2830 -0.8414
 2201WAT      O 9509   5.132   1.604   4.977  0.1113 -0.0230  0.7963
 2201WAT     H1 9510   5.152   1.563   4.903 -0.3069  0.6685  0.2764
 2201WAT     H2 9511   5.179   1.677   4.973  0.7450 -0.3779  1.6395
 2201WAT    EPW 9512   5.142   1.609   4.966 -0.5335 -0.4896  0.4302
 2202WAT      O 9513   5.254   5.636   3.291 -0.9391 -0.2025  0.1169
 2202WAT     H1 9514   5.302   5.690   3.340 -0.1997 -0.8982  0.1690
 2202WAT     H2 9515   5.311   5.577   3.262 -1.8379 -1.3466  0.5889
 2202WAT    EPW 9516   5.269   5.635   3.294  0.2333  0.3563  0.0711
 2203WAT      O 9517   5.365   2.223   2.348  0.2226  0.3857  1.2664
 2203WAT     H1 9518   5.364   2.296   2.301 -0.5227  0.0293  0.7059
 2203WAT     H2 9519   5.450   2.204   2.354  0.3185 -0.1043 -0.8323
 2203WAT    EPW 9520   5.378   2.231   2.342  0.0323  0.0005  0.0340
 2204WAT      O 9521   1.506   7.209   4.330  0.3948  0.0763 -0.1245
 2204WAT     H1 9522   1.560   7.160   4.379 -1.7741 -2.6245 -0.2650
 2204WAT     H2 9523   1.464   7.152   4.281 -1.9375  2.1508 -0.7405
 2204WAT    EPW 9524   1.508   7.193   4.330 -0.7815  0.4086  0.6289
 2205WAT      O 9525   5.562   1.447   3.818 -0.5732 -0.3300 -0.3184
 2205WAT     H1 9526   5.622   1.393   3.787 -0.5804 -0.2333 -0.5002
 2205WAT     H2 9527   5.549   1.503   3.753  0.9441  1.1574  0.5495
 2205WAT    EPW 9528   5.569   1.448   3.804 -0.2661 -0.2382  0.6725
 2206WAT      O 9529   6.879   1.947   3.536  0.1152  0.1329 -0.4738
 2206WAT     H1 9530   6.860   1.903   3.609 -0.6755  0.5939 -0.3859
 2206WAT     H2 9531   6.942   2.002   3.560 -1.0999  1.2697  0.2515
 2206WAT    EPW 9532   6.885   1.949   3.550 -0.1830 -0.3993 -0.3922
 2207WAT      O 9533   2.808   0.132   2.219  0.2570 -0.1448  0.0929
 2207WAT     H1 9534   2.809   0.201   2.272 -1.7763 -0.8130  1.1150
 2207WAT     H2 9535   2.888   0.097   2.230  1.5282  2.2337 -0.8344
 2207WAT    EPW 9536   2.820   0.137   2.229 -0.4982 -0.0157  0.5437
 2208WAT      O 9537   3.748   7.379   3.439  0.0364 -0.3449 -0.2835
 2208WAT     H1 9538   3.695   7.402   3.504 -0.5068  0.6747 -1.0537
 2208WAT     H2 9539   3.738   7.444   3.381  2.7836  0.3389 -0.1028
 2208WAT    EPW 9540   3.738   7.392   3.440 -0.7053  0.5262  0.0659
 2209WAT      O 9541   5.328   2.290   7.924 -0.2015  0.5093  0.4385
 2209WAT     H1 9542   5.401   2.332   7.900  0.9199  0.0160  2.6855
 2209WAT     H2 9543   5.265   2.349   7.910  0.7042  1.2034 -0.9015
 2209WAT    EPW 9544   5.329   2.305   7.918  0.5899  0.5311 -0.0046
 2210WAT      O 9545   4.842   6.143   4.890  0.2359  0.5491  0.7271
 2210WAT     H1 9546   4.758   6.150   4.870  0.5758  0.8003 -0.7383
 2210WAT     H2 9547   4.847   6.064   4.927 -0.7611  0.8594  1.5479
 2210WAT    EPW 9548   4.831   6.132   4.892  0.2649 -0.7075 -0.0220
 2211WAT      O 9549   6.582   7.914   1.262 -0.2999  0.2589 -0.4781
 2211WAT     H1 9550   6.517   7.906   1.204  0.7593 -1.7768 -1.5090
 2211WAT     H2 9551   6.594   7.832   1.290  1.2404  0.7293  0.3363
 2211WAT    EPW 9552   6.574   7.901   1.257 -0.3024  0.7577 -0.4998
 2212WAT      O 9553   4.701   3.372   4.899 -0.1565 -0.2455  0.1969
 2212WAT     H1 9554   4.733   3.423   4.962  0.2548 -0.3624  0.0852
 2212WAT     H2 9555   4.741   3.400   4.827 -0.1387 -0.5421  0.0905
 2212WAT    EPW 9556   4.712   3.384   4.898  0.1976  0.1375 -0.4621
 2213WAT      O 9557   5.878   6.547   4.395 -0.2032  0.8147  0.0343
 2213WAT     H1 9558   5.960   6.530   4.418 -0.5116  0.8884  1.2827
 2213WAT     H2 9559   5.835   6.474   4.416 -1.0264  1.9390  2.7232
 2213WAT    EPW 9560   5.884   6.534   4.401 -0.2481 -0.0456 -0.0521
 2214WAT      O 9561   5.456   6.370   2.085 -0.2403 -0.3475  0.7048
 2214WAT     H1 9562   5.380   6.341   2.115 -0.5977 -0.2306 -0.0753
 2214WAT     H2 9563   5.472   6.441   2.134 -2.1034  1.3927 -1.0433
 2214WAT    EPW 9564   5.447   6.376   2.096 -0.1646  0.0555 -0.2159
 2215WAT      O 9565   5.605   6.879   5.603  0.0798 -0.0161  0.1442
 2215WAT     H1 9566   5.648   6.949   5.573  2.8729 -1.7298 -0.2245
 2215WAT     H2 9567   5.576   6.841   5.530  0.6878 -0.4892  0.1445
 2215WAT    EPW 9568   5.607   6.884   5.587 -0.4910  0.2738  0.0437
 2216WAT      O 9569   4.229   0.165   5.959  0.0042 -0.3579  0.5969
 2216WAT     H1 9570   4.150   0.197   5.942  0.3808 -0.3570 -1.3353
 2216WAT     H2 9571   4.283   0.227   5.930  0.7069 -1.3081 -0.2163
 2216WAT    EPW 9572   4.225   0.179   5.952  0.5812 -1.1386 -0.6959
 2217WAT      O 9573   4.565   0.669   1.946 -0.1903 -0.0926  0.2695
 2217WAT     H1 9574   4.540   0.752   1.942  1.2053  0.3243 -2.9220
 2217WAT     H2 9575   4.631   0.670   2.004  0.3567  1.2074 -0.3500
 2217WAT    EPW 9576   4.571   0.681   1.954 -0.0662 -0.1598 -0.1654
 2218WAT      O 9577   6.764   5.938   0.710 -0.1113  0.1805  0.4140
 2218WAT     H1 9578   6.781   5.888   0.779  1.1729  0.5324  0.3903
 2218WAT     H2 9579   6.711   6.000   0.741 -0.5725 -0.3918  0.7703
 2218WAT    EPW 9580   6.759   5.940   0.725 -0.4027 -0.0081  0.6721
 2219WAT      O 9581   6.698   3.414   3.281 -0.6795  0.6180  0.5257
 2219WAT     H1 9582   6.768   3.363   3.278 -1.2088 -0.1667 -2.6080
 2219WAT     H2 9583   6.728   3.492   3.255 -0.7516  0.5305  0.1646
 2219WAT    EPW 9584   6.712   3.418   3.277 -0.7118  0.4567 -0.1400
 2220WAT      O 9585   5.629   2.499   3.138 -0.0515  0.0630  0.2060
 2220WAT     H1 9586   5.557   2.453   3.124  0.5413 -0.6198 -0.7064
 2220WAT     H2 9587   5.606   2.555   3.201 -1.0828 -0.7854  0.6090
 2220WAT    EPW 9588   5.615   2.501   3.145  0.3014  0.1602 -0.7648
 2221WAT      O 9589   3.824   1.616   3.251 -0.1676  0.0304  0.1662
 2221WAT     H1 9590   3.816   1.687   3.200  1.3242 -0.0305 -0.1994
 2221WAT     H2 9591   3.743   1.583   3.252 -0.6347  1.0691 -0.6438
 2221WAT    EPW 9592   3.811   1.622   3.243  0.0252 -0.6419 -0.3386
 2222WAT      O 9593   7.653   4.153   0.977  0.5566  0.3773  0.1690
 2222WAT     H1 9594   7.636   4.225   1.022 -0.2085  0.2213  0.1498
 2222WAT     H2 9595   7.579   4.138   0.933  1.3241  0.5833 -1.2319
 2222WAT    EPW 9596   7.639   4.161   0.977 -0.2108 -0.4239 -0.2166
 2223WAT      O 9597   7.009   6.060   4.481  0.5081 -0.0578  0.2978
 2223WAT     H1 9598   6.927   6.032   4.474  0.9602 -1.5490  0.5404
 2223WAT     H2 9599   7.013   6.088   4.564  0.3829 -0.5081  0.4623
 2223WAT    EPW 9600   6.998   6.060   4.492 -0.1482  0.3112 -1.0256
 2224WAT      O 9601   5.924   1.841   4.752 -0.4406  0.6562 -0.3045
 2224WAT     H1 9602   5.960   1.913   4.787 -0.5170  0.4207  0.2770
 2224WAT     H2 9603   5.991   1.785   4.749 -0.8615 -0.0088  1.4076
 2224WAT    EPW 9604   5.940   1.843   4.757  0.1457 -0.3030 -0.2289
 2225WAT      O 9605   4.802   2.570   2.304 -0.3043  0.4448  0.5328
 2225WAT     H1 9606   4.814   2.507   2.362  1.3276 -0.2734 -0.5183
 2225WAT     H2 9607   4.728   2.547   2.264  0.4146 -1.0098 -0.0368
 2225WAT    EPW 9608   4.793   2.558   2.307  0.3124  0.0697 -0.4910
 2226WAT      O 9609   0.147   6.300   2.470 -0.2462 -0.2730  0.1899
 2226WAT     H1 9610   0.063   6.277   2.462  0.1625 -1.7331 -0.2449
 2226WAT     H2 9611   0.180   6.239   2.523  0.1196  1.4689  2.0980
 2226WAT    EPW 9612   0.139   6.288   2.477 -0.7113  0.1329 -0.8265
 2227WAT      O 9613   4.155   0.630   3.768 -0.1869  0.1958  0.0237
 2227WAT     H1 9614   4.151   0.597   3.849 -0.0528  0.6411  0.2130
 2227WAT     H2 9615   4.118   0.708   3.776 -0.2421  0.2105 -0.3650
 2227WAT    EPW 9616   4.149   0.636   3.781  0.4368  0.1634  0.2696
 2228WAT      O 9617   4.333   7.076   3.500 -0.2986  0.2873  0.2601
 2228WAT     H1 9618   4.278   7.103   3.562 -0.3871 -1.8825  1.2067
 2228WAT     H2 9619   4.295   7.004   3.469  1.6637 -0.9315  0.5293
 2228WAT    EPW 9620   4.319   7.069   3.505 -0.0720 -1.1019  0.0134
 2229WAT      O 9621   6.879   3.716   0.952 -0.6748  0.0067 -0.2423
 2229WAT     H1 9622   6.945   3.723   0.895  0.2294  0.3597  0.8086
 2229WAT     H2 9623   6.838   3.793   0.946 -0.3974  0.1583 -0.2048
 2229WAT    EPW 9624   6.883   3.728   0.943  0.2580 -0.3797 -0.3904
 2230WAT      O 9625   6.089   3.325   6.018 -0.2800  0.0440  0.3822
 2230WAT     H1 9626   6.141   3.316   6.087  0.9603 -1.9932 -0.7257
 2230WAT     H2 9627   6.128   3.277   5.957 -1.4838  1.5354 -1.6718
 2230WAT    EPW 9628   6.102   3.317   6.019  0.4410 -0.2624 -0.1008
 2231WAT      O 9629   3.903   6.804   0.869  0.0520  0.2014  0.2592
 2231WAT     H1 9630   3.930   6.734   0.824 -0.5361  0.7414 -0.9663
 2231WAT     H2 9631   3.888   6.864   0.807 -0.6000  1.0334  1.1953
 2231WAT    EPW 9632   3.905   6.803   0.853 -0.0545  0.3433  1.0953
 2232WAT      O 9633   3.293   6.894   3.504 -0.4748 -0.0398  0.4294
 2232WAT     H1 9634   3.294   6.981   3.505 -2.4540  0.0153 -0.1449
 2232WAT     H2 9635   3.284   6.873   3.588 -1.6631  0.3668  0.4140
 2232WAT    EPW 9636   3.292   6.903   3.517 -0.2728  0.4237 -0.4638
 2233WAT      O 9637   5.640   5.848   0.917 -0.8349  0.4296  0.1151
 2233WAT     H1 9638   5.698   5.789   0.887  0.0855  1.6430 -0.6139
 2233WAT     H2 9639   5.674   5.924   0.890 -2.2644  1.2525  0.5721
 2233WAT    EPW 9640   5.654   5.850   0.908 -0.2498  0.4439  0.4998
 2234WAT      O 9641   5.145   6.297   3.487  0.1864 -0.2726 -0.6878
 2234WAT     H1 9642   5.094   6.235   3.454 -0.4994  1.0041 -2.1271
 2234WAT     H2 9643   5.217   6.294   3.437  0.3451 -0.2124 -0.4656
 2234WAT    EPW 9644   5.148   6.287   3.475 -0.2457  0.0967  0.2301
 2235WAT      O 9645   5.939   7.826   5.428 -1.2313 -0.7937  0.3752
 2235WAT     H1 9646   5.918   7.774   5.361 -1.3897 -0.7035  0.3535
 2235WAT     H2 9647   5.937   7.773   5.497 -0.3740 -1.0508  0.2220
 2235WAT    EPW 9648   5.936   7.810   5.428  0.6954 -0.2261 -0.0552
 2236WAT      O 9649   3.721   5.863   3.978  0.1958 -0.0478 -0.2682
 2236WAT     H1 9650   3.673   5.901   3.916 -0.6347 -0.7739 -0.0919
 2236WAT     H2 9651   3.665   5.808   4.016  1.0374 -0.5344  0.2976
 2236WAT    EPW 9652   3.706   5.861   3.975  0.4264  0.0834 -0.1843
 2237WAT      O 9653   5.613   6.838   4.151 -0.0035 -0.5481 -0.2853
 2237WAT     H1 9654   5.595   6.921   4.129  1.4071 -0.1335  0.0493
 2237WAT     H2 9655   5.538   6.797   4.136 -0.4307  0.5847 -1.4870
 2237WAT    EPW 9656   5.599   6.844   4.145  0.4637 -0.3293 -0.0633
 2238WAT      O 9657   6.678   2.401   4.190  0.4779  0.2393  0.0599
 2238WAT     H1 9658   6.633   2.338   4.230  0.8003 -0.4260 -0.5796
 2238WAT     H2 9659   6.621   2.434   4.133  0.9075 -0.9626 -1.1249
 2238WAT    EPW 9660   6.663   2.396   4.187  0.2749 -0.5820  0.3060
 2239WAT      O 9661   6.854   6.767   4.807 -0.5076 -0.1805  0.4971
 2239WAT     H1 9662   6.939   6.745   4.812 -0.3954 -0.2689 -1.1423
 2239WAT     H2 9663   6.854   6.837   4.755 -1.5703 -1.4497 -1.3463
 2239WAT    EPW 9664   6.867   6.774   4.800  0.4892  0.3658 -0.4546
 2240WAT      O 9665   7.432   7.696   1.278 -0.2146 -0.6072  0.3840
 2240WAT     H1 9666   7.413   7.626   1.326 -1.8260 -1.3433 -1.1932
 2240WAT     H2 9667   7.489   7.666   1.220  0.0441 -0.2849  0.4707
 2240WAT    EPW 9668   7.438   7.681   1.277  0.1618  0.1838  0.1443
 2241WAT      O 9669   6.340   0.913   4.851 -0.2885 -0.0126  0.3056
 2241WAT     H1 9670   6.286   0.979   4.836 -0.4038  0.0190  0.8443
 2241WAT     H2 9671   6.406   0.927   4.795  0.0924  1.0262  0.9979
 2241WAT    EPW 9672   6.342   0.925   4.840 -0.0029 -0.6398  0.4587
 2242WAT      O 9673   1.389   7.355   3.301 -0.0560  0.6841 -0.4394
 2242WAT     H1 9674   1.347   7.310   3.240 -1.0319  1.5802 -0.4715
 2242WAT     H2 9675   1.394   7.300   3.368 -0.8020  0.3607 -0.6352
 2242WAT    EPW 9676   1.383   7.340   3.302 -0.0144 -0.3229  0.2494
 2243WAT      O 9677   6.872   3.556   2.547  0.3599  0.4742  0.4184
 2243WAT     H1 9678   6.929   3.496   2.519  1.7901  2.1368 -0.3906
 2243WAT     H2 9679   6.829   3.580   2.475 -1.3152 -0.6076  0.9823
 2243WAT    EPW 9680   6.874   3.550   2.532  0.3968 -0.5200 -0.4150
 2244WAT      O 9681   7.016   6.578   3.734 -0.1852 -0.2817 -0.3413
 2244WAT     H1 9682   6.951   6.636   3.732  1.5063  1.7027 -0.9551
 2244WAT     H2 9683   6.987   6.513   3.683 -1.6327  0.5680 -0.6699
 2244WAT    EPW 9684   7.002   6.577   3.726 -0.1622 -0.1980  0.6752
 2245WAT      O 9685   3.443   2.652   1.165 -0.3239 -0.0054 -0.0135
 2245WAT     H1 9686   3.456   2.565   1.169 -0.2639 -0.0065 -0.2296
 2245WAT     H2 9687   3.522   2.685   1.180 -0.3482  0.0119  0.0761
 2245WAT    EPW 9688   3.457   2.644   1.168 -0.5797  0.2288 -0.0815
 2246WAT      O 9689   6.112   7.379   3.899  0.3343  0.1625 -0.7164
 2246WAT     H1 9690   6.085   7.334   3.970  0.8044 -0.0470 -0.6656
 2246WAT     H2 9691   6.183   7.420   3.927 -0.9529  2.2429 -0.2943
 2246WAT    EPW 9692   6.118   7.378   3.914 -0.5109 -0.5206  0.1126
 2247WAT      O 9693   0.364   0.575   2.959 -0.0281  0.1641 -0.0741
 2247WAT     H1 9694   0.418   0.615   2.903 -0.0209  0.9027  0.4350
 2247WAT     H2 9695   0.328   0.642   3.002 -1.4335 -0.3033 -0.4778
 2247WAT    EPW 9696   0.367   0.591   2.957  0.0355  0.3508  0.8576
 2248WAT      O 9697   4.565   2.833   2.174 -0.3882 -0.1183 -0.6024
 2248WAT     H1 9698   4.488   2.794   2.188  0.5601 -1.1420  2.6736
 2248WAT     H2 9699   4.546   2.918   2.177 -1.2804 -0.3449  1.3908
 2248WAT    EPW 9700   4.550   2.840   2.176 -0.2461 -0.2456 -0.2599
 2249WAT      O 9701   3.336   2.647   1.583 -0.6438 -0.3961 -0.2129
 2249WAT     H1 9702   3.406   2.690   1.612 -1.0370 -0.1281  0.3516
 2249WAT     H2 9703   3.340   2.571   1.626  0.4155 -1.2488 -1.6894
 2249WAT    EPW 9704   3.347   2.642   1.594  0.6379 -0.5999  0.0285
 2250WAT      O 9705   5.008   4.162   3.182 -0.0833  0.4648 -0.0148
 2250WAT     H1 9706   5.064   4.212   3.227 -1.3832  2.4887 -0.5584
 2250WAT     H2 9707   4.931   4.176   3.221 -0.6529 -0.4144 -0.7651
 2250WAT    EPW 9708   5.005   4.171   3.195 -0.5185 -0.6302 -0.7299
 2251WAT      O 9709   3.747   2.318   2.805  0.2129 -0.2855 -0.0619
 2251WAT     H1 9710   3.819   2.341   2.762 -1.2196  0.3192 -2.2702
 2251WAT     H2 9711   3.700   2.392   2.807 -0.7871 -0.9165  0.4484
 2251WAT    EPW 9712   3.750   2.332   2.799  0.4902 -0.3050  0.3578
 2252WAT      O 9713   6.447   5.995   0.361  0.4326  0.2049 -0.4153
 2252WAT     H1 9714   6.475   5.930   0.412  0.6367  1.6640  1.4114
 2252WAT     H2 9715   6.437   5.956   0.283  1.1733 -1.8501  0.4382
 2252WAT    EPW 9716   6.449   5.980   0.357 -0.1760  0.0902  0.6180
 2253WAT      O 9717   1.828   7.407   6.598  0.5024 -0.2244  0.1673
 2253WAT     H1 9718   1.772   7.474   6.607 -1.8555 -2.1489  1.1894
 2253WAT     H2 9719   1.859   7.417   6.517  0.0834  1.9555  0.2020
 2253WAT    EPW 9720   1.824   7.419   6.587 -0.4647 -0.1299  0.4637
 2254WAT      O 9721   5.505   4.006   0.592  0.2539  0.0546 -0.7022
 2254WAT     H1 9722   5.462   3.972   0.524 -0.6788 -2.1605  0.8956
 2254WAT     H2 9723   5.441   4.036   0.644  0.8281  0.1061 -0.0062
 2254WAT    EPW 9724   5.489   4.005   0.590 -0.4414  0.4569  0.1796
 2255WAT      O 9725   7.267   4.311   2.399  0.3797  0.2194 -0.3348
 2255WAT     H1 9726   7.269   4.379   2.345 -0.9436  1.0663  0.6058
 2255WAT     H2 9727   7.285   4.346   2.477 -0.0600 -0.5385  0.1259
 2255WAT    EPW 9728   7.270   4.326   2.403  0.0063 -0.0526 -0.5306
 2256WAT      O 9729   2.407   4.781   2.624  0.1269 -0.0336 -0.4494
 2256WAT     H1 9730   2.441   4.715   2.578  1.0832 -0.3221  0.6388
 2256WAT     H2 9731   2.327   4.752   2.645  0.0862 -0.3395 -1.0070
 2256WAT    EPW 9732   2.400   4.767   2.620  0.2198 -0.6380 -0.4995
 2257WAT      O 9733   4.985   6.782   1.068 -0.7630 -0.6166  0.2295
 2257WAT     H1 9734   4.916   6.739   1.098 -0.3493 -0.7003  1.0882
 2257WAT     H2 9735   5.029   6.803   1.140 -2.4721  3.9755  0.2512
 2257WAT    EPW 9736   4.982   6.779   1.083 -0.0995 -0.7700 -0.3935
 2258WAT      O 9737   6.244   5.988   1.799  0.0643  0.4967 -0.5422
 2258WAT     H1 9738   6.202   5.945   1.863  0.7429  0.2461 -0.2569
 2258WAT     H2 9739   6.327   5.988   1.826  0.3728  0.3092 -1.4750
 2258WAT    EPW 9740   6.250   5.982   1.813  0.1995  0.6024  0.5140
 2259WAT      O 9741   4.320   6.926   7.125  0.6939 -0.1310  0.2238
 2259WAT     H1 9742   4.352   6.961   7.198  0.2892  1.0855 -0.1646
 2259WAT     H2 9743   4.391   6.900   7.082  0.9071 -1.6675  1.4005
 2259WAT    EPW 9744   4.335   6.927   7.130  0.0211 -0.1954 -0.2633
 2260WAT      O 9745   4.918   0.004   0.169 -0.2930 -0.3548 -0.3406
 2260WAT     H1 9746   4.866   0.042   0.110 -0.3513 -0.6747 -0.4965
 2260WAT     H2 9747   4.941   0.070   0.221 -1.1868 -0.2692 -0.0299
 2260WAT    EPW 9748   4.913   0.019   0.168  0.4458 -0.0777 -0.5164
 2261WAT      O 9749   2.827   3.107   6.794 -0.1045  0.5093  0.0866
 2261WAT     H1 9750   2.830   3.069   6.872 -0.6106  1.0564  0.3791
 2261WAT     H2 9751   2.906   3.092   6.761  0.0561  0.1270  0.6283
 2261WAT    EPW 9752   2.839   3.099   6.800 -0.3987  0.7423 -0.1584
 2262WAT      O 9753   4.735   8.045   6.076 -0.2452  0.2368 -0.2366
 2262WAT     H1 9754   4.726   7.971   6.122 -2.6834  0.9253  0.5748
 2262WAT     H2 9755   4.667   8.044   6.022 -0.6506  2.0999  0.1560
 2262WAT    EPW 9756   4.724   8.034   6.075  0.0950 -0.1220 -0.2016
 2263WAT      O 9757   2.797   4.821   2.595 -0.0685  0.2382  0.3693
 2263WAT     H1 9758   2.880   4.797   2.608 -0.1532 -0.4981 -0.3533
 2263WAT     H2 9759   2.751   4.758   2.634 -0.2899  0.7333  0.9131
 2263WAT    EPW 9760   2.802   4.808   2.602  0.4638 -0.1150 -0.9700
 2264WAT      O 9761   3.803   2.067   4.319  0.1793  0.2055  0.2920
 2264WAT     H1 9762   3.748   2.078   4.386  1.2689  0.1056  1.2287
 2264WAT     H2 9763   3.878   2.101   4.348  0.3148  1.5151 -1.4161
 2264WAT    EPW 9764   3.806   2.074   4.333  0.4757 -0.3233 -0.0331
 2265WAT      O 9765   0.891   7.490   2.954  0.0205  0.5874  0.5902
 2265WAT     H1 9766   0.923   7.493   3.035 -0.5019 -1.1368  0.8976
 2265WAT     H2 9767   0.903   7.407   2.930 -0.5746  0.8711 -0.7974
 2265WAT    EPW 9768   0.897   7.478   2.962 -0.1043 -0.3467  1.0849
 2266WAT      O 9769   5.757   1.883   1.080 -0.2875  0.1932  0.6018
 2266WAT     H1 9770   5.742   1.808   1.038  2.8457  0.2600 -0.9323
 2266WAT     H2 9771   5.685   1.930   1.066 -1.2394 -1.5476 -0.7079
 2266WAT    EPW 9772   5.744   1.879   1.072 -0.2083  0.2597  0.2128
 2267WAT      O 9773   4.759   7.125   0.624  0.3878 -0.1638  0.0125
 2267WAT     H1 9774   4.763   7.068   0.558  1.3697  0.6287 -0.6550
 2267WAT     H2 9775   4.837   7.117   0.663  0.1335 -0.0225  0.5719
 2267WAT    EPW 9776   4.771   7.115   0.620 -0.3601  0.4507  0.0400
 2268WAT      O 9777   7.869   0.520   1.658 -0.1302  0.5142  0.5439
 2268WAT     H1 9778   7.881   0.566   1.732  0.9703  0.4477  0.4325
 2268WAT     H2 9779   7.949   0.516   1.624 -0.1904 -1.4456  0.5232
 2268WAT    EPW 9780   7.883   0.527   1.664 -0.1894 -0.8200  0.4751
 2269WAT      O 9781   6.616   4.978   3.752 -0.3700 -0.0949 -0.2492
 2269WAT     H1 9782   6.703   4.978   3.739 -0.2990 -0.5506  0.1984
 2269WAT     H2 9783   6.600   5.060   3.779 -0.2502  0.3203 -1.3911
 2269WAT    EPW 9784   6.627   4.990   3.754 -0.5095  0.1361 -0.4731
 2270WAT      O 9785   6.672   0.351   4.382 -0.3875  0.6974  0.4489
 2270WAT     H1 9786   6.643   0.427   4.411 -0.6711  0.0150  2.0656
 2270WAT     H2 9787   6.607   0.295   4.400  0.5362 -0.2415  0.9974
 2270WAT    EPW 9788   6.658   0.354   4.389 -0.0925  0.3501 -0.4951
 2271WAT      O 9789   2.426   0.250   4.856  0.0515  0.1525 -0.1822
 2271WAT     H1 9790   2.489   0.213   4.808 -0.6779 -0.3578 -0.7756
 2271WAT     H2 9791   2.426   0.204   4.930  1.0653  0.8289  0.2497
 2271WAT    EPW 9792   2.435   0.237   4.860  0.2999 -0.9155  0.0936
 2272WAT      O 9793   4.677   7.236   7.070 -0.9195  0.0459  0.2001
 2272WAT     H1 9794   4.736   7.298   7.053 -2.0774  1.2627  0.4563
 2272WAT     H2 9795   4.649   7.212   6.991  0.8082 -1.4954 -0.0038
 2272WAT    EPW 9796   4.682   7.241   7.056 -0.0694  0.3715 -0.4304
 2273WAT      O 9797   7.683   0.038   1.197 -0.6975  0.8292  0.7181
 2273WAT     H1 9798   7.764   0.009   1.184 -0.2876  2.4280 -0.7490
 2273WAT     H2 9799   7.666   0.084   1.125 -3.4076 -0.4407  0.4007
 2273WAT    EPW 9800   7.692   0.041   1.184  0.2259 -0.0412 -0.4120
 2274WAT      O 9801   3.389   7.033   2.191 -0.0571  0.0166 -0.0465
 2274WAT     H1 9802   3.361   7.108   2.224  0.4095 -0.2482  0.9844
 2274WAT     H2 9803   3.316   6.996   2.160 -0.4386  0.4552  0.3178
 2274WAT    EPW 9804   3.374   7.038   2.191  0.0768  0.4707 -0.1756
 2275WAT      O 9805   4.658   0.470   1.721 -0.0161  0.1871  0.2193
 2275WAT     H1 9806   4.649   0.525   1.788  0.2802 -0.8389  1.1329
 2275WAT     H2 9807   4.726   0.502   1.677 -0.3403  0.9896  0.2971
 2275WAT    EPW 9808   4.667   0.483   1.725 -0.0521 -0.3178 -1.1451
 2276WAT      O 9809   7.485   5.459   3.160  0.0552 -0.1507 -0.2631
 2276WAT     H1 9810   7.402   5.482   3.171 -0.1157 -1.4075  1.5592
 2276WAT     H2 9811   7.527   5.499   3.225  0.3168 -1.9312  0.7407
 2276WAT    EPW 9812   7.479   5.468   3.171 -0.3319 -0.0224 -0.1573
 2277WAT      O 9813   5.627   3.288   2.168  0.0456  0.2702 -0.5456
 2277WAT     H1 9814   5.623   3.298   2.254 -1.1694 -1.8600 -0.2940
 2277WAT     H2 9815   5.643   3.203   2.157 -0.2913  0.3959 -2.4174
 2277WAT    EPW 9816   5.629   3.277   2.179  0.0178  0.4519  0.0057
 2278WAT      O 9817   5.694   0.473   4.702  0.8025 -0.2756  0.6206
 2278WAT     H1 9818   5.767   0.514   4.724  0.3133  1.1629 -0.3269
 2278WAT     H2 9819   5.642   0.537   4.673 -0.9782 -1.1917  1.5963
 2278WAT    EPW 9820   5.697   0.488   4.701 -0.0997  0.3920  0.0454
 2279WAT      O 9821   6.956   6.828   2.681 -0.3493  0.1308  0.5597
 2279WAT     H1 9822   6.877   6.816   2.646  0.4633 -0.3805 -1.2380
 2279WAT     H2 9823   6.940   6.831   2.767 -2.1223 -1.7577  0.3923
 2279WAT    EPW 9824   6.942   6.827   2.689  0.1778 -0.5350  0.0173
 2280WAT      O 9825   0.961   6.144   5.170 -0.1127 -0.4484  0.2812
 2280WAT     H1 9826   0.892   6.192   5.148  0.1248 -0.7495 -1.1960
 2280WAT     H2 9827   0.931   6.062   5.163  0.1354 -0.5643  0.5459
 2280WAT    EPW 9828   0.946   6.139   5.166 -0.3492  0.1459  0.6436
 2281WAT      O 9829   7.694   5.990   0.799  0.4595 -0.2122  0.0170
 2281WAT     H1 9830   7.749   5.969   0.863  1.1095 -1.3465 -0.8754
 2281WAT     H2 9831   7.734   5.961   0.727 -0.5974  0.3408 -0.8252
 2281WAT    EPW 9832   7.708   5.983   0.798 -0.4245  0.0526  0.0734
 2282WAT      O 9833   5.414   7.281   2.392 -0.2997  0.3530  0.6260
 2282WAT     H1 9834   5.431   7.207   2.349 -0.9912  0.7315 -0.3223
 2282WAT     H2 9835   5.458   7.342   2.348 -0.6523  0.6801  0.7223
 2282WAT    EPW 9836   5.423   7.279   2.379  0.6824 -0.6112 -0.1810
 2283WAT      O 9837   5.383   5.338   5.258 -0.0745  0.6007  0.5641
 2283WAT     H1 9838   5.308   5.383   5.253 -0.4002  0.0288  0.2400
 2283WAT     H2 9839   5.411   5.337   5.175  0.4095  0.9976  0.7167
 2283WAT    EPW 9840   5.376   5.345   5.245  0.4075 -0.1224 -0.2172
 2284WAT      O 9841   3.953   6.470   1.786 -0.3972  0.4234  0.6215
 2284WAT     H1 9842   3.892   6.529   1.768 -3.0890 -2.3541 -0.2586
 2284WAT     H2 9843   3.909   6.404   1.820  2.0276 -1.9534 -0.4227
 2284WAT    EPW 9844   3.938   6.469   1.788 -0.7442  0.0810  0.7683
 2285WAT      O 9845   4.406   0.108   5.064  0.0828 -0.3373  0.1539
 2285WAT     H1 9846   4.429   0.191   5.076 -1.3785 -0.1079  1.9054
 2285WAT     H2 9847   4.482   0.065   5.061  0.8474  0.7360  2.2208
 2285WAT    EPW 9848   4.421   0.114   5.065 -0.0361 -0.3870 -0.3307
 2286WAT      O 9849   5.117   2.844   3.966 -0.2227  0.2484 -0.0315
 2286WAT     H1 9850   5.162   2.916   3.985  0.4698  0.5455 -2.4672
 2286WAT     H2 9851   5.050   2.874   3.919 -0.0009 -0.6491 -0.9495
 2286WAT    EPW 9852   5.114   2.859   3.962  1.1481 -0.1800  0.6298
 2287WAT      O 9853   5.043   1.192   3.591 -0.2943  0.4134  0.2065
 2287WAT     H1 9854   5.046   1.275   3.617  1.0352  0.0745  1.2171
 2287WAT     H2 9855   5.003   1.151   3.657 -2.2783  0.4417 -0.9198
 2287WAT    EPW 9856   5.037   1.198   3.605 -0.1946  0.9410  0.0586
 2288WAT      O 9857   4.217   5.806   5.194  0.3891  0.2898  0.4718
 2288WAT     H1 9858   4.301   5.786   5.179 -0.0516  0.5819 -3.1250
 2288WAT     H2 9859   4.208   5.885   5.158 -1.5193  0.0809  0.4005
 2288WAT    EPW 9860   4.228   5.815   5.187 -0.0374  0.1844  0.4723
 2289WAT      O 9861   5.270   1.139   4.502  0.0083 -0.1646  0.6087
 2289WAT     H1 9862   5.299   1.189   4.436  0.8172 -0.1123  0.9876
 2289WAT     H2 9863   5.269   1.059   4.469  1.9995 -0.3985  0.9756
 2289WAT    EPW 9864   5.274   1.135   4.488  0.3164 -0.2231 -0.5065
 2290WAT      O 9865   6.604   6.980   3.583  0.1555 -0.2766 -0.0031
 2290WAT     H1 9866   6.648   7.014   3.650 -1.8229  1.0183  0.7205
 2290WAT     H2 9867   6.521   6.998   3.601 -0.4605  0.6295 -3.0510
 2290WAT    EPW 9868   6.598   6.988   3.595 -0.3305 -0.3317 -0.1064
 2291WAT      O 9869   5.254   7.805   4.804  0.9710 -0.3117  0.1525
 2291WAT     H1 9870   5.290   7.749   4.749  1.0378 -1.9703  1.7902
 2291WAT     H2 9871   5.323   7.841   4.845  0.9217  0.8599 -0.7455
 2291WAT    EPW 9872   5.270   7.802   4.802 -0.3468  0.4143 -0.5888
 2292WAT      O 9873   4.447   1.827   4.921  0.3926  0.1517  0.3412
 2292WAT     H1 9874   4.471   1.780   4.851 -0.9607  0.6238 -0.4848
 2292WAT     H2 9875   4.475   1.907   4.903 -3.6116  1.3510 -1.8742
 2292WAT    EPW 9876   4.455   1.832   4.908  0.0603  0.1209 -0.1424
 2293WAT      O 9877   1.084   0.331   1.195  0.0671 -0.2318  0.6063
 2293WAT     H1 9878   1.134   0.260   1.199 -0.2382 -0.4333  0.9147
 2293WAT     H2 9879   1.026   0.312   1.133 -0.9132 -0.8511  1.6754
 2293WAT    EPW 9880   1.083   0.318   1.187  0.2025 -0.4975  0.1527
 2294WAT      O 9881   5.094   1.206   5.225  0.1891 -0.0964 -0.2533
 2294WAT     H1 9882   5.012   1.205   5.254 -0.0123  0.3375 -0.7729
 2294WAT     H2 9883   5.091   1.155   5.154  0.3664 -0.0923 -0.2633
 2294WAT    EPW 9884   5.081   1.199   5.219 -0.0438  0.2670  0.0390
 2295WAT      O 9885   7.981   6.221   2.423 -0.2411 -0.5203 -0.2859
 2295WAT     H1 9886   7.945   6.173   2.360  0.3434 -0.3040 -0.7903
 2295WAT     H2 9887   7.919   6.280   2.441 -0.3455 -0.4723 -0.7844
 2295WAT    EPW 9888   7.966   6.223   2.416 -0.4727 -0.2665  0.0057
 2296WAT      O 9889   0.035   7.329   1.900  0.1174 -0.3917  0.3333
 2296WAT     H1 9890   0.119   7.349   1.893  0.0813 -0.5886 -0.7012
 2296WAT     H2 9891  -0.006   7.395   1.862 -0.1554 -0.6982  0.0820
 2296WAT    EPW 9892   0.041   7.341   1.894  0.4617  0.1436  0.2718
 2297WAT      O 9893   7.142   6.625   4.091  0.2365 -0.1190  0.2906
 2297WAT     H1 9894   7.179   6.652   4.165 -0.4774  0.7155  0.3527
 2297WAT     H2 9895   7.159   6.688   4.034 -1.8535  0.7860  0.5596
 2297WAT    EPW 9896   7.150   6.638   4.093 -0.0015  0.1459  0.4495
 2298WAT      O 9897   6.548   6.235   2.751  0.4301 -0.4711  0.6660
 2298WAT     H1 9898   6.614   6.290   2.758 -0.2235  0.3311  0.6647
 2298WAT     H2 9899   6.485   6.271   2.800 -0.2523 -0.8293  0.0881
 2298WAT    EPW 9900   6.548   6.248   2.759  0.0939  0.2254  0.0464
 2299WAT      O 9901   0.990   5.737   3.283  0.0728  0.0640 -0.2425
 2299WAT     H1 9902   1.070   5.743   3.248 -0.0604  0.5300 -0.4756
 2299WAT     H2 9903   0.937   5.734   3.213 -0.0858 -0.7062 -0.0934
 2299WAT    EPW 9904   0.994   5.737   3.267 -0.1698 -0.2931  0.3095
 2300WAT      O 9905   1.326   6.168   4.356 -0.0993  0.8909 -0.5629
 2300WAT     H1 9906   1.405   6.186   4.323 -0.7668  0.0174 -2.8441
 2300WAT     H2 9907   1.301   6.243   4.393  0.6823  2.0627 -2.2689
 2300WAT    EPW 9908   1.334   6.182   4.356  0.5396 -0.1547 -0.8353
 2301WAT      O 9909   7.083   6.980   3.689 -0.0974  0.3855  0.0954
 2301WAT     H1 9910   7.120   7.060   3.691 -1.6008  1.1709 -1.0235
 2301WAT     H2 9911   7.046   6.973   3.768 -0.1929  0.9281  0.1073
 2301WAT    EPW 9912   7.083   6.991   3.701 -0.0856  0.2166  0.2678
 2302WAT      O 9913   2.300   7.192   5.583  0.1592 -0.1587 -0.3871
 2302WAT     H1 9914   2.215   7.184   5.561 -0.1072  1.3625 -0.0369
 2302WAT     H2 9915   2.319   7.115   5.620 -1.0886 -0.5102 -0.4207
 2302WAT    EPW 9916   2.290   7.180   5.585  1.6741  0.9976  0.5518
 2303WAT      O 9917   5.008   4.095   7.898 -0.6039 -0.1318  0.0117
 2303WAT     H1 9918   4.996   4.100   7.984 -0.6999 -0.6987  0.0334
 2303WAT     H2 9919   5.032   4.012   7.885 -0.1222  0.0758 -0.4497
 2303WAT    EPW 9920   5.010   4.083   7.909 -0.2468  0.7168 -0.1478
 2304WAT      O 9921   3.961   1.385   2.322 -0.6718  0.6419 -0.2694
 2304WAT     H1 9922   3.883   1.351   2.305 -0.4156  0.6924 -1.7049
 2304WAT     H2 9923   3.948   1.471   2.320 -0.8009  0.6527  0.6925
 2304WAT    EPW 9924   3.948   1.393   2.319  0.2926  0.4471 -0.1863
 2305WAT      O 9925   0.054   0.691   4.035  0.6848  0.5297  0.8188
 2305WAT     H1 9926   0.052   0.655   4.114  0.2440 -2.1439 -0.3195
 2305WAT     H2 9927  -0.021   0.735   4.031  0.0791 -0.4152  1.4292
 2305WAT    EPW 9928   0.043   0.693   4.046  0.1020 -0.3269  0.2906
 2306WAT      O 9929   2.209   5.911   5.074  0.5649  0.1966  0.3852
 2306WAT     H1 9930   2.161   5.974   5.108 -1.2159 -0.7840 -0.1843
 2306WAT     H2 9931   2.246   5.948   5.004 -0.4110  0.6248  0.0841
 2306WAT    EPW 9932   2.207   5.925   5.069 -0.7775  0.2129  0.3696
 2307WAT      O 9933   0.814   5.720   3.969 -0.6342  0.2751 -0.0355
 2307WAT     H1 9934   0.883   5.678   4.003 -0.6827 -0.2361 -0.5589
 2307WAT     H2 9935   0.749   5.698   4.022 -1.0654 -1.8882 -1.3539
 2307WAT    EPW 9936   0.815   5.710   3.982  0.2798 -0.2524  0.1403
 2308WAT      O 9937   6.976   7.013   1.297  0.2951  0.7403 -0.0358
 2308WAT     H1 9938   6.996   7.035   1.215 -0.7230 -0.8868 -0.7645
 2308WAT     H2 9939   6.890   7.023   1.301  0.1946 -0.1731  0.5046
 2308WAT    EPW 9940   6.966   7.018   1.286  0.3547 -0.0654  0.2753
 2309WAT      O 9941   7.103   6.206   1.358 -0.7496 -0.1492  0.4495
 2309WAT     H1 9942   7.145   6.136   1.326 -1.8347 -0.3588 -0.5811
 2309WAT     H2 9943   7.168   6.260   1.380  0.0773 -0.5939 -0.7731
 2309WAT    EPW 9944   7.119   6.204   1.356  1.1343  0.1691  0.6108
 2310WAT      O 9945   4.835   6.682   0.702 -0.7607 -0.0429 -0.1678
 2310WAT     H1 9946   4.878   6.737   0.649  1.7684 -0.7523  0.9784
 2310WAT     H2 9947   4.787   6.735   0.751 -1.1028  0.8339 -1.4009
 2310WAT    EPW 9948   4.834   6.698   0.701  0.2327 -0.2882 -0.5263
 2311WAT      O 9949   5.473   2.109   6.817 -0.2197  0.2460 -0.3738
 2311WAT     H1 9950   5.436   2.046   6.770  1.7339 -0.0930 -1.6095
 2311WAT     H2 9951   5.450   2.182   6.776  1.5237 -0.0499 -2.0294
 2311WAT    EPW 9952   5.464   2.110   6.804 -0.0112 -0.1167 -0.7117
 2312WAT      O 9953   7.332   6.831   2.393 -0.0786 -0.2268 -0.1043
 2312WAT     H1 9954   7.293   6.789   2.458  1.4190 -2.1057 -0.3398
 2312WAT     H2 9955   7.267   6.847   2.337 -1.5161  1.9266  1.9675
 2312WAT    EPW 9956   7.316   6.827   2.394  0.0260  0.2817 -0.3374
 2313WAT      O 9957   3.400   7.752   5.634  0.0890 -0.4919 -0.1608
 2313WAT     H1 9958   3.478   7.712   5.633 -0.2711 -1.4347  2.2869
 2313WAT     H2 9959   3.350   7.696   5.678 -1.9445  0.2363 -1.4207
 2313WAT    EPW 9960   3.404   7.738   5.640 -0.0324  0.0979 -0.0111
 2314WAT      O 9961   7.254   0.157   2.831  0.3370  0.1858  0.1113
 2314WAT     H1 9962   7.279   0.118   2.757  0.0755 -0.3493  0.2975
 2314WAT     H2 9963   7.264   0.094   2.891  2.5957  1.2243  0.9191
 2314WAT    EPW 9964   7.259   0.142   2.829 -0.0914  0.4681 -0.0367
 2315WAT      O 9965   0.745   1.676   1.546 -0.0753 -0.0850  0.0925
 2315WAT     H1 9966   0.674   1.647   1.505  0.1563  0.8053 -0.9948
 2315WAT     H2 9967   0.713   1.732   1.605 -0.5291 -2.4451  2.2540
 2315WAT    EPW 9968   0.730   1.680   1.548  0.2676 -0.2859  0.2241
 2316WAT      O 9969   1.964   0.572   1.987 -0.1268 -0.1296 -0.6632
 2316WAT     H1 9970   1.974   0.623   2.057 -0.2356 -1.9569  0.7434
 2316WAT     H2 9971   1.902   0.515   2.011  0.5167 -1.3944 -1.8585
 2316WAT    EPW 9972   1.956   0.571   2.001  0.3375  0.0460  0.3152
 2317WAT      O 9973   1.276   5.941   0.184  0.0082 -0.3140 -0.3139
 2317WAT     H1 9974   1.309   6.021   0.198  0.2506 -0.8078  2.4188
 2317WAT     H2 9975   1.339   5.901   0.140  0.4483  0.5778 -0.5318
 2317WAT    EPW 9976   1.290   5.947   0.180  0.3688 -0.4058  0.2764
 2318WAT      O 9977   5.663   4.574   6.949  0.4227  0.7935  0.4545
 2318WAT     H1 9978   5.680   4.495   6.984 -0.0254  0.1558 -0.7066
 2318WAT     H2 9979   5.743   4.605   6.930  0.5449 -0.6274 -1.6594
 2318WAT    EPW 9980   5.678   4.567   6.951 -0.3585 -0.2114  0.2922
 2319WAT      O 9981   6.009   4.863   0.955  0.1685 -0.1875  0.4530
 2319WAT     H1 9982   6.085   4.898   0.978  0.4680 -1.1135  0.9392
 2319WAT     H2 9983   6.030   4.780   0.936 -0.2870  0.1587 -1.9155
 2319WAT    EPW 9984   6.023   4.856   0.955 -0.2559 -0.3448 -0.2637
 2320WAT      O 9985   2.841   6.092   6.790 -0.4905  0.2943 -0.0750
 2320WAT     H1 9986   2.860   6.101   6.706 -2.5386 -2.3051 -0.9516
 2320WAT     H2 9987   2.841   6.174   6.820  1.7524  1.1884 -2.1671
 2320WAT    EPW 9988   2.844   6.105   6.782 -1.0121  0.4802 -0.6524
 2321WAT      O 9989   1.232   7.026   1.373  0.0933 -0.2653  0.1154
 2321WAT     H1 9990   1.187   7.077   1.319  0.7913 -0.2840 -0.5075
 2321WAT     H2 9991   1.231   7.069   1.448  0.0212  0.2906 -0.2025
 2321WAT    EPW 9992   1.225   7.040   1.376 -0.0643 -0.0001 -0.0331
 2322WAT      O 9993   6.546   2.359   5.520 -0.4436  0.0488  0.0507
 2322WAT     H1 9994   6.580   2.439   5.515 -0.2781  0.0533  1.0690
 2322WAT     H2 9995   6.467   2.372   5.554 -0.4342 -0.2096  0.1749
 2322WAT    EPW 9996   6.539   2.373   5.524  0.2839  0.1402  0.4855
 2323WAT      O 9997   0.256   0.332   4.147  0.0862 -0.7246  0.1818
 2323WAT     H1 9998   0.340   0.337   4.125  0.0554  0.8700  0.2591
 2323WAT     H2 9999   0.214   0.347   4.072 -0.1791 -2.5002 -0.0607
 2323WAT    EPW10000   0.262   0.335   4.133 -0.1428  0.5296 -0.1910
 2324WAT      O10001   1.572   3.522   1.134 -0.5375  0.6954 -0.2293
 2324WAT     H110002   1.518   3.563   1.080 -0.3415  0.1650 -0.8336
 2324WAT     H210003   1.535   3.444   1.145 -0.1097  0.4766 -0.3189
 2324WAT    EPW10004   1.559   3.517   1.128 -0.0767  0.6034 -0.0524
 2325WAT      O10005   4.953   7.355   8.032 -0.2818 -0.2795  0.2664
 2325WAT     H110006   4.888   7.315   8.073  0.1918 -1.7007 -0.2865
 2325WAT     H210007   4.990   7.291   7.985 -0.6181  1.1575 -2.1525
 2325WAT    EPW10008   4.949   7.340   8.031  0.1535  0.3724  0.4921
 2326WAT      O10009   0.674   0.809   3.493  0.1806  0.1788 -0.0916
 2326WAT     H110010   0.728   0.820   3.560  0.8671 -1.2603 -0.3714
 2326WAT     H210011   0.596   0.800   3.531  0.1036  2.1515  0.3180
 2326WAT    EPW10012   0.670   0.810   3.509 -0.1795 -0.3788 -1.0488
 2327WAT      O10013   3.445   3.217   6.384 -1.1248 -0.5353 -0.3649
 2327WAT     H110014   3.524   3.248   6.363 -0.3247 -0.3534  2.5039
 2327WAT     H210015   3.391   3.264   6.334  0.4494  1.0881 -0.6676
 2327WAT    EPW10016   3.449   3.229   6.374 -0.4319 -0.2686 -0.2405
 2328WAT      O10017   4.887   7.611   2.507  0.1070  0.5210 -0.3057
 2328WAT     H110018   4.816   7.577   2.546 -0.6825  0.9718 -1.3084
 2328WAT     H210019   4.951   7.592   2.562 -0.8856  0.6334  0.9445
 2328WAT    EPW10020   4.886   7.603   2.521  0.1504  0.6457  0.4757
 2329WAT      O10021   6.844   6.492   1.656 -0.2498  0.5136  0.0480
 2329WAT     H110022   6.824   6.426   1.709  0.4565  1.4963  1.6081
 2329WAT     H210023   6.931   6.491   1.655 -0.2222 -0.2533 -2.1634
 2329WAT    EPW10024   6.854   6.482   1.664 -0.7407  0.1094  0.4009
 2330WAT      O10025   2.353   4.651   7.723  0.2299  0.1325 -0.1739
 2330WAT     H110026   2.369   4.565   7.724 -1.9390 -0.3219 -0.5041
 2330WAT     H210027   2.418   4.683   7.674  1.5335 -1.1793  0.5905
 2330WAT    EPW10028   2.365   4.643   7.716  0.2053  0.2700 -0.4686
 2331WAT      O10029   4.113   5.273   2.551 -0.0950 -0.1416  0.5541
 2331WAT     H110030   4.138   5.234   2.477 -0.0133  1.5548 -0.3694
 2331WAT     H210031   4.187   5.277   2.597 -0.0959 -1.0093  0.6445
 2331WAT    EPW10032   4.127   5.268   2.547 -0.1203  0.3736 -0.0168
 2332WAT      O10033   7.070   5.244   0.423  0.4332  0.0709  0.2053
 2332WAT     H110034   7.077   5.166   0.460  2.3411  0.0481 -0.1524
 2332WAT     H210035   7.149   5.279   0.431  0.6905  0.4761 -2.9548
 2332WAT    EPW10036   7.082   5.238   0.430  0.0860  0.0234  0.2761
 2333WAT      O10037   6.524   2.477   1.119  0.1021  0.6995 -0.2398
 2333WAT     H110038   6.492   2.507   1.043 -2.3702  2.4123  1.2996
 2333WAT     H210039   6.476   2.406   1.135 -0.4264  1.1613  0.3263
 2333WAT    EPW10040   6.512   2.471   1.110  0.0444 -0.0121  0.0862
 2334WAT      O10041   5.826   7.554   3.171  0.2683 -0.3935  0.0666
 2334WAT     H110042   5.774   7.575   3.104 -0.1216 -0.1552  0.4368
 2334WAT     H210043   5.902   7.590   3.150  0.6940 -1.8823 -1.1314
 2334WAT    EPW10044   5.829   7.562   3.158  0.4537 -0.1989 -0.4726
 2335WAT      O10045   4.865   7.934   5.872  0.1904 -0.3920  0.2116
 2335WAT     H110046   4.841   7.965   5.951  1.0502 -0.1484  0.3815
 2335WAT     H210047   4.944   7.967   5.860  0.1282 -0.5537 -0.7023
 2335WAT    EPW10048   4.873   7.944   5.882  0.2367 -0.1285  0.1014
 2336WAT      O10049   0.426   5.674   0.446 -0.1565 -0.0560  0.3695
 2336WAT     H110050   0.343   5.673   0.474  0.5061  0.1317  2.5741
 2336WAT     H210051   0.466   5.728   0.502  1.3776  0.2703 -0.9523
 2336WAT    EPW10052   0.420   5.682   0.459  0.6508  0.7292  0.1963
 2337WAT      O10053   5.112   0.891   2.999  0.2135  0.1243 -0.3204
 2337WAT     H110054   5.038   0.867   3.038  0.8123  1.7004  2.0541
 2337WAT     H210055   5.165   0.822   3.012 -0.2479 -0.2427 -0.3413
 2337WAT    EPW10056   5.109   0.877   3.007  0.0751 -0.7868 -0.2964
 2338WAT      O10057   4.213   2.031   3.646 -0.0026  0.0752  0.0309
 2338WAT     H110058   4.254   1.968   3.689 -1.3816 -1.0566 -0.2662
 2338WAT     H210059   4.212   2.002   3.564 -0.2001  0.7361 -0.2082
 2338WAT    EPW10060   4.219   2.018   3.640 -0.1895 -0.3297  0.0382
 2339WAT      O10061   7.824   2.456   0.197  0.2262  0.1546 -0.2688
 2339WAT     H110062   7.883   2.437   0.136  0.6375 -1.6707  0.6470
 2339WAT     H210063   7.748   2.435   0.160  0.4854 -1.0790 -0.1387
 2339WAT    EPW10064   7.822   2.450   0.182  0.2206 -0.2512  0.1134
 2340WAT      O10065   7.619   5.378   1.838 -0.5538  0.4715  0.0359
 2340WAT     H110066   7.699   5.386   1.804  0.4638  0.1869  2.2019
 2340WAT     H210067   7.633   5.345   1.917 -2.8379  0.4596  0.5177
 2340WAT    EPW10068   7.633   5.374   1.845  0.1105  0.4666  0.4056
 2341WAT      O10069   2.816   7.417   3.110 -0.0459  0.1075 -0.4358
 2341WAT     H110070   2.806   7.504   3.100 -3.1117 -0.2013 -1.3308
 2341WAT     H210071   2.819   7.388   3.028 -1.0631 -0.7406 -0.1901
 2341WAT    EPW10072   2.815   7.426   3.096 -0.2669  0.0630 -0.3256
 2342WAT      O10073   5.100   6.465   1.773 -0.5849 -0.6041  0.5657
 2342WAT     H110074   5.135   6.497   1.846 -1.0561  2.9642 -0.5551
 2342WAT     H210075   5.168   6.435   1.728  0.5297  1.9130  0.4102
 2342WAT    EPW10076   5.115   6.466   1.777  0.0307  0.2936  0.2182
 2343WAT      O10077   6.679   7.850   2.194  0.3783  0.6467 -0.1308
 2343WAT     H110078   6.730   7.801   2.245  0.0786  1.9805  1.5522
 2343WAT     H210079   6.599   7.837   2.227 -0.0907  0.2794 -1.3443
 2343WAT    EPW10080   6.675   7.841   2.206  0.0438  1.0197 -0.1435
 2344WAT      O10081   4.635   6.678   1.632  0.0497 -0.3937  0.0184
 2344WAT     H110082   4.629   6.591   1.639  0.3842 -0.4305 -0.1057
 2344WAT     H210083   4.554   6.706   1.645 -0.0025 -0.7048  0.3625
 2344WAT    EPW10084   4.622   6.669   1.635 -0.5558  0.0981 -0.1178
 2345WAT      O10085   7.956   1.925   1.088  0.3684 -0.1387  0.6893
 2345WAT     H110086   7.956   1.938   1.002  3.5056  0.4005  0.6286
 2345WAT     H210087   7.976   2.003   1.120  1.7501 -0.8365  1.6496
 2345WAT    EPW10088   7.959   1.938   1.080 -0.1741 -0.3881 -0.3494
 2346WAT      O10089   5.754   2.439   2.657 -0.0416 -0.5028  0.1582
 2346WAT     H110090   5.780   2.356   2.667 -0.2719 -0.6706 -0.5923
 2346WAT     H210091   5.825   2.479   2.627 -0.0365 -0.5039  0.1687
 2346WAT    EPW10092   5.768   2.432   2.654  0.3365 -0.0157 -0.8848
 2347WAT      O10093   0.624   6.404   2.996 -0.0699  0.2097  0.4410
 2347WAT     H110094   0.685   6.356   3.035 -0.8878 -0.9836  0.3296
 2347WAT     H210095   0.656   6.419   2.916  0.5750  0.6101  0.7723
 2347WAT    EPW10096   0.637   6.399   2.990 -0.6622  0.3251 -0.1134
 2348WAT      O10097   4.012   6.902   4.313  0.8466 -0.8626  0.0310
 2348WAT     H110098   3.999   6.969   4.368  1.3157 -0.6558 -0.1099
 2348WAT     H210099   4.088   6.921   4.275  0.5274 -1.0099 -0.6865
 2348WAT    EPW10100   4.021   6.914   4.316  0.0139 -0.2284 -1.1729
 2349WAT      O10101   3.560   5.971   5.058  0.3731 -0.6762 -0.4878
 2349WAT     H110102   3.545   5.966   4.973  0.2789  1.2281 -0.6316
 2349WAT     H210103   3.482   5.960   5.094  0.0408  0.5906 -0.7811
 2349WAT    EPW10104   3.547   5.969   5.051 -0.2967 -0.0362 -0.0011
 2350WAT      O10105   7.093   0.797   3.671 -0.4215 -0.2696 -0.3599
 2350WAT     H110106   7.021   0.749   3.675 -0.0845 -0.8318 -0.7854
 2350WAT     H210107   7.146   0.760   3.730 -1.2182  1.4738  1.5539
 2350WAT    EPW10108   7.090   0.785   3.680 -0.4777 -0.5596 -0.3489
 2351WAT      O10109   4.814   0.196   3.085 -0.1051 -0.3776  0.4816
 2351WAT     H110110   4.749   0.152   3.121  0.9787  0.0044  3.1439
 2351WAT     H210111   4.886   0.160   3.120  0.8740  2.5089  1.7652
 2351WAT    EPW10112   4.815   0.185   3.095  0.4314 -0.1978 -0.7492
 2352WAT      O10113   1.605   0.034   0.367 -0.0071  0.0939  0.1630
 2352WAT     H110114   1.650   0.104   0.393  0.5084  0.4671 -1.5852
 2352WAT     H210115   1.663  -0.010   0.318 -0.7499 -0.8320  0.0887
 2352WAT    EPW10116   1.620   0.038   0.364 -0.4009  0.6031  0.3198
 2353WAT      O10117   5.619   2.810   6.061  0.3190  0.0452  0.4096
 2353WAT     H110118   5.657   2.806   6.139 -1.1491  0.3623  1.1669
 2353WAT     H210119   5.568   2.880   6.066  0.3678  0.1970 -0.9181
 2353WAT    EPW10120   5.617   2.820   6.073 -0.1725 -0.0031 -0.0487
 2354WAT      O10121   8.034   6.654   1.085 -0.2291 -0.5099  0.0437
 2354WAT     H110122   8.029   6.581   1.038  4.2008 -1.2588  0.2742
 2354WAT     H210123   8.113   6.648   1.122  0.5577  4.5464 -0.1729
 2354WAT    EPW10124   8.045   6.642   1.084  0.4942 -0.2793  0.2661
 2355WAT      O10125   4.957   7.976   6.709  0.2464  0.0688  0.3969
 2355WAT     H110126   4.958   7.890   6.725 -1.6944 -0.0870 -0.1233
 2355WAT     H210127   4.954   8.011   6.789 -0.8894 -0.4184  0.5818
 2355WAT    EPW10128   4.957   7.968   6.724  0.1182 -0.1674  0.0078
 2356WAT      O10129   0.858   3.115   3.390 -0.1928  0.0269  0.5554
 2356WAT     H110130   0.880   3.195   3.365  0.1190 -0.1193  0.3552
 2356WAT     H210131   0.932   3.082   3.422  0.1941 -0.8568 -1.1285
 2356WAT    EPW10132   0.872   3.122   3.391  0.4981  0.0202  0.4952
 2357WAT      O10133   7.720   7.448   2.524 -0.1063  0.1780 -0.0204
 2357WAT     H110134   7.691   7.509   2.579 -0.0690 -0.0360  0.2366
 2357WAT     H210135   7.694   7.374   2.560  0.5295 -0.0038  0.0694
 2357WAT    EPW10136   7.712   7.446   2.537  0.3892  0.3996  0.1310
 2358WAT      O10137   0.820   3.452   4.572  0.3812 -0.1329  0.6951
 2358WAT     H110138   0.855   3.422   4.645 -0.4180 -0.8285  0.8147
 2358WAT     H210139   0.835   3.538   4.575  0.1893 -0.1287  1.7684
 2358WAT    EPW10140   0.827   3.461   4.583  0.8616 -0.0621 -0.7955
 2359WAT      O10141   6.259   5.655   7.759 -0.0901  0.1755 -0.4387
 2359WAT     H110142   6.199   5.592   7.752 -1.3568  0.9705  1.9780
 2359WAT     H210143   6.331   5.618   7.727 -1.2535 -1.7470 -1.0358
 2359WAT    EPW10144   6.260   5.640   7.753  0.2643 -0.1795  0.3778
 2360WAT      O10145   0.307   6.425   3.415 -0.4698 -0.0356 -0.0714
 2360WAT     H110146   0.310   6.351   3.461 -0.5588  0.6321  1.0652
 2360WAT     H210147   0.233   6.419   3.371 -0.6659 -0.4646  0.3071
 2360WAT    EPW10148   0.297   6.413   3.416 -0.1356 -0.4734  0.0906
 2361WAT      O10149   1.588   2.562   2.175 -0.7230  0.2642  0.3892
 2361WAT     H110150   1.664   2.546   2.136 -1.0294  0.7126 -0.4195
 2361WAT     H210151   1.544   2.487   2.166  0.1653 -0.5737  2.2734
 2361WAT    EPW10152   1.593   2.548   2.168 -0.5058  0.1112  0.6349
 2362WAT      O10153   4.128   4.993   1.349 -0.3129  0.0373 -0.2708
 2362WAT     H110154   4.154   4.925   1.300 -2.7679 -0.6482 -0.7663
 2362WAT     H210155   4.042   4.997   1.334 -0.0521  4.9137 -2.3433
 2362WAT    EPW10156   4.119   4.984   1.340  0.8406 -0.1364  0.1895
 2363WAT      O10157   0.563   7.289   2.861 -0.7309  0.1587 -0.2620
 2363WAT     H110158   0.477   7.280   2.848 -1.0058  2.2152 -0.3164
 2363WAT     H210159   0.569   7.364   2.906  0.9707 -0.6197  0.9208
 2363WAT    EPW10160   0.551   7.299   2.866  0.1042 -0.6197 -0.3251
 2364WAT      O10161   5.967   6.173   4.254 -0.2448  0.2273 -0.3824
 2364WAT     H110162   5.888   6.191   4.286 -0.7960  0.4640 -1.7794
 2364WAT     H210163   5.973   6.225   4.184  0.5103 -0.8906 -1.1963
 2364WAT    EPW10164   5.956   6.183   4.248 -0.1570 -0.2912 -0.4623
 2365WAT      O10165   5.441   6.538   0.593  0.5978 -0.4303  0.0580
 2365WAT     H110166   5.399   6.539   0.670  2.2541  0.6248  1.0219
 2365WAT     H210167   5.377   6.526   0.535 -0.7426 -1.0735  1.5694
 2365WAT    EPW10168   5.425   6.536   0.596  0.3013 -0.2268 -0.3404
 2366WAT      O10169   7.708   1.250   3.116 -0.8736  0.0818 -0.1313
 2366WAT     H110170   7.760   1.193   3.158 -0.3614  1.2777  0.8988
 2366WAT     H210171   7.629   1.234   3.149 -0.5468  0.7118  0.9794
 2366WAT    EPW10172   7.704   1.239   3.127 -0.1347 -0.1105 -0.1548
 2367WAT      O10173   7.129   5.332   1.443  0.1220  0.6093  0.3160
 2367WAT     H110174   7.063   5.319   1.387  0.8986  2.0728 -1.0058
 2367WAT     H210175   7.200   5.327   1.393  1.2248 -2.4400  1.9492
 2367WAT    EPW10176   7.129   5.329   1.427 -0.1285  0.0497  0.4518
 2368WAT      O10177   3.379   4.269   7.588 -0.4777  0.2641  0.0256
 2368WAT     H110178   3.369   4.253   7.503 -0.5893  2.9142 -0.5452
 2368WAT     H210179   3.433   4.338   7.590 -0.7322  0.4790  2.0794
 2368WAT    EPW10180   3.386   4.277   7.576 -0.2910 -0.2691 -0.0493
 2369WAT      O10181   4.997   7.816   3.032  0.0626  0.1774 -0.4786
 2369WAT     H110182   5.067   7.785   2.991  0.7675  0.7113  0.2848
 2369WAT     H210183   5.001   7.777   3.110 -1.5256 -1.1979 -1.0196
 2369WAT    EPW10184   5.008   7.806   3.037 -0.3180 -0.2183 -0.2672
 2370WAT      O10185   5.586   0.177   4.085 -0.0794 -0.1960  0.2413
 2370WAT     H110186   5.599   0.259   4.059 -0.8153  0.5925  2.1561
 2370WAT     H210187   5.638   0.130   4.033  2.9263  1.7631  1.2245
 2370WAT    EPW10188   5.595   0.182   4.074  0.5379  0.7315 -0.5010
 2371WAT      O10189   1.431   7.674   3.861 -0.0393 -0.5807  0.9549
 2371WAT     H110190   1.486   7.733   3.829  0.9926 -1.2511  1.4541
 2371WAT     H210191   1.369   7.668   3.799 -0.1531  0.9552  0.8669
 2371WAT    EPW10192   1.430   7.682   3.847 -0.2539 -0.1168 -0.1485
 2372WAT      O10193   1.870   0.411   7.579  0.3355  0.2138 -0.2907
 2372WAT     H110194   1.923   0.351   7.614 -0.0481  0.8579  1.4944
 2372WAT     H210195   1.921   0.481   7.570 -0.0538  0.6915  0.9972
 2372WAT    EPW10196   1.885   0.412   7.582  0.7508  0.3573  0.0114
 2373WAT      O10197   5.980   1.363   3.515  0.7551 -0.0189  0.0288
 2373WAT     H110198   6.019   1.413   3.455  1.5361 -0.3348  0.2607
 2373WAT     H210199   6.032   1.370   3.584  0.0759  0.0183  0.5407
 2373WAT    EPW10200   5.994   1.371   3.516 -0.1926  0.2988  0.6053
 2374WAT      O10201   2.225   0.939   5.327 -0.5553  0.1016 -0.1687
 2374WAT     H110202   2.211   0.873   5.271 -1.1205 -1.5516  1.8029
 2374WAT     H210203   2.147   0.952   5.363 -0.5248  2.1249 -0.7077
 2374WAT    EPW10204   2.212   0.931   5.324  0.1070  0.0226 -0.5507
 2375WAT      O10205   4.357   6.394   3.386  0.4630  0.6295 -0.8409
 2375WAT     H110206   4.411   6.446   3.340  0.1273  1.8996  0.1419
 2375WAT     H210207   4.380   6.409   3.469 -2.2741  2.3402 -0.2692
 2375WAT    EPW10208   4.369   6.404   3.391 -0.1787 -0.0509 -0.1174
 2376WAT      O10209   5.230   7.012   0.370 -0.3074 -0.3321 -0.4345
 2376WAT     H110210   5.303   6.993   0.326  0.0654 -1.5982  0.6549
 2376WAT     H210211   5.258   7.061   0.436 -0.9209  1.9185 -1.7438
 2376WAT    EPW10212   5.245   7.017   0.373 -0.5008  0.3887  0.3673
 2377WAT      O10213   0.267   7.188   0.883  0.0812 -0.1938 -0.4613
 2377WAT     H110214   0.180   7.188   0.871  0.1489  1.2531 -1.1423
 2377WAT     H210215   0.296   7.134   0.822 -0.4618 -2.4188  1.1402
 2377WAT    EPW10216   0.258   7.180   0.872 -1.0096  0.2640  0.2143
 2378WAT      O10217   5.562   7.731   2.616 -0.4029  0.1881  0.2652
 2378WAT     H110218   5.558   7.734   2.529 -1.5504 -0.9159  0.2488
 2378WAT     H210219   5.646   7.751   2.634  0.3428 -1.3701 -1.2033
 2378WAT    EPW10220   5.574   7.735   2.606  0.0434 -0.0953 -0.5170
 2379WAT      O10221   4.468   5.520   2.508 -0.0695  0.2376 -0.0227
 2379WAT     H110222   4.549   5.507   2.536 -0.1638 -1.0991 -0.3086
 2379WAT     H210223   4.473   5.504   2.422 -0.7081 -0.2958  0.0289
 2379WAT    EPW10224   4.481   5.516   2.500 -0.0291 -0.5365 -0.2934
 2380WAT      O10225   1.461   7.495   1.025  0.6464  0.2741 -0.2309
 2380WAT     H110226   1.389   7.479   1.071  1.3629 -1.5968  0.3609
 2380WAT     H210227   1.526   7.479   1.082  1.5328 -0.9506 -1.5130
 2380WAT    EPW10228   1.460   7.490   1.040  0.1005  0.5365  0.4447
 2381WAT      O10229   2.291   6.598   1.802 -0.1113 -0.4353 -0.0432
 2381WAT     H110230   2.306   6.568   1.721  0.9359  0.1344 -0.0740
 2381WAT     H210231   2.309   6.683   1.795  1.4730 -0.6433  1.1467
 2381WAT    EPW10232   2.296   6.606   1.789  0.0059 -0.0161 -0.6688
 2382WAT      O10233   7.844   0.761   4.063 -0.4770 -0.5440 -0.3942
 2382WAT     H110234   7.874   0.831   4.105  0.1600 -0.7582 -0.4891
 2382WAT     H210235   7.758   0.776   4.058 -0.7047 -0.8745  1.6657
 2382WAT    EPW10236   7.835   0.773   4.068 -0.4032 -0.3654  0.0520
 2383WAT      O10237   0.838   0.964   2.052 -0.3050 -0.2820 -0.1762
 2383WAT     H110238   0.872   0.885   2.039 -0.4885 -0.3764 -0.0865
 2383WAT     H210239   0.833   0.970   2.139 -0.6709 -0.3342 -0.1927
 2383WAT    EPW10240   0.842   0.953   2.063  0.3085  0.1676  0.3729
 2384WAT      O10241   1.069   1.183   3.339 -0.3501 -0.0808  0.0326
 2384WAT     H110242   1.059   1.237   3.272  2.2661 -0.0386 -0.4462
 2384WAT     H210243   0.989   1.172   3.370 -1.4174  1.1683 -2.1100
 2384WAT    EPW10244   1.056   1.189   3.334  0.1321  0.0013  0.3092
 2385WAT      O10245   5.645   7.609   6.501 -0.1851  0.3155  0.0273
 2385WAT     H110246   5.567   7.597   6.463 -0.1138 -0.4667  0.1031
 2385WAT     H210247   5.681   7.673   6.455 -1.0228  0.9376  0.2260
 2385WAT    EPW10248   5.639   7.617   6.489 -0.1036  0.0093 -0.3543
 2386WAT      O10249   2.232   5.527   4.831 -0.2527  0.1398  0.4592
 2386WAT     H110250   2.169   5.523   4.891 -0.6398  0.6198  0.0830
 2386WAT     H210251   2.190   5.517   4.755  0.1565  0.1617  0.2232
 2386WAT    EPW10252   2.217   5.525   4.829  0.1538 -0.2187  0.7977
 2387WAT      O10253   6.645   0.937   2.559 -0.5289 -0.2359 -0.1776
 2387WAT     H110254   6.566   0.963   2.535 -1.0931 -1.4013  0.3351
 2387WAT     H210255   6.630   0.863   2.603  0.8023 -0.2411  0.3194
 2387WAT    EPW10256   6.631   0.930   2.562 -0.4611 -0.3926  0.1018
 2388WAT      O10257   4.506   4.912   8.037  0.4714  0.3789  0.2514
 2388WAT     H110258   4.427   4.912   8.076  0.3380  0.5306 -0.0184
 2388WAT     H210259   4.487   4.909   7.952  0.7658 -0.0197  0.1982
 2388WAT    EPW10260   4.491   4.912   8.030  0.1029 -0.2566  0.1203
 2389WAT      O10261   3.523   1.820   1.857 -0.1717  0.0216  0.1353
 2389WAT     H110262   3.569   1.867   1.800 -0.1870  0.0765  0.1681
 2389WAT     H210263   3.500   1.750   1.812  0.5517 -0.3465  0.3179
 2389WAT    EPW10264   3.527   1.817   1.842  0.4214  0.5524 -0.2843
 2390WAT      O10265   3.598   6.193   3.869  0.1700  0.5355 -0.0957
 2390WAT     H110266   3.596   6.243   3.797  0.3218  0.3126 -0.2588
 2390WAT     H210267   3.566   6.117   3.840  1.7376 -0.0605 -0.3333
 2390WAT    EPW10268   3.593   6.189   3.854 -0.5525 -0.6056 -0.0735
 2391WAT      O10269   5.097   1.049   4.991  0.2296 -0.3572 -0.0972
 2391WAT     H110270   5.180   1.070   5.009 -0.9925  1.9514  4.2975
 2391WAT     H210271   5.092   0.964   5.013  1.4308 -0.5797 -0.6091
 2391WAT    EPW10272   5.108   1.039   4.997 -0.1215 -0.1770  0.6025
 2392WAT      O10273   7.350   0.507   1.111 -0.1027 -0.1992  0.1658
 2392WAT     H110274   7.282   0.557   1.132  0.3009 -0.5064  2.4245
 2392WAT     H210275   7.419   0.553   1.140  0.5432 -0.5505 -0.7738
 2392WAT    EPW10276   7.351   0.521   1.118  0.2010  0.4918 -0.1971
 2393WAT      O10277   2.520   7.394   0.029  0.5649 -0.4392 -0.4767
 2393WAT     H110278   2.436   7.409   0.010  0.7681  0.6078 -0.6258
 2393WAT     H210279   2.554   7.370  -0.047  1.0007  2.0256 -1.1378
 2393WAT    EPW10280   2.512   7.392   0.015  0.2326 -0.4604  0.5997
 2394WAT      O10281   2.428   6.782   2.105  0.1794 -0.9559  0.1307
 2394WAT     H110282   2.351   6.819   2.089 -0.5898 -2.5821 -0.1119
 2394WAT     H210283   2.419   6.751   2.186  0.2269 -1.9372 -0.2280
 2394WAT    EPW10284   2.415   6.783   2.115 -0.4432  0.1082  0.1050
 2395WAT      O10285   6.365   6.113   0.919 -0.4769 -0.3405  0.4242
 2395WAT     H110286   6.437   6.153   0.891 -0.8155  0.0143  0.0415
 2395WAT     H210287   6.346   6.154   0.994 -0.4837 -0.1888  0.3392
 2395WAT    EPW10288   6.373   6.125   0.926  0.1165  0.2392  0.0117
 2396WAT      O10289   5.175   7.726   7.161 -0.0710 -0.5338  0.7208
 2396WAT     H110290   5.185   7.788   7.100 -2.5140 -2.0559 -1.4495
 2396WAT     H210291   5.225   7.660   7.131 -1.7031 -1.4863 -0.0573
 2396WAT    EPW10292   5.184   7.725   7.147  0.2572 -0.0112  0.3273
 2397WAT      O10293   7.207   7.411   4.526  0.1390 -0.6612 -0.0305
 2397WAT     H110294   7.149   7.466   4.561  0.2298 -1.0212  0.7015
 2397WAT     H210295   7.256   7.386   4.594  2.3373  0.9944 -0.9025
 2397WAT    EPW10296   7.206   7.415   4.541 -0.1260  0.5963 -0.6936
 2398WAT      O10297   0.198   3.710   3.843 -0.1093  0.4810 -0.3441
 2398WAT     H110298   0.226   3.637   3.805  0.4939  0.5594 -0.0480
 2398WAT     H210299   0.113   3.711   3.824 -0.0487 -0.1038 -0.6638
 2398WAT    EPW10300   0.189   3.699   3.834 -0.2730 -0.2622 -0.2134
 2399WAT      O10301   5.533   1.847   2.442 -0.2179  0.1428 -0.3518
 2399WAT     H110302   5.573   1.773   2.419 -3.3356 -0.7157 -4.0536
 2399WAT     H210303   5.564   1.906   2.384  0.9304  1.4235  1.4528
 2399WAT    EPW10304   5.544   1.845   2.430  0.4587 -0.3728  0.5963
 2400WAT      O10305   6.177   6.504   4.315 -0.4948 -0.4065 -0.0669
 2400WAT     H110306   6.190   6.419   4.328 -0.1267  0.0691  3.6900
 2400WAT     H210307   6.244   6.542   4.355 -1.4235  1.6818 -0.3385
 2400WAT    EPW10308   6.189   6.497   4.323 -0.9591 -0.1125  0.1770
 2401WAT      O10309   2.741   5.390   1.398 -0.0736  0.4289  0.0828
 2401WAT     H110310   2.801   5.385   1.334 -1.6767 -0.3391 -1.4308
 2401WAT     H210311   2.771   5.335   1.458 -0.4112 -1.8587 -1.7153
 2401WAT    EPW10312   2.755   5.381   1.398 -0.3002  0.1529 -0.1647
 2402WAT      O10313   7.439   0.255   1.480 -0.5284  0.1060  0.0927
 2402WAT     H110314   7.356   0.278   1.493 -0.8681 -1.4678  1.0253
 2402WAT     H210315   7.454   0.195   1.542  0.5990 -1.2832 -1.4116
 2402WAT    EPW10316   7.429   0.249   1.491  0.1871  0.2952 -0.6856
 2403WAT      O10317   0.879   3.804   1.119 -0.1143 -0.4010 -0.9329
 2403WAT     H110318   0.881   3.888   1.140 -0.1571 -0.2128 -1.6657
 2403WAT     H210319   0.882   3.763   1.196  0.2881  0.2643 -0.5951
 2403WAT    EPW10320   0.880   3.810   1.134 -0.5985 -0.2696 -0.0048
 2404WAT      O10321   7.910   6.700   4.400 -0.3528 -0.2089 -0.2955
 2404WAT     H110322   7.980   6.688   4.450 -0.8166  0.8727  0.6693
 2404WAT     H210323   7.933   6.766   4.348 -0.7064  0.2940  0.1707
 2404WAT    EPW10324   7.924   6.708   4.400  0.4462  0.0262  0.7399
 2405WAT      O10325   5.552   7.626   1.881 -0.3756  0.0092  0.4733
 2405WAT     H110326   5.590   7.654   1.808 -2.7096 -0.1942 -0.8941
 2405WAT     H210327   5.600   7.556   1.903  0.4292  0.1256 -0.7869
 2405WAT    EPW10328   5.565   7.620   1.874 -0.8700 -0.6114  0.2533
 2406WAT      O10329   6.279   1.336   4.696  0.2292  0.1752 -0.5678
 2406WAT     H110330   6.250   1.416   4.675  1.0858  0.1297 -2.0327
 2406WAT     H210331   6.365   1.348   4.707 -0.0048  0.0108  2.2307
 2406WAT    EPW10332   6.287   1.350   4.694 -0.4206  0.1749  0.2853
 2407WAT      O10333   0.677   5.267   5.080  0.3957 -0.2851 -0.2731
 2407WAT     H110334   0.634   5.330   5.123  2.4045 -0.1135  1.7125
 2407WAT     H210335   0.675   5.294   4.997 -1.2688  0.8802  0.0945
 2407WAT    EPW10336   0.670   5.280   5.074  0.1452 -0.7249  0.0325
 2408WAT      O10337   3.693   1.072   1.692  0.0767 -0.2268 -0.1108
 2408WAT     H110338   3.659   1.141   1.731 -1.8005 -1.1868  0.0579
 2408WAT     H210339   3.775   1.069   1.722 -1.2204 -0.9277  3.8388
 2408WAT    EPW10340   3.700   1.081   1.702  0.5479  0.3226 -0.0270
 2409WAT      O10341   7.278   5.894   3.415  0.0168 -0.6160 -0.3994
 2409WAT     H110342   7.247   5.823   3.377 -0.3038  0.1653 -1.6608
 2409WAT     H210343   7.289   5.870   3.498  2.7279 -3.0528 -1.2970
 2409WAT    EPW10344   7.275   5.880   3.422 -0.1193 -0.4421 -0.5409
 2410WAT      O10345   3.509   6.588   5.408  0.1748  0.3994 -0.4732
 2410WAT     H110346   3.549   6.582   5.485  1.7359  0.7349 -1.2294
 2410WAT     H210347   3.549   6.654   5.369 -1.1028  0.7247 -1.3107
 2410WAT    EPW10348   3.521   6.597   5.414 -0.2546  0.4969 -0.3301
 2411WAT      O10349   3.006   7.193   2.164 -0.2029  0.1573  0.0453
 2411WAT     H110350   3.004   7.159   2.083 -1.4362  0.8713 -0.2366
 2411WAT     H210351   2.968   7.131   2.212  2.3139 -1.1976  0.5081
 2411WAT    EPW10352   3.000   7.179   2.159 -0.2569  0.5752 -0.0895
 2412WAT      O10353   4.672   7.509   2.658 -0.4595 -0.3354 -0.1838
 2412WAT     H110354   4.715   7.523   2.732 -0.3804  1.6515 -0.5486
 2412WAT     H210355   4.605   7.564   2.661 -0.4432 -0.1840 -1.5810
 2412WAT    EPW10356   4.668   7.519   2.669  0.3677  0.0223  0.1787
 2413WAT      O10357   4.050   1.617   4.811 -0.5190  0.2561  0.0063
 2413WAT     H110358   4.113   1.677   4.810  0.1331 -0.3706 -2.0751
 2413WAT     H210359   3.993   1.647   4.752 -0.6745 -0.6725 -0.3247
 2413WAT    EPW10360   4.051   1.630   4.802  0.8446  0.5040 -0.0735
 2414WAT      O10361   5.069   3.223   4.018  0.6843  0.1588  0.0719
 2414WAT     H110362   5.016   3.159   4.045 -0.6166  1.2120  0.1559
 2414WAT     H210363   5.064   3.218   3.931  2.9035 -1.6542 -0.0238
 2414WAT    EPW10364   5.060   3.213   4.009  0.4495  0.0294 -0.6374
 2415WAT      O10365   2.919   6.293   2.508  0.3558  0.4647  0.6249
 2415WAT     H110366   2.883   6.361   2.549  0.5840  0.5125  0.7482
 2415WAT     H210367   3.004   6.313   2.507  0.4430  0.1140  0.7936
 2415WAT    EPW10368   2.927   6.306   2.514  0.8586 -0.4954 -0.1791
 2416WAT      O10369   4.266   0.993   4.113 -0.0369 -0.1561  0.5133
 2416WAT     H110370   4.353   0.995   4.115 -0.0354  0.1786  0.0956
 2416WAT     H210371   4.243   1.077   4.109 -0.4343 -0.1111  2.4540
 2416WAT    EPW10372   4.275   1.006   4.113 -0.4397  0.1362  0.4364
 2417WAT      O10373   6.233   6.203   4.312 -0.3170 -0.1627 -0.0022
 2417WAT     H110374   6.276   6.178   4.240  0.3576  0.1747  0.2690
 2417WAT     H210375   6.155   6.165   4.304 -0.0491 -0.6002 -0.6296
 2417WAT    EPW10376   6.228   6.193   4.300  0.1789  0.5506 -0.2450
 2418WAT      O10377   2.812   3.386   0.357  0.2070 -0.3525  0.1250
 2418WAT     H110378   2.729   3.362   0.370  0.3348 -0.9139 -0.0649
 2418WAT     H210379   2.814   3.469   0.384  0.1859 -1.0897  2.6084
 2418WAT    EPW10380   2.800   3.395   0.363  0.2709  0.2293  0.1254
 2419WAT      O10381   4.521   2.703   1.716 -0.1636 -0.2138  0.0346
 2419WAT     H110382   4.553   2.780   1.694  0.8640 -0.6187  0.0517
 2419WAT     H210383   4.588   2.664   1.757 -1.3011 -0.3086  1.9319
 2419WAT    EPW10384   4.536   2.708   1.719  0.5454 -0.1928  0.2329
 2420WAT      O10385   6.201   6.205   3.431  0.5730 -0.1369  0.1821
 2420WAT     H110386   6.221   6.140   3.486  0.8759  0.4654  0.7955
 2420WAT     H210387   6.246   6.273   3.462  0.5148  0.2876 -0.6456
 2420WAT    EPW10388   6.211   6.205   3.444 -0.6700  0.1786 -0.4538
 2421WAT      O10389   6.316   0.669   1.005  0.5576 -0.2272 -0.3348
 2421WAT     H110390   6.359   0.662   0.929  1.8453  0.1463  0.3315
 2421WAT     H210391   6.366   0.624   1.061 -0.7673 -1.1235  0.1556
 2421WAT    EPW10392   6.330   0.661   1.002 -0.1637  0.3535  0.1853
 2422WAT      O10393   5.700   4.752   2.553  0.4559 -0.1743 -0.2169
 2422WAT     H110394   5.658   4.704   2.494  1.6788 -0.3396 -0.9892
 2422WAT     H210395   5.726   4.822   2.508 -0.6145  0.8803  0.7003
 2422WAT    EPW10396   5.698   4.755   2.538 -0.0340 -0.0591 -0.4157
 2423WAT      O10397   5.579   0.095   7.413 -0.1832 -0.0224  0.0087
 2423WAT     H110398   5.620   0.127   7.482  0.4819 -2.1146  0.6662
 2423WAT     H210399   5.499   0.076   7.443 -0.2936  0.2059 -0.1374
 2423WAT    EPW10400   5.573   0.097   7.427 -0.6733  0.0023  0.0440
 2424WAT      O10401   2.846   5.913   3.012  0.3740 -0.3633 -1.0216
 2424WAT     H110402   2.826   5.993   2.983  0.0474 -0.4022 -0.9037
 2424WAT     H210403   2.928   5.922   3.041  0.1068  0.0903 -0.3959
 2424WAT    EPW10404   2.855   5.926   3.012  0.2624  0.7357 -0.3068
 2425WAT      O10405   2.537   7.255   1.085  0.2912 -0.4086  0.0511
 2425WAT     H110406   2.620   7.265   1.060  0.1805  1.0834  0.1941
 2425WAT     H210407   2.543   7.237   1.170  0.5020 -1.7670 -0.2207
 2425WAT    EPW10408   2.550   7.254   1.093 -0.3925  1.2409  0.1724
 2426WAT      O10409   5.441   2.861   7.108  0.0994  0.7554  0.4850
 2426WAT     H110410   5.354   2.853   7.107  0.2870 -3.4042  0.1416
 2426WAT     H210411   5.469   2.780   7.123  3.9852  1.5925 -1.0419
 2426WAT    EPW10412   5.432   2.848   7.110  0.0571 -0.0988 -0.0888
 2427WAT      O10413   7.518   6.419   2.812 -0.4867 -0.5063 -0.5998
 2427WAT     H110414   7.569   6.451   2.749 -1.0760  0.4195 -0.6087
 2427WAT     H210415   7.568   6.356   2.847  1.4171  1.5328  0.5718
 2427WAT    EPW10416   7.533   6.414   2.808 -0.2395 -0.1368  0.4364
 2428WAT      O10417   4.377   7.239   2.983  0.1888 -0.2395 -0.0782
 2428WAT     H110418   4.370   7.152   2.985  1.7712 -0.3814 -0.0328
 2428WAT     H210419   4.364   7.262   3.066  3.2104 -0.7761  0.6389
 2428WAT    EPW10420   4.374   7.230   2.996  0.0587  0.1369 -0.0699
 2429WAT      O10421   5.842   2.690   8.074 -0.1007 -0.4008 -0.1040
 2429WAT     H110422   5.884   2.640   8.015 -1.0744 -1.3353 -0.0248
 2429WAT     H210423   5.778   2.727   8.027  0.4333  0.5971 -0.0964
 2429WAT    EPW10424   5.839   2.688   8.058 -0.3583  0.2019  0.0012
 2430WAT      O10425   6.605   7.344   4.773  0.2847 -0.4427 -1.0635
 2430WAT     H110426   6.563   7.415   4.801  1.3719 -0.3410  0.4073
 2430WAT     H210427   6.679   7.376   4.738  0.4044 -0.7959 -1.1375
 2430WAT    EPW10428   6.610   7.359   4.772  0.1917  0.4793  0.1576
 2431WAT      O10429   6.143   2.767   3.080 -0.1503 -0.0307  0.5337
 2431WAT     H110430   6.180   2.721   3.017  0.5967  1.1319  0.0784
 2431WAT     H210431   6.200   2.760   3.147  0.0313  0.3274  0.4190
 2431WAT    EPW10432   6.157   2.759   3.081  0.0266  0.4479 -0.3162
 2432WAT      O10433   3.182   2.023   4.527 -1.2119 -0.1944  0.1318
 2432WAT     H110434   3.247   2.036   4.470  1.3727  0.6977  3.0293
 2432WAT     H210435   3.114   2.062   4.489  0.2586  0.1479 -2.4019
 2432WAT    EPW10436   3.182   2.030   4.513  0.3618  0.2329 -0.0721
 2433WAT      O10437   4.972   5.476   2.384 -0.0048  0.2837  0.1764
 2433WAT     H110438   4.956   5.446   2.304 -0.3348  3.8683 -1.3073
 2433WAT     H210439   5.000   5.406   2.427 -2.4964 -2.4546 -2.2262
 2433WAT    EPW10440   4.974   5.461   2.378 -0.4500  0.0362 -0.0999
 2434WAT      O10441   6.051   7.240   1.974 -0.1475 -0.0097  0.3806
 2434WAT     H110442   6.046   7.321   2.006 -1.0123 -0.4805  1.5060
 2434WAT     H210443   6.006   7.244   1.900  0.9819  0.8471 -0.2933
 2434WAT    EPW10444   6.044   7.253   1.968  0.0446 -0.1816 -0.0453
 2435WAT      O10445   5.297   0.791   2.232 -0.4428  0.2641  0.0279
 2435WAT     H110446   5.254   0.863   2.207 -0.8772 -0.2435 -0.7343
 2435WAT     H210447   5.245   0.726   2.205  0.5401 -0.3532 -0.4299
 2435WAT    EPW10448   5.283   0.792   2.224  0.4934  0.4990  0.3362
 2436WAT      O10449   1.376   1.062   1.968  0.1992  0.1672  0.0723
 2436WAT     H110450   1.436   1.043   1.907  1.2924 -0.1250  1.1904
 2436WAT     H210451   1.386   1.148   1.980  0.0269  0.2136 -0.1200
 2436WAT    EPW10452   1.387   1.072   1.961  0.2913  0.1348 -0.7096
 2437WAT      O10453   6.607   7.112   0.267  0.1942 -0.2231  0.5219
 2437WAT     H110454   6.672   7.163   0.240  0.3332  0.5147  2.1604
 2437WAT     H210455   6.538   7.166   0.265 -0.3214 -0.8906 -0.8226
 2437WAT    EPW10456   6.606   7.128   0.263  0.1879  0.1056  0.1972
 2438WAT      O10457   4.810   1.299   0.607  0.5690  0.0745  0.6128
 2438WAT     H110458   4.771   1.377   0.602  2.1324  0.9178  0.8399
 2438WAT     H210459   4.894   1.317   0.592  0.8961 -1.6644  0.1085
 2438WAT    EPW10460   4.817   1.313   0.604  0.0481  0.8806  0.1171
 2439WAT      O10461   6.552   5.100   1.810 -0.3024  0.4123  0.1367
 2439WAT     H110462   6.523   5.039   1.865 -2.2655  0.7797 -0.4227
 2439WAT     H210463   6.593   5.054   1.748 -0.7357 -0.2425  0.3281
 2439WAT    EPW10464   6.554   5.084   1.809 -0.1484  0.3379 -0.6339
 2440WAT      O10465   3.149   2.435   0.988 -0.2199  0.1384 -0.4720
 2440WAT     H110466   3.088   2.373   0.982 -0.3058 -0.1704  2.2230
 2440WAT     H210467   3.196   2.410   1.057 -0.0346  2.8630  0.5254
 2440WAT    EPW10468   3.147   2.422   0.997 -0.1780 -0.6505  0.3598
 2441WAT      O10469   4.423   5.379   0.508  0.7078  0.1941 -0.2413
 2441WAT     H110470   4.433   5.420   0.431  0.6578 -0.2166 -0.4681
 2441WAT     H210471   4.343   5.405   0.534  0.9355  0.7500 -0.0693
 2441WAT    EPW10472   4.413   5.389   0.500  0.4938  0.6263 -0.1946
 2442WAT      O10473   4.627   0.473   0.673 -0.3546 -0.0383  0.4400
 2442WAT     H110474   4.681   0.442   0.611 -1.9782 -0.4559 -0.8375
 2442WAT     H210475   4.604   0.551   0.642 -0.1918  0.3031  1.1718
 2442WAT    EPW10476   4.632   0.480   0.659  0.2315 -0.3704 -0.5192
 2443WAT      O10477   2.579   1.642   3.078 -0.0793 -0.5774  0.2232
 2443WAT     H110478   2.600   1.559   3.064  1.6056 -0.0155 -0.8163
 2443WAT     H210479   2.553   1.642   3.162  1.9775 -1.8046  0.9500
 2443WAT    EPW10480   2.578   1.630   3.088 -0.4221 -0.1849 -0.3612
 2444WAT      O10481   4.718   1.283   3.720  0.5974 -0.1877 -0.7011
 2444WAT     H110482   4.635   1.299   3.699  0.4754 -1.9857 -1.7427
 2444WAT     H210483   4.713   1.232   3.790  0.9051  1.1414  0.3358
 2444WAT    EPW10484   4.705   1.278   3.727 -0.0017 -0.1731 -0.9169
 2445WAT      O10485   7.009   0.350   0.648  0.4054 -0.1183  0.0951
 2445WAT     H110486   7.093   0.330   0.658  0.5391 -2.1153 -3.4006
 2445WAT     H210487   7.002   0.366   0.563 -2.7723 -0.0123  0.2639
 2445WAT    EPW10488   7.020   0.350   0.637  0.0880  0.2912  0.2030
 2446WAT      O10489   0.993   7.674   0.435  0.2820  0.5429  0.0249
 2446WAT     H110490   0.932   7.705   0.488 -0.7369 -0.9538 -0.1846
 2446WAT     H210491   0.989   7.727   0.365 -0.4362  0.7669  0.2280
 2446WAT    EPW10492   0.983   7.686   0.432 -0.9748  0.5898  0.1966
 2447WAT      O10493   7.538   5.585   0.818  0.0299  0.3218  0.1013
 2447WAT     H110494   7.578   5.507   0.814  0.3796  0.4933  0.1746
 2447WAT     H210495   7.546   5.608   0.901  0.4449  0.6992 -0.0375
 2447WAT    EPW10496   7.545   5.577   0.830 -0.1299  0.7221 -0.4220
 2448WAT      O10497   1.075   5.399   2.040  0.1969 -0.1744  0.1867
 2448WAT     H110498   1.133   5.403   2.105  0.0346 -2.9705  0.6515
 2448WAT     H210499   1.123   5.414   1.968  0.7959  0.8456  0.7816
 2448WAT    EPW10500   1.091   5.401   2.039  0.0378  0.1319 -0.5714
 2449WAT      O10501   0.789   6.692   1.164 -0.1880  0.0005  0.1418
 2449WAT     H110502   0.858   6.733   1.131 -0.0131 -0.0420  0.4489
 2449WAT     H210503   0.823   6.641   1.225 -0.2823 -1.3435 -0.8894
 2449WAT    EPW10504   0.804   6.691   1.168  0.1572 -0.0213 -0.6332
 2450WAT      O10505   5.310   2.225   0.758  0.3242  0.2427  0.4111
 2450WAT     H110506   5.363   2.290   0.783  0.8359 -0.0580  0.1341
 2450WAT     H210507   5.340   2.203   0.679 -0.4680  0.3198  0.0785
 2450WAT    EPW10508   5.322   2.231   0.750  0.4697  0.1742  0.1960
 2451WAT      O10509   0.057   7.056   3.149 -0.0855 -0.1933 -0.0843
 2451WAT     H110510   0.087   6.993   3.201  1.4002  0.2676 -0.3358
 2451WAT     H210511   0.066   7.022   3.069 -1.1331 -0.4014 -0.1219
 2451WAT    EPW10512   0.063   7.042   3.144 -0.3639 -0.2618  0.0360
 2452WAT      O10513   2.980   3.830   6.961 -0.0560 -0.1243  0.6537
 2452WAT     H110514   2.990   3.909   6.926  0.4121 -0.3480  0.2675
 2452WAT     H210515   3.039   3.781   6.918 -0.8244 -0.8422  0.3749
 2452WAT    EPW10516   2.990   3.834   6.949 -0.3254 -0.0705  0.3352
 2453WAT      O10517   5.506   4.355   0.733  0.0660 -0.0946  0.5122
 2453WAT     H110518   5.492   4.425   0.683  1.6902  0.2728  0.5237
 2453WAT     H210519   5.573   4.314   0.695  0.2511 -0.7069  1.4459
 2453WAT    EPW10520   5.514   4.359   0.720 -0.4998  0.1790 -0.3045
 2454WAT      O10521   4.057   0.522   6.643 -0.5100 -0.1172 -0.0010
 2454WAT     H110522   4.036   0.439   6.658 -2.5738  0.5759  1.4967
 2454WAT     H210523   4.081   0.551   6.721 -1.3020  1.0476 -0.1648
 2454WAT    EPW10524   4.057   0.514   6.657  0.4688 -0.3721 -0.0490
 2455WAT      O10525   7.132   1.004   1.749 -0.3465  0.0958  0.2668
 2455WAT     H110526   7.197   0.953   1.777  0.8188  1.2599 -0.2184
 2455WAT     H210527   7.144   1.079   1.792 -1.1862  0.4484 -0.0812
 2455WAT    EPW10528   7.143   1.007   1.760 -0.5038 -0.1416  0.1362
 2456WAT      O10529   6.275   0.940   2.076  0.7236 -0.4959 -0.1885
 2456WAT     H110530   6.251   0.971   1.998 -0.5146  0.1204  0.4174
 2456WAT     H210531   6.200   0.929   2.118  1.3331 -1.4644  0.6975
 2456WAT    EPW10532   6.260   0.943   2.071 -0.1353 -0.2518  0.0009
 2457WAT      O10533   5.285   7.688   4.262 -0.1529 -0.1960 -0.1765
 2457WAT     H110534   5.359   7.648   4.240 -0.2928 -0.5985  0.0786
 2457WAT     H210535   5.298   7.710   4.346 -0.0184  0.4322 -0.3528
 2457WAT    EPW10536   5.298   7.686   4.271  0.1845 -0.1115 -0.0082
 2458WAT      O10537   0.960   2.448   1.206 -0.4985 -0.0780 -0.6649
 2458WAT     H110538   0.903   2.483   1.262 -0.4414 -0.6402 -0.2465
 2458WAT     H210539   0.908   2.410   1.147 -0.6060 -1.6222  0.3572
 2458WAT    EPW10540   0.944   2.447   1.205  0.1042  0.1005  0.7918
 2459WAT      O10541   3.823   6.672   1.246 -0.1318  0.0521 -0.6008
 2459WAT     H110542   3.863   6.706   1.315  0.3420 -0.0464 -0.8205
 2459WAT     H210543   3.889   6.640   1.198 -0.4896 -0.2782 -0.8775
 2459WAT    EPW10544   3.839   6.672   1.249  0.5564  0.3152  0.8991
 2460WAT      O10545   5.588   0.439   3.790 -0.5316  0.1533 -0.3995
 2460WAT     H110546   5.521   0.447   3.846  0.6813 -3.1140  1.8095
 2460WAT     H210547   5.658   0.454   3.840  0.5129 -0.8422 -1.5086
 2460WAT    EPW10548   5.588   0.442   3.806  0.0663 -0.5608  0.1540
 2461WAT      O10549   6.319   0.509   7.974 -0.2988  0.1661 -0.1416
 2461WAT     H110550   6.388   0.540   7.931  1.1416  0.7961  2.3929
 2461WAT     H210551   6.338   0.424   7.985 -0.1874  0.2159  0.0611
 2461WAT    EPW10552   6.332   0.501   7.969  0.0187  0.5799  0.0340
 2462WAT      O10553   7.582   1.965   1.598 -0.1151 -0.2289 -0.1745
 2462WAT     H110554   7.568   1.898   1.652 -0.1491  0.7811  1.1322
 2462WAT     H210555   7.567   2.035   1.648 -1.5506  0.7823 -1.8713
 2462WAT    EPW10556   7.577   1.966   1.613 -0.3008 -0.1344 -0.2958
 2463WAT      O10557   7.976   0.761   0.973 -0.0899 -0.2666 -0.5878
 2463WAT     H110558   8.039   0.818   0.950 -0.9878  0.2904 -1.7633
 2463WAT     H210559   7.961   0.717   0.900  0.0577 -1.5273  0.1204
 2463WAT    EPW10560   7.983   0.763   0.959 -0.0383 -0.2076 -0.2952
 2464WAT      O10561   7.417   7.990   0.128  0.3416 -0.3128 -0.0402
 2464WAT     H110562   7.499   7.993   0.096  0.5713 -0.9588  0.4811
 2464WAT     H210563   7.414   8.058   0.183  0.9771 -1.0804  0.9756
 2464WAT    EPW10564   7.429   8.001   0.131 -0.3873 -0.2045  0.3064
 2465WAT      O10565   4.166   7.927   0.824  0.1645 -0.5092  0.3290
 2465WAT     H110566   4.130   7.905   0.747  0.5673  0.5754 -0.1874
 2465WAT     H210567   4.220   7.861   0.841 -0.3810 -1.0580 -0.0001
 2465WAT    EPW10568   4.168   7.914   0.815 -0.0918 -0.3591  0.3690
 2466WAT      O10569   6.619   6.293   1.485 -0.4412 -0.1413  0.0739
 2466WAT     H110570   6.549   6.324   1.526  0.0857  1.1335  0.0477
 2466WAT     H210571   6.633   6.351   1.421 -0.0724 -1.0330 -0.6806
 2466WAT    EPW10572   6.611   6.306   1.481 -0.0090  0.2281  0.0573
 2467WAT      O10573   4.994   6.026   7.150 -0.4527 -0.3172 -0.7608
 2467WAT     H110574   4.967   5.944   7.135  0.8642 -1.0112  0.3625
 2467WAT     H210575   5.026   6.051   7.073 -0.1678 -1.1583 -0.9323
 2467WAT    EPW10576   4.995   6.017   7.136  0.1003  0.3537 -0.3123
 2468WAT      O10577   3.595   2.587   2.820  0.2372 -0.3319 -0.1418
 2468WAT     H110578   3.585   2.612   2.903 -0.5604  0.6794 -0.5227
 2468WAT     H210579   3.597   2.661   2.775 -0.0028 -0.8763 -1.0979
 2468WAT    EPW10580   3.594   2.601   2.825 -0.7177 -0.2738  0.3719
 2469WAT      O10581   4.616   3.972   7.803 -0.5071  0.6867 -0.5752
 2469WAT     H110582   4.551   3.971   7.861  0.1529  1.3060  0.1930
 2469WAT     H210583   4.577   3.999   7.730 -1.4690 -0.6338 -0.6083
 2469WAT    EPW10584   4.600   3.976   7.801  0.2632  0.1504  0.3120
 2470WAT      O10585   5.104   7.564   2.099 -0.4873  0.2503 -0.5200
 2470WAT     H110586   5.069   7.503   2.150 -0.1010  0.7422  0.3522
 2470WAT     H210587   5.035   7.614   2.078 -0.7746 -0.3772 -1.1048
 2470WAT    EPW10588   5.088   7.563   2.104  1.0425 -0.6863  0.0371
 2471WAT      O10589   5.898   2.157   1.232  0.2418  0.3134 -0.0030
 2471WAT     H110590   5.981   2.138   1.251  1.2873  3.2496 -1.1035
 2471WAT     H210591   5.879   2.223   1.286 -1.3176 -0.1371  0.0425
 2471WAT    EPW10592   5.908   2.164   1.243 -0.2894  0.2782  0.7379
 2472WAT      O10593   0.226   3.235   2.052 -0.6352 -0.0302  0.0966
 2472WAT     H110594   0.258   3.289   2.113  1.4098 -1.6945  0.5906
 2472WAT     H210595   0.264   3.262   1.978 -1.0141  0.2953  0.0151
 2472WAT    EPW10596   0.236   3.247   2.050 -0.0820  0.4202  0.0336
 2473WAT      O10597   7.596   6.922   1.915 -0.0135 -0.2052 -0.0212
 2473WAT     H110598   7.550   6.852   1.892  0.6271 -0.5094 -0.4317
 2473WAT     H210599   7.595   6.920   2.002  0.8532 -1.3221 -0.0114
 2473WAT    EPW10600   7.589   6.911   1.924  0.2002  0.6698  0.1827
 2474WAT      O10601   5.866   1.211   1.542 -0.2109  0.0964 -0.3327
 2474WAT     H110602   5.779   1.207   1.532  0.0453 -0.7193 -2.8193
 2474WAT     H210603   5.882   1.149   1.602 -1.1564 -1.3341 -1.4935
 2474WAT    EPW10604   5.855   1.202   1.550 -0.6004  0.1366 -0.2096
 2475WAT      O10605   0.728   1.584   0.606  0.3442  0.1488 -0.0422
 2475WAT     H110606   0.714   1.662   0.644  0.9173 -0.1397  0.7933
 2475WAT     H210607   0.796   1.552   0.650  0.2455 -0.7429 -0.5185
 2475WAT    EPW10608   0.736   1.591   0.618  0.0612 -0.7762 -0.0622
 2476WAT      O10609   7.992   7.751   0.633 -0.2594  0.3913  0.3632
 2476WAT     H110610   8.009   7.832   0.605  1.2353 -0.0898 -0.2197
 2476WAT     H210611   8.022   7.751   0.715 -1.4619  0.7868  0.8226
 2476WAT    EPW10612   7.999   7.763   0.641  0.5533 -0.1533 -0.1921
 2477WAT      O10613   5.354   2.784   2.534  0.1682 -0.1095 -0.0280
 2477WAT     H110614   5.437   2.793   2.507  0.0129  0.2407 -0.4073
 2477WAT     H210615   5.352   2.704   2.568  0.2262 -0.8206 -1.6117
 2477WAT    EPW10616   5.366   2.774   2.535 -0.1934  1.1989  0.2967
 2478WAT      O10617   5.216   1.805   2.265 -0.2995 -0.2172 -0.2784
 2478WAT     H110618   5.146   1.815   2.214 -0.2330  2.9881  0.0852
 2478WAT     H210619   5.271   1.865   2.237  0.4356  0.4993  2.4144
 2478WAT    EPW10620   5.214   1.815   2.253  0.0725 -0.2420 -0.1403
 2479WAT      O10621   8.006   8.007   3.217  0.1126 -0.1770 -0.6805
 2479WAT     H110622   7.953   7.997   3.285  2.1982  1.8181  1.4691
 2479WAT     H210623   7.959   8.052   3.160 -0.9296  0.3620  0.5656
 2479WAT    EPW10624   7.991   8.012   3.218  0.2794 -0.4837  0.2469
 2480WAT      O10625   5.135   1.139   7.281 -0.0345 -0.1939 -0.3688
 2480WAT     H110626   5.168   1.079   7.335 -0.0411  0.7877  0.7603
 2480WAT     H210627   5.206   1.172   7.242 -0.0004 -0.6696 -0.7094
 2480WAT    EPW10628   5.151   1.135   7.283 -0.7182  0.0748  0.1391
 2481WAT      O10629   4.810   5.610   1.219  0.4746  0.1622 -0.7649
 2481WAT     H110630   4.879   5.558   1.206 -0.5699 -1.4862 -0.0207
 2481WAT     H210631   4.841   5.672   1.272  1.0849 -1.2647  0.6109
 2481WAT    EPW10632   4.825   5.612   1.225  0.3530 -0.2561 -0.4052
 2482WAT      O10633   0.382   6.166   3.559  0.0411 -0.3050 -0.1302
 2482WAT     H110634   0.458   6.122   3.558 -0.1399 -0.6121 -0.7859
 2482WAT     H210635   0.334   6.123   3.617 -0.1147 -0.9494 -0.7240
 2482WAT    EPW10636   0.386   6.153   3.568  0.4861  0.4403 -0.4108
 2483WAT      O10637   1.796   3.150   1.122  0.1748 -0.5429  0.0317
 2483WAT     H110638   1.742   3.160   1.190 -0.8196  0.3802 -0.8410
 2483WAT     H210639   1.758   3.087   1.075  0.7112 -0.9840  0.1803
 2483WAT    EPW10640   1.782   3.142   1.125 -0.1057  0.4160  0.1323
 2484WAT      O10641   6.415   0.291   1.160  0.2471 -0.0689 -0.4858
 2484WAT     H110642   6.329   0.275   1.165  0.3585 -0.3582  0.6407
 2484WAT     H210643   6.435   0.264   1.079 -0.7428  0.1430 -0.8209
 2484WAT    EPW10644   6.405   0.284   1.149 -0.4825 -0.3067  0.1393
 2485WAT      O10645   4.806   1.076   3.140  0.3204  0.0294  0.2031
 2485WAT     H110646   4.848   1.140   3.182 -0.1334  0.5844 -0.1927
 2485WAT     H210647   4.725   1.105   3.133 -0.4746 -1.5075  1.9676
 2485WAT    EPW10648   4.800   1.090   3.145 -1.0159  0.1355  0.4318
 2486WAT      O10649   7.423   6.812   4.499 -0.4176 -0.3246  0.2634
 2486WAT     H110650   7.488   6.758   4.475 -1.1821 -0.9543 -0.4545
 2486WAT     H210651   7.465   6.881   4.531  0.6415 -0.3894 -0.9014
 2486WAT    EPW10652   7.439   6.814   4.500  0.3404 -0.5312  0.0936
 2487WAT      O10653   3.901   7.410   6.283 -0.1767 -0.3226  0.2441
 2487WAT     H110654   3.874   7.334   6.250  0.6644 -0.0102 -1.2663
 2487WAT     H210655   3.850   7.469   6.243  1.2239  0.1049 -0.9942
 2487WAT    EPW10656   3.890   7.408   6.272  0.3891 -0.0686 -0.4155
 2488WAT      O10657   4.805   7.884   2.505  0.2971 -0.2144  0.6399
 2488WAT     H110658   4.791   7.800   2.489  0.5564 -0.3940  1.3049
 2488WAT     H210659   4.892   7.892   2.500  0.1799  0.4520 -1.4036
 2488WAT    EPW10660   4.816   7.873   2.502 -0.3582  0.6188 -0.2982
 2489WAT      O10661   5.548   6.942   3.173 -0.3369  0.2482 -0.0774
 2489WAT     H110662   5.611   6.891   3.203  1.4356  2.9516  1.2169
 2489WAT     H210663   5.578   6.968   3.095 -0.5781  0.3029 -0.1526
 2489WAT    EPW10664   5.562   6.939   3.166 -0.1579  0.3334 -0.5595
 2490WAT      O10665   1.405   0.479   0.754 -0.1462  0.2993 -0.2521
 2490WAT     H110666   1.417   0.443   0.832 -3.0313 -1.6951 -0.5679
 2490WAT     H210667   1.344   0.540   0.768  1.0190  1.6132 -0.6209
 2490WAT    EPW10668   1.398   0.483   0.767 -0.1218 -0.0283  0.0587
 2491WAT      O10669   6.818   1.398   3.483  0.0396  0.6065 -0.1271
 2491WAT     H110670   6.743   1.373   3.448  0.3769 -1.5951  0.5502
 2491WAT     H210671   6.870   1.328   3.474  1.0806  1.0229  1.9518
 2491WAT    EPW10672   6.815   1.384   3.477  0.9752  0.4037  0.1676
 2492WAT      O10673   2.643   7.527   7.141 -0.9773 -0.0044 -0.0977
 2492WAT     H110674   2.577   7.495   7.190 -1.5865 -1.1622 -1.6055
 2492WAT     H210675   2.691   7.571   7.199 -1.9143 -0.9267  1.4684
 2492WAT    EPW10676   2.640   7.528   7.157  0.1751  0.0984 -0.0363
 2493WAT      O10677   6.055   5.105   4.958  0.3767  0.2013 -0.0983
 2493WAT     H110678   6.121   5.064   4.997  2.3305  1.3346 -1.9610
 2493WAT     H210679   5.992   5.046   4.955  0.5993 -0.3810  3.3602
 2493WAT    EPW10680   6.055   5.090   4.963  0.1901  0.2237  0.3698
 2494WAT      O10681   1.938   6.629   5.557  0.3055  0.3034  0.0864
 2494WAT     H110682   1.921   6.544   5.551  2.4062 -0.1765  0.2940
 2494WAT     H210683   1.985   6.636   5.630  0.4498  1.5974 -0.0971
 2494WAT    EPW10684   1.942   6.618   5.567  0.4134  0.4343 -0.2503
 2495WAT      O10685   1.573   3.452   0.241  0.5206 -0.3796  0.5687
 2495WAT     H110686   1.531   3.392   0.289 -0.7724  1.1125  1.3828
 2495WAT     H210687   1.621   3.495   0.301  1.9030 -0.9450 -0.0953
 2495WAT    EPW10688   1.574   3.449   0.257  0.2656  0.4608 -0.1437
 2496WAT      O10689   3.761   6.174   6.861 -0.7168  0.0957 -0.1663
 2496WAT     H110690   3.794   6.249   6.891 -0.7457 -0.5110  1.4914
 2496WAT     H210691   3.692   6.161   6.912  0.3864 -1.9902  0.9244
 2496WAT    EPW10692   3.756   6.183   6.873  0.2195  0.0344  0.4146
 2497WAT      O10693   1.596   7.633   1.450 -0.0081  0.2110  0.4081
 2497WAT     H110694   1.645   7.687   1.402  0.5693 -0.8528 -0.2372
 2497WAT     H210695   1.517   7.670   1.449 -0.1088  0.0578 -1.6918
 2497WAT    EPW10696   1.592   7.647   1.442  0.2594 -0.0623 -0.4045
 2498WAT      O10697   7.126   2.234   0.337  0.0043  0.2083  0.1768
 2498WAT     H110698   7.071   2.257   0.273  1.3387  1.7978 -0.5068
 2498WAT     H210699   7.194   2.288   0.324  0.9546 -0.4800  2.0337
 2498WAT    EPW10700   7.128   2.246   0.325 -0.7379 -0.2972  0.1886
 2499WAT      O10701   0.330   7.042   0.647  0.3892  0.2236  0.3301
 2499WAT     H110702   0.319   6.960   0.676  1.6112  0.3645  1.2800
 2499WAT     H210703   0.258   7.057   0.600 -0.3824 -0.9987  1.0705
 2499WAT    EPW10704   0.318   7.032   0.644  0.1678 -0.1284 -0.3401
 2500WAT      O10705   2.675   3.835   2.078  0.1105  0.4678  0.3544
 2500WAT     H110706   2.725   3.766   2.055  0.3930  0.7936 -0.0358
 2500WAT     H210707   2.609   3.799   2.121  0.0313 -0.1005 -0.2166
 2500WAT    EPW10708   2.673   3.819   2.081  0.6168 -0.1795 -0.4830
 2501WAT      O10709   6.557   6.754   0.653 -0.3880 -0.0434 -0.5384
 2501WAT     H110710   6.531   6.809   0.716  0.0548  0.6015 -0.9128
 2501WAT     H210711   6.631   6.721   0.685 -0.4434 -0.1239 -0.4910
 2501WAT    EPW10712   6.564   6.757   0.667  0.3587  0.2984  0.3704
 2502WAT      O10713   6.560   6.520   1.028 -0.3251 -0.2363 -1.0261
 2502WAT     H110714   6.475   6.540   1.035 -0.5210 -1.0603 -0.9100
 2502WAT     H210715   6.585   6.564   0.957  0.5049  4.2880  1.7024
 2502WAT    EPW10716   6.551   6.529   1.018  0.3615  0.4690 -0.8245
 2503WAT      O10717   4.330   0.132   1.513  0.3613 -0.4739 -0.4529
 2503WAT     H110718   4.377   0.090   1.572 -1.9182  0.3379  2.1461
 2503WAT     H210719   4.247   0.117   1.538 -0.6497  3.5544 -0.6492
 2503WAT    EPW10720   4.325   0.124   1.525  0.5396  0.0971 -0.0535
 2504WAT      O10721   4.930   0.568   7.597 -0.6075  0.0227  0.6068
 2504WAT     H110722   4.855   0.596   7.632  0.1276 -0.3439  2.5813
 2504WAT     H210723   4.988   0.582   7.660  0.7298 -1.0749 -0.3351
 2504WAT    EPW10724   4.927   0.574   7.612 -0.2279  0.3744 -0.0561
 2505WAT      O10725   3.345   5.128   1.794  0.4722  0.5094  0.2666
 2505WAT     H110726   3.352   5.215   1.791  0.9064  0.5475  1.5411
 2505WAT     H210727   3.416   5.104   1.840 -0.8399 -0.3077  1.9840
 2505WAT    EPW10728   3.357   5.138   1.800 -0.0256 -0.6187  0.2403
 2506WAT      O10729   7.499   7.478   4.214 -0.0482  0.2863 -0.2422
 2506WAT     H110730   7.461   7.403   4.189  1.1069 -0.0986 -0.8929
 2506WAT     H210731   7.439   7.538   4.196  0.0446 -0.1734 -2.3572
 2506WAT    EPW10732   7.484   7.475   4.208 -0.3596  0.3034  0.6969
 2507WAT      O10733   2.161   2.107   7.146 -0.1688  0.0974 -0.3047
 2507WAT     H110734   2.170   2.028   7.110 -0.0530  0.0230 -0.1128
 2507WAT     H210735   2.111   2.150   7.089 -0.2994 -0.1400 -0.3711
 2507WAT    EPW10736   2.155   2.102   7.132 -0.1999 -0.3508 -0.2420
 2508WAT      O10737   3.191   4.835   0.816  0.7279  0.2232  0.0609
 2508WAT     H110738   3.187   4.754   0.848 -0.6108  0.5770  0.8790
 2508WAT     H210739   3.276   4.853   0.817  1.1900 -1.5598 -1.1953
 2508WAT    EPW10740   3.203   4.825   0.821  0.5297  0.1481  0.2127
 2509WAT      O10741   5.249   3.466   0.241  0.0682  0.0105  0.5474
 2509WAT     H110742   5.255   3.550   0.265  3.2150 -0.3340  1.3949
 2509WAT     H210743   5.285   3.423   0.307 -0.6431 -1.9871 -0.2797
 2509WAT    EPW10744   5.255   3.472   0.255  0.2233 -0.1367  0.2561
 2510WAT      O10745   7.189   0.598   4.778  0.3220 -0.1935  0.0635
 2510WAT     H110746   7.217   0.678   4.798  0.3940 -0.2209  0.0737
 2510WAT     H210747   7.117   0.612   4.732 -0.4618 -0.1464  1.2548
 2510WAT    EPW10748   7.183   0.612   4.774 -0.0898 -0.3097 -0.2348
 2511WAT      O10749   5.807   4.458   2.908  0.0292 -0.2396  0.0191
 2511WAT     H110750   5.775   4.539   2.907  1.0973  0.2061  0.0008
 2511WAT     H210751   5.831   4.446   2.991 -1.9349 -1.3222  0.4976
 2511WAT    EPW10752   5.806   4.468   2.920 -0.5375  0.0476  0.3190
 2512WAT      O10753   3.218   4.728   6.580  0.1640  0.1874 -0.3981
 2512WAT     H110754   3.292   4.774   6.579 -0.1949  0.8899  1.5345
 2512WAT     H210755   3.224   4.681   6.652 -0.8516 -0.5072 -0.7448
 2512WAT    EPW10756   3.230   4.728   6.590  0.0679  0.3283 -0.5018
 2513WAT      O10757   3.392   5.708   0.690  0.7045  0.4354  0.4197
 2513WAT     H110758   3.358   5.692   0.612 -0.9273  0.9054  0.9875
 2513WAT     H210759   3.384   5.632   0.733 -0.6583  0.8077  0.8824
 2513WAT    EPW10760   3.386   5.695   0.685 -0.2354 -0.3660 -0.0916
 2514WAT      O10761   6.539   6.999   1.989  0.3072 -0.6509 -0.7070
 2514WAT     H110762   6.533   6.921   2.028 -0.1077 -0.0180  0.5518
 2514WAT     H210763   6.457   7.030   1.994  0.4651 -0.1372 -1.2291
 2514WAT    EPW10764   6.526   6.992   1.995  0.0507 -0.4232  0.2207
 2515WAT      O10765   1.697   5.452   0.605  0.2674  0.1761  0.7513
 2515WAT     H110766   1.778   5.431   0.630  0.1391 -2.9021 -0.9713
 2515WAT     H210767   1.701   5.449   0.518 -1.7320 -0.2926  0.6259
 2515WAT    EPW10768   1.710   5.449   0.596  0.2012 -0.6037 -0.0674
 2516WAT      O10769   4.202   4.032   1.016 -0.0627 -0.4724 -0.4241
 2516WAT     H110770   4.205   3.946   1.028  3.2700 -0.6717 -1.7471
 2516WAT     H210771   4.163   4.041   0.939  1.0567 -0.9637 -1.0694
 2516WAT    EPW10772   4.197   4.021   1.006 -0.1536 -0.5017 -0.0214
 2517WAT      O10773   3.505   6.553   6.803  0.3716  0.3723 -0.1105
 2517WAT     H110774   3.507   6.550   6.716 -0.9386  1.7268 -0.2463
 2517WAT     H210775   3.571   6.605   6.824  1.4520 -0.9147 -0.1663
 2517WAT    EPW10776   3.515   6.560   6.793 -0.2717 -0.3426 -0.2091
 2518WAT      O10777   7.236   1.546   3.968  0.2976  0.3109 -0.0110
 2518WAT     H110778   7.251   1.573   4.050  3.1076  2.8551 -1.2145
 2518WAT     H210779   7.239   1.619   3.921  1.7793 -1.3734 -2.7540
 2518WAT    EPW10780   7.239   1.561   3.973  0.2824 -0.3057  0.3345
 2519WAT      O10781   0.721   4.090   0.177 -0.2916  0.1198 -0.1897
 2519WAT     H110782   0.672   4.028   0.215 -1.1506  1.1188  0.3641
 2519WAT     H210783   0.781   4.109   0.238  0.1585 -0.3520 -0.4716
 2519WAT    EPW10784   0.723   4.083   0.192  0.0497  0.4363  0.3109
 2520WAT      O10785   6.256   1.080   7.648  0.4647  0.2490  0.0476
 2520WAT     H110786   6.281   1.133   7.712 -0.4946  0.1493  0.5286
 2520WAT     H210787   6.230   1.008   7.690  0.1250  0.0577 -0.4722
 2520WAT    EPW10788   6.256   1.077   7.664 -0.0352 -0.0279 -0.0303
 2521WAT      O10789   1.019   5.588   2.403 -0.6062  0.8625 -0.1471
 2521WAT     H110790   0.992   5.507   2.423  1.6273  0.2164  0.4864
 2521WAT     H210791   1.006   5.592   2.316  0.6081 -0.7934 -0.4713
 2521WAT    EPW10792   1.013   5.577   2.393 -0.3764 -0.4022  0.0169
 2522WAT      O10793   7.580   1.533   1.135  0.0086 -0.8624  0.3831
 2522WAT     H110794   7.500   1.536   1.100  0.5502  3.0188 -1.0067
 2522WAT     H210795   7.565   1.510   1.218 -2.6074  0.0311  0.2556
 2522WAT    EPW10796   7.566   1.530   1.142  0.4723 -0.5720  0.3628
 2523WAT      O10797   5.496   7.831   7.122  0.2430 -0.2710 -0.1910
 2523WAT     H110798   5.555   7.888   7.092  0.4040  0.7595  1.8840
 2523WAT     H210799   5.532   7.754   7.107  0.8973  0.2311 -1.3420
 2523WAT    EPW10800   5.510   7.828   7.116  0.3302  0.4471  0.2940
 2524WAT      O10801   6.110   8.017   5.293  0.4043 -0.1016 -0.0670
 2524WAT     H110802   6.079   8.094   5.319  2.5996 -0.0669  2.8751
 2524WAT     H210803   6.050   7.961   5.322  1.0829  0.2392  2.2344
 2524WAT    EPW10804   6.096   8.020   5.301  0.8520  0.0111 -0.1540
 2525WAT      O10805   1.620   5.681   5.073  0.2194  0.0360 -0.0193
 2525WAT     H110806   1.580   5.688   5.150 -0.3361  0.2460 -0.3205
 2525WAT     H210807   1.599   5.755   5.032 -0.0063 -0.3471 -0.6056
 2525WAT    EPW10808   1.611   5.693   5.078  0.2247 -0.2339  0.6626
 2526WAT      O10809   5.411   0.702   0.683  0.1332 -0.3241  0.2023
 2526WAT     H110810   5.348   0.659   0.640  0.2849 -1.5052  1.1274
 2526WAT     H210811   5.447   0.752   0.621 -1.6180  0.3154 -0.3923
 2526WAT    EPW10812   5.407   0.703   0.668 -0.5719  0.3887  0.0241
 2527WAT      O10813   3.743   0.657   1.316  0.1221 -0.2985 -0.2869
 2527WAT     H110814   3.736   0.744   1.321 -0.7774 -0.3296 -0.7980
 2527WAT     H210815   3.815   0.639   1.362  1.4651  0.8834 -1.8174
 2527WAT    EPW10816   3.752   0.667   1.324  0.4718 -0.3856  0.0068
 2528WAT      O10817   3.850   2.159   0.325  0.2159 -0.4212 -0.1875
 2528WAT     H110818   3.858   2.200   0.402 -0.7342 -1.4668  0.4809
 2528WAT     H210819   3.831   2.224   0.270  0.5359  0.2902  0.5115
 2528WAT    EPW10820   3.849   2.175   0.328 -0.1102  0.4404  0.3495
 2529WAT      O10821   1.210   3.811   0.660  0.0637  0.1576  0.2336
 2529WAT     H110822   1.129   3.780   0.668 -0.2488  1.1607  1.2015
 2529WAT     H210823   1.198   3.894   0.634  0.7756  0.3079  0.3678
 2529WAT    EPW10824   1.196   3.819   0.657  0.0650  0.0644  0.6223
 2530WAT      O10825   4.615   3.832   0.125  0.0144  0.1098 -0.0794
 2530WAT     H110826   4.661   3.789   0.065  3.1020 -2.5534  3.5997
 2530WAT     H210827   4.551   3.776   0.145  0.6646 -0.3199  0.8839
 2530WAT    EPW10828   4.613   3.817   0.119  0.3230  0.2339  0.4675
 2531WAT      O10829   2.488   5.911   0.299 -0.2910  0.3788  0.1695
 2531WAT     H110830   2.545   5.859   0.339 -1.8640 -1.5421  0.0180
 2531WAT     H210831   2.436   5.938   0.363 -0.7712  0.0191 -0.0648
 2531WAT    EPW10832   2.489   5.907   0.314 -0.3690  0.3264 -0.0571
 2532WAT      O10833   5.063   2.526   0.170  0.6354 -0.5266 -0.6409
 2532WAT     H110834   5.058   2.446   0.137 -0.0440 -0.3047 -1.1095
 2532WAT     H210835   5.116   2.568   0.114  0.0198 -0.3316 -1.0906
 2532WAT    EPW10836   5.070   2.521   0.157 -0.3360 -0.7267  0.2791
 2533WAT      O10837   4.035   3.284   7.437 -0.0548  0.4308  0.0650
 2533WAT     H110838   4.001   3.362   7.419  0.1282  0.8975  1.5413
 2533WAT     H210839   4.116   3.303   7.464 -0.0563 -0.2490  0.5708
 2533WAT    EPW10840   4.042   3.298   7.439 -0.3136  0.5919  0.2128
 2534WAT      O10841   7.668   2.933   1.586  0.4932 -0.0303 -0.5016
 2534WAT     H110842   7.647   2.986   1.520 -0.9093  0.7074  0.4775
 2534WAT     H210843   7.623   2.966   1.653  3.3444  0.4013  1.3372
 2534WAT    EPW10844   7.658   2.946   1.586 -0.5623  0.1721  0.3008
 2535WAT      O10845   5.053   6.475   3.297 -0.7137  0.0823 -0.2948
 2535WAT     H110846   5.090   6.431   3.363 -1.9256 -1.4409 -0.5616
 2535WAT     H210847   5.017   6.544   3.335 -1.8914 -1.0703  0.7667
 2535WAT    EPW10848   5.053   6.479   3.312 -0.0291 -0.2528 -0.1792
 2536WAT      O10849   7.461   1.179   4.420 -0.1574 -0.0236 -0.1251
 2536WAT     H110850   7.468   1.182   4.333 -0.2813 -0.6861 -0.1644
 2536WAT     H210851   7.412   1.248   4.439  0.4487  0.5270 -0.5167
 2536WAT    EPW10852   7.455   1.190   4.410  0.4094 -0.2268  0.0451
 2537WAT      O10853   8.069   7.604   0.076 -0.6199  0.1032  0.2780
 2537WAT     H110854   7.986   7.578   0.077 -0.9339  0.9902 -0.9330
 2537WAT     H210855   8.114   7.529   0.085 -1.5268 -0.4825  0.0397
 2537WAT    EPW10856   8.064   7.589   0.078 -0.5162  0.1064 -0.1914
 2538WAT      O10857   2.689   6.044   7.994 -0.2224 -0.2378  0.2635
 2538WAT     H110858   2.643   6.112   7.962 -2.5121 -1.4761  0.7024
 2538WAT     H210859   2.674   6.048   8.080  0.1739 -0.9156  0.3681
 2538WAT    EPW10860   2.680   6.055   8.002  0.3072  0.2154 -0.6532
 2539WAT      O10861   2.856   6.690   3.137 -0.5906 -0.6663 -0.0173
 2539WAT     H110862   2.806   6.653   3.198 -0.4512  0.7309  0.9882
 2539WAT     H210863   2.841   6.775   3.148  2.0767 -0.1801  0.3749
 2539WAT    EPW10864   2.846   6.697   3.148 -0.2263 -0.3466 -0.0028
 2540WAT      O10865   3.136   3.151   1.981  0.4165  0.7357 -0.1485
 2540WAT     H110866   3.104   3.138   2.061 -1.3051  1.8111 -0.6088
 2540WAT     H210867   3.221   3.163   1.995  0.3654 -0.4015  1.3537
 2540WAT    EPW10868   3.144   3.151   1.995 -1.2500  0.4834  0.3499
 2541WAT      O10869   6.120   4.505   0.734  0.2765  0.0761 -0.5370
 2541WAT     H110870   6.184   4.445   0.736  1.4679  1.3211  0.6386
 2541WAT     H210871   6.101   4.517   0.818 -0.6501  0.6257 -0.8149
 2541WAT    EPW10872   6.127   4.498   0.747  0.3788 -0.4845 -0.1599
 2542WAT      O10873   5.986   6.600   1.369 -0.3224  0.1538 -0.6122
 2542WAT     H110874   5.943   6.525   1.361  2.7191 -1.7527 -0.6273
 2542WAT     H210875   6.010   6.601   1.452 -0.7950  1.4298 -0.4736
 2542WAT    EPW10876   5.983   6.589   1.380  0.1471 -0.0945 -0.0589
 2543WAT      O10877   5.616   5.192   5.896  0.1466 -1.1947  0.2039
 2543WAT     H110878   5.657   5.123   5.862  0.4167 -1.1694  0.4773
 2543WAT     H210879   5.677   5.229   5.946  1.5237  1.6528 -3.0993
 2543WAT    EPW10880   5.631   5.187   5.898  0.1176 -0.5196 -0.2613
 2544WAT      O10881   8.084   4.220   2.691 -0.6789 -0.9724  0.1762
 2544WAT     H110882   8.062   4.279   2.631  2.3572  0.3166  0.1317
 2544WAT     H210883   8.125   4.158   2.646  0.6024 -0.5611  0.7182
 2544WAT    EPW10884   8.087   4.220   2.675  0.1532  0.5083 -0.0111
 2545WAT      O10885   7.047   5.936   0.891 -0.0311  0.2449  0.8004
 2545WAT     H110886   7.035   5.858   0.853  1.5178 -0.1278  1.0173
 2545WAT     H210887   6.995   5.933   0.961  0.1851 -0.7026  0.9396
 2545WAT    EPW10888   7.037   5.924   0.896 -0.4234 -0.3088  0.4480
 2546WAT      O10889   0.749   7.440   2.364 -0.3305 -0.2111 -0.1793
 2546WAT     H110890   0.700   7.472   2.299  1.3412  2.3188 -0.3464
 2546WAT     H210891   0.695   7.438   2.432 -1.0027  1.4870 -0.6092
 2546WAT    EPW10892   0.734   7.445   2.364 -0.6155 -0.0932 -0.1737
 2547WAT      O10893   4.239   3.068   0.513  0.3109 -0.3997  0.1424
 2547WAT     H110894   4.257   2.984   0.499  0.0945 -0.5705  0.8343
 2547WAT     H210895   4.194   3.067   0.587 -0.9080  0.1846 -0.5534
 2547WAT    EPW10896   4.235   3.056   0.522 -0.3274  0.1356  0.5395
 2548WAT      O10897   5.708   3.675   7.672  0.4338  0.5992 -0.0465
 2548WAT     H110898   5.780   3.626   7.680  1.1961  1.4296 -1.5203
 2548WAT     H210899   5.646   3.616   7.657  1.6520  0.0106 -3.8915
 2548WAT    EPW10900   5.710   3.659   7.671 -0.5756 -0.4673 -0.5713
 2549WAT      O10901   4.888   0.768   4.795 -0.0154 -0.1152 -0.4007
 2549WAT     H110902   4.956   0.738   4.841 -0.2218 -0.0253 -0.0350
 2549WAT     H210903   4.899   0.855   4.796 -0.5005 -0.0536  0.2391
 2549WAT    EPW10904   4.900   0.777   4.802 -0.4599  0.0928  0.3386
 2550WAT      O10905   5.283   6.577   3.751  0.2634 -0.3616  0.2742
 2550WAT     H110906   5.307   6.585   3.667  0.1497  0.6460  0.3361
 2550WAT     H210907   5.358   6.574   3.794  0.3270 -1.0857  0.1265
 2550WAT    EPW10908   5.297   6.577   3.745  0.6295 -0.4805  0.3349
 2551WAT      O10909  -0.007   4.615   0.660  0.2753  0.2994 -0.1552
 2551WAT     H110910   0.041   4.664   0.605 -0.4930  0.7542 -0.4377
 2551WAT     H210911  -0.001   4.535   0.626  3.7574 -0.4787  1.7632
 2551WAT    EPW10912   0.001   4.610   0.647 -0.1946  0.1130 -0.3563
 2552WAT      O10913   7.593   5.060   0.410  0.2170  0.2571  0.3611
 2552WAT     H110914   7.581   5.145   0.399  0.8389  0.2504 -0.4190
 2552WAT     H210915   7.523   5.035   0.456 -1.3716  0.6996 -1.6868
 2552WAT    EPW10916   7.581   5.069   0.415 -0.1120  0.1362  0.1390
 2553WAT      O10917   1.599   5.538   0.054  0.5383  0.0709 -0.4021
 2553WAT     H110918   1.583   5.505  -0.025 -3.7129 -1.9292  0.9880
 2553WAT     H210919   1.569   5.620   0.048  1.1334  0.2523 -1.0571
 2553WAT    EPW10920   1.592   5.546   0.042 -0.2576  0.2263  0.0018
 2554WAT      O10921   5.160   8.020   2.246  0.2337  0.1508 -0.8967
 2554WAT     H110922   5.160   8.106   2.259  0.1150 -0.2081  2.2433
 2554WAT     H210923   5.244   8.000   2.238  0.4310  0.3625  0.4562
 2554WAT    EPW10924   5.172   8.030   2.247 -0.5254 -0.7805  0.2194
 2555WAT      O10925   0.520   3.292   2.196  0.1577  0.1956  0.0161
 2555WAT     H110926   0.554   3.268   2.119  1.8304  0.6221  0.5725
 2555WAT     H210927   0.519   3.219   2.242 -0.7084 -0.0297 -0.3312
 2555WAT    EPW10928   0.525   3.278   2.191  0.1368 -0.3630  0.3334
 2556WAT      O10929   4.260   5.670   6.103  0.1492 -0.3597 -0.0410
 2556WAT     H110930   4.241   5.616   6.037  0.8973 -1.2673  0.4645
 2556WAT     H210931   4.199   5.733   6.096  0.4609 -0.2003 -1.8370
 2556WAT    EPW10932   4.248   5.672   6.092 -0.3338  0.6581 -0.2326
 2557WAT      O10933   6.280   4.635   0.356 -0.0449  0.0760  0.1322
 2557WAT     H110934   6.248   4.553   0.352 -0.7081  0.3351  0.0040
 2557WAT     H210935   6.264   4.659   0.439 -0.6177  0.3732 -0.0588
 2557WAT    EPW10936   6.273   4.626   0.368 -0.2766  0.0676  0.8837
 2558WAT      O10937   4.032   4.591   6.836 -0.0833  0.0100  0.3341
 2558WAT     H110938   3.995   4.623   6.764  1.9247  1.5423 -0.1074
 2558WAT     H210939   4.032   4.505   6.823  0.2387  0.2525 -1.5161
 2558WAT    EPW10940   4.026   4.583   6.824 -0.3333  0.1958 -0.0140
 2559WAT      O10941   5.593   7.766   6.736 -0.0060 -0.3964 -0.8604
 2559WAT     H110942   5.507   7.772   6.744  0.1156  0.1077  0.2042
 2559WAT     H210943   5.604   7.715   6.666 -1.1518  1.3475 -2.3833
 2559WAT    EPW10944   5.582   7.759   6.727 -0.7721 -0.7161 -0.1085
 2560WAT      O10945   4.150   6.886   2.790  0.4317 -0.2522  0.2544
 2560WAT     H110946   4.063   6.885   2.782  0.1420  0.3313  2.5399
 2560WAT     H210947   4.178   6.917   2.714 -1.2185 -2.1228 -1.2135
 2560WAT    EPW10948   4.142   6.891   2.778 -0.1916 -0.1308  0.3156
 2561WAT      O10949   6.464   4.335   1.629 -0.2853 -0.1380  0.1729
 2561WAT     H110950   6.502   4.375   1.697  0.2763 -0.5952  0.1396
 2561WAT     H210951   6.396   4.386   1.611  2.3978  3.1107 -2.2854
 2561WAT    EPW10952   6.460   4.348   1.636 -0.8265  0.0172  0.3386
 2562WAT      O10953   4.363   4.432   7.165 -0.1623 -0.0017 -0.4746
 2562WAT     H110954   4.392   4.461   7.242  1.4544 -1.1781 -0.5989
 2562WAT     H210955   4.276   4.434   7.174 -0.0090  0.5819  1.1070
 2562WAT    EPW10956   4.354   4.437   7.178 -0.2944 -0.3748  0.2694
 2563WAT      O10957   6.406   4.256   4.857 -0.3237  0.2257 -0.0795
 2563WAT     H110958   6.487   4.241   4.827  0.3195 -0.2675  1.7802
 2563WAT     H210959   6.412   4.335   4.893 -0.6588  0.1603  0.1234
 2563WAT    EPW10960   6.419   4.266   4.858  0.0913  0.1096 -0.1325
 2564WAT      O10961   3.883   1.664   2.324  0.1729  0.1179  0.0854
 2564WAT     H110962   3.806   1.646   2.362 -0.1319 -1.3169 -1.1327
 2564WAT     H210963   3.860   1.694   2.245  0.8043 -2.9794 -1.4188
 2564WAT    EPW10964   3.868   1.666   2.318  0.3078 -0.1425 -0.2339
 2565WAT      O10965   7.182   7.796   4.711  0.2911 -0.0025 -0.1935
 2565WAT     H110966   7.150   7.868   4.749  1.0111  0.4001 -0.3287
 2565WAT     H210967   7.228   7.828   4.643  0.6327 -0.5903 -0.2453
 2565WAT    EPW10968   7.184   7.811   4.706 -0.2500  0.0908 -0.0190
 2566WAT      O10969   2.345   4.746   6.216  0.3455 -0.2452  0.1738
 2566WAT     H110970   2.280   4.735   6.159 -0.0067  0.9974  0.3009
 2566WAT     H210971   2.415   4.718   6.172  0.1872  1.2662 -1.1728
 2566WAT    EPW10972   2.346   4.740   6.201  0.1880  0.0301 -0.2064
 2567WAT      O10973   5.924   7.401   0.193 -0.2047  0.0518  0.2003
 2567WAT     H110974   5.860   7.345   0.173  0.9669 -1.1526 -0.3460
 2567WAT     H210975   5.932   7.394   0.279 -1.0887  0.5370  0.3263
 2567WAT    EPW10976   5.916   7.392   0.203  0.4810 -0.1756 -0.4082
 2568WAT      O10977   4.376   6.531   5.615 -0.1617  0.3550  0.4794
 2568WAT     H110978   4.375   6.449   5.587 -0.6304 -0.0326  1.5750
 2568WAT     H210979   4.359   6.578   5.543  1.6140 -0.3783 -0.4641
 2568WAT    EPW10980   4.373   6.526   5.600  0.8828 -0.0692 -0.6956
 2569WAT      O10981   5.653   3.926   7.591 -0.0464  0.1871  0.2703
 2569WAT     H110982   5.675   3.845   7.615  0.2978  0.0354 -0.5290
 2569WAT     H210983   5.597   3.951   7.653  0.9810 -0.0991  1.3325
 2569WAT    EPW10984   5.648   3.918   7.603 -0.3567  0.2492 -0.4387
 2570WAT      O10985   6.035   5.069   6.775 -0.4818  0.1153  0.0931
 2570WAT     H110986   6.047   5.125   6.841 -1.0185  1.1516 -0.6554
 2570WAT     H210987   6.086   5.101   6.711  0.4201 -1.1530  0.1427
 2570WAT    EPW10988   6.044   5.082   6.775  0.1229  0.0819  0.2799
 2571WAT      O10989   2.898   5.175   7.264  0.1724 -0.1468 -0.4732
 2571WAT     H110990   2.901   5.110   7.207  1.3022 -0.2341 -0.3372
 2571WAT     H210991   2.932   5.242   7.221 -1.9166  0.6800 -0.9657
 2571WAT    EPW10992   2.904   5.175   7.249  1.0908  0.3149 -0.6133
 2572WAT      O10993   5.667   6.055   6.078  0.1056  0.2160 -0.2479
 2572WAT     H110994   5.703   5.976   6.069  0.9074  0.4092  1.0621
 2572WAT     H210995   5.643   6.076   5.997  0.5033 -1.0769 -0.7223
 2572WAT    EPW10996   5.669   6.046   6.065  0.3313 -0.5828  0.4972
 2573WAT      O10997   4.608   6.605   2.402 -0.2290  0.3015 -0.5293
 2573WAT     H110998   4.609   6.691   2.387 -0.5061  0.2342 -0.9477
 2573WAT     H210999   4.670   6.594   2.462 -2.0564  1.1849  1.6793
 2573WAT    EPW11000   4.617   6.616   2.409  0.4966 -0.1469 -0.2452
 2574WAT      O11001   6.769   3.796   0.302 -0.0838 -0.1442 -0.4465
 2574WAT     H111002   6.814   3.861   0.266  2.0357 -1.1461  0.2103
 2574WAT     H211003   6.792   3.726   0.254 -2.7276 -0.4183 -1.4927
 2574WAT    EPW11004   6.779   3.795   0.290 -0.4102  0.2092  0.1501
 2575WAT      O11005   6.254   7.749   1.671  0.0175  0.1799 -0.0345
 2575WAT     H111006   6.266   7.673   1.630  0.3720 -0.4226  1.1518
 2575WAT     H211007   6.330   7.791   1.660  0.6867 -0.6238  1.2795
 2575WAT    EPW11008   6.267   7.744   1.663  0.0372  0.2041 -0.2682
 2576WAT      O11009   3.479   6.657   2.551 -0.1594  0.4539 -0.4558
 2576WAT     H111010   3.550   6.616   2.581  0.8434  2.9591  0.8844
 2576WAT     H211011   3.413   6.608   2.579  0.9805 -0.8796  0.0058
 2576WAT    EPW11012   3.480   6.644   2.559  0.0130  0.0411  0.5444
 2577WAT      O11013   1.677   3.213   0.181  0.4065 -0.0344 -0.0558
 2577WAT     H111014   1.733   3.199   0.245 -0.5412 -0.1248  0.7757
 2577WAT     H211015   1.658   3.298   0.187  0.4673  0.0018 -0.3443
 2577WAT    EPW11016   1.683   3.223   0.191 -0.3585  0.5955  0.4261
 2578WAT      O11017   4.103   5.630   5.844  0.2012  0.0731  0.2981
 2578WAT     H111018   4.072   5.599   5.769  0.1815 -1.7972  1.0248
 2578WAT     H211019   4.176   5.672   5.820 -1.4528  2.3786 -1.1092
 2578WAT    EPW11020   4.109   5.632   5.830 -0.0959 -0.2687 -0.5394
 2579WAT      O11021   6.957   0.217   8.005  0.5186  0.2901 -0.0642
 2579WAT     H111022   6.922   0.137   8.005 -0.5139  0.7140 -0.1193
 2579WAT     H211023   7.008   0.217   8.075  0.8670 -0.5491 -0.3031
 2579WAT    EPW11024   6.959   0.205   8.015 -0.2125  0.0680  0.3005
 2580WAT      O11025   3.316   0.219   3.805 -0.3829  0.2071  0.3230
 2580WAT     H111026   3.376   0.268   3.844 -1.3213  1.8278 -0.1718
 2580WAT     H211027   3.358   0.144   3.790  1.4135  1.1567  0.2820
 2580WAT    EPW11028   3.331   0.215   3.808 -0.6655  0.2536 -0.4532
 2581WAT      O11029   5.985   1.497   1.309  0.0901  0.5114 -0.2799
 2581WAT     H111030   6.046   1.555   1.331  1.4965 -1.4491  1.4101
 2581WAT     H211031   6.011   1.466   1.232  0.7940  0.2818  0.0456
 2581WAT    EPW11032   5.998   1.501   1.301 -0.2863  0.5452  0.1283
 2582WAT      O11033   4.794   5.511   6.483  0.0113 -0.4948 -0.4520
 2582WAT     H111034   4.814   5.426   6.485 -1.3119 -0.9268 -2.4133
 2582WAT     H211035   4.713   5.513   6.450  0.1535  1.5422 -0.8455
 2582WAT    EPW11036   4.785   5.499   6.478  0.1348 -0.1788  0.4643
 2583WAT      O11037   7.167   0.321   1.528  0.1128 -0.0538 -0.5301
 2583WAT     H111038   7.111   0.380   1.496 -0.2677  1.0382  1.9218
 2583WAT     H211039   7.188   0.353   1.606  1.5335 -2.1666  0.0361
 2583WAT    EPW11040   7.162   0.334   1.535 -0.1689 -0.5037 -0.8096
 2584WAT      O11041   6.067   2.924   5.528  0.1420  0.1983  0.2027
 2584WAT     H111042   6.145   2.913   5.567 -0.6011 -0.1665  1.6532
 2584WAT     H211043   6.016   2.867   5.570 -0.7386 -0.1380 -1.2769
 2584WAT    EPW11044   6.071   2.914   5.540 -0.4248 -0.3891  0.9141
 2585WAT      O11045   0.656   7.355   0.691  0.7066  0.2887  0.0877
 2585WAT     H111046   0.673   7.278   0.655  2.0528  0.3913  0.4669
 2585WAT     H211047   0.724   7.370   0.742 -0.6863  0.5948  1.9674
 2585WAT    EPW11048   0.668   7.346   0.693 -0.6299  0.3400  0.1933
 2586WAT      O11049   5.027   3.092   0.995  0.0613 -0.2753 -0.4759
 2586WAT     H111050   5.003   3.021   0.950 -1.8459  1.6479 -2.8169
 2586WAT     H211051   4.977   3.155   0.961  1.0987  2.0755  2.0013
 2586WAT    EPW11052   5.016   3.091   0.983 -0.2095  0.2087 -0.1055
 2587WAT      O11053   8.067   8.015   0.576 -0.7170 -0.1055 -0.3082
 2587WAT     H111054   8.034   8.036   0.499 -0.4904  0.2731 -0.3005
 2587WAT     H211055   8.086   8.091   0.613  0.0804 -0.3059 -0.2722
 2587WAT    EPW11056   8.065   8.029   0.570  0.4530 -0.4044  0.5171
 2588WAT      O11057   6.051   4.969   5.606 -0.0676  0.1483  0.1114
 2588WAT     H111058   6.107   5.023   5.645  1.1712 -0.7809 -0.3179
 2588WAT     H211059   6.101   4.902   5.582 -1.5094 -1.0539  0.3664
 2588WAT    EPW11060   6.067   4.967   5.608 -0.2556 -0.6898  0.2157
 2589WAT      O11061   6.155   3.413   7.197 -0.2206 -0.4366  0.1094
 2589WAT     H111062   6.140   3.414   7.111  1.0205 -0.7746 -0.1232
 2589WAT     H211063   6.076   3.430   7.232 -0.1161  3.5449 -1.1548
 2589WAT    EPW11064   6.141   3.416   7.190  0.2822 -0.0264  0.5524
 2590WAT      O11065   5.599   1.909   7.171  0.2114  0.2622  0.3252
 2590WAT     H111066   5.648   1.968   7.129  1.7527 -0.3460  1.1789
 2590WAT     H211067   5.649   1.838   7.171 -0.8267 -0.4843  0.9545
 2590WAT    EPW11068   5.614   1.907   7.165 -0.5951  0.4908 -0.2798
 2591WAT      O11069   5.636   4.169   6.396  0.3954  0.2458  0.4932
 2591WAT     H111070   5.636   4.217   6.323  0.7949 -1.1252 -0.4554
 2591WAT     H211071   5.568   4.199   6.441 -1.0058 -0.0889 -1.2924
 2591WAT    EPW11072   5.626   4.181   6.392  0.5027  0.6247  0.4156
 2592WAT      O11073   7.843   4.041   1.498 -0.1842 -0.5848  0.2355
 2592WAT     H111074   7.805   4.066   1.424  2.0476  0.4453 -0.6419
 2592WAT     H211075   7.891   3.972   1.474 -0.2192 -0.8626  0.9485
 2592WAT    EPW11076   7.844   4.034   1.484 -0.0892  0.3076  0.0643
 2593WAT      O11077   4.064   6.306   3.839 -0.2109  1.0008  0.2350
 2593WAT     H111078   3.998   6.303   3.782 -0.6506 -0.2746  0.7658
 2593WAT     H211079   4.098   6.226   3.836  0.1441  1.0868  1.2997
 2593WAT    EPW11080   4.059   6.294   3.830 -0.3011 -0.1545  0.6397
 2594WAT      O11081   4.834   0.077   1.176 -0.5449  0.0175  0.1174
 2594WAT     H111082   4.747   0.088   1.174 -0.5199  0.1917 -0.0421
 2594WAT     H211083   4.843  -0.010   1.184 -0.7316 -0.0526 -0.3694
 2594WAT    EPW11084   4.823   0.066   1.177  0.2836  0.0644  0.2526
 2595WAT      O11085   4.859   5.856   3.301 -0.7031  0.0559  0.0471
 2595WAT     H111086   4.870   5.836   3.217 -0.1919 -0.1212  0.1549
 2595WAT     H211087   4.902   5.793   3.344  1.3665  1.5762  0.3777
 2595WAT    EPW11088   4.867   5.844   3.295  0.2212 -0.3231 -0.3506
 2596WAT      O11089   7.228   6.577   2.957 -0.5788 -0.4537 -0.3107
 2596WAT     H111090   7.198   6.656   2.936 -0.6315 -0.2917  0.3398
 2596WAT     H211091   7.222   6.532   2.883 -0.5202  0.1592 -0.6964
 2596WAT    EPW11092   7.223   6.582   2.943  0.2176 -0.0239  0.0697
 2597WAT      O11093   4.027   7.466   1.586  0.5266  0.2314 -0.6541
 2597WAT     H111094   4.065   7.541   1.611 -0.2658  0.6733 -0.7414
 2597WAT     H211095   3.975   7.491   1.520 -1.6979  0.0822  0.9380
 2597WAT    EPW11096   4.025   7.481   1.580 -0.1477  0.3958 -0.7306
 2598WAT      O11097   0.047   5.169   1.302  0.2343 -0.6243 -0.4780
 2598WAT     H111098   0.091   5.220   1.247  0.1372 -0.1658 -0.1288
 2598WAT     H211099  -0.036   5.193   1.291  0.2103 -0.5651 -0.1618
 2598WAT    EPW11100   0.041   5.180   1.292  0.0361 -0.4323 -0.1425
 2599WAT      O11101   2.009   5.050   6.614  0.5630 -0.3423  0.0286
 2599WAT     H111102   1.923   5.060   6.625  0.5859 -0.7308  0.5848
 2599WAT     H211103   2.027   5.101   6.545 -0.4196 -1.6631 -1.2422
 2599WAT    EPW11104   1.999   5.059   6.605  0.5750 -0.0645  0.0603
 2600WAT      O11105   0.866   1.052   8.005 -0.3189 -0.3547  0.6610
 2600WAT     H111106   0.947   1.081   7.992  0.3195 -1.0077  2.6991
 2600WAT     H211107   0.815   1.121   7.987  0.5990 -0.1223 -1.2486
 2600WAT    EPW11108   0.870   1.066   8.001 -0.1970  0.0279 -0.3794
 2601WAT      O11109   4.291   6.833   0.039  0.1652 -0.2799  0.4451
 2601WAT     H111110   4.272   6.823  -0.046  1.5099  1.4957 -0.1395
 2601WAT     H211111   4.232   6.892   0.065  0.5549  0.1297  0.4032
 2601WAT    EPW11112   4.279   6.840   0.030 -0.8576 -0.2410  0.3631
 2602WAT      O11113   4.233   0.384   6.395 -0.1801  0.3687  0.2626
 2602WAT     H111114   4.275   0.431   6.335 -0.8090  0.4888 -0.0882
 2602WAT     H211115   4.211   0.443   6.456 -2.3487  0.8724 -0.9130
 2602WAT    EPW11116   4.236   0.400   6.395  0.6617  0.2075 -1.0415
 2603WAT      O11117   4.955   5.052   4.784  0.0458 -0.5486  0.0491
 2603WAT     H111118   4.922   4.971   4.779 -0.3275 -0.3507 -0.9139
 2603WAT     H211119   4.911   5.096   4.723  0.7322  0.2178  0.0871
 2603WAT    EPW11120   4.944   5.047   4.774 -0.2248 -0.1587  0.1995
 2604WAT      O11121   5.244   0.202   1.191 -0.0520  0.3119 -0.1042
 2604WAT     H111122   5.319   0.237   1.163  1.1435 -1.4412  0.7018
 2604WAT     H211123   5.207   0.172   1.118  0.6864  0.0203 -0.3678
 2604WAT    EPW11124   5.250   0.203   1.176  0.2110 -0.0519  0.2504
 2605WAT      O11125   5.328   5.887   0.778 -0.3501  0.3947  0.4025
 2605WAT     H111126   5.359   5.881   0.859  1.3819 -0.3536 -0.2647
 2605WAT     H211127   5.321   5.973   0.765  1.1312  0.6109  0.7640
 2605WAT    EPW11128   5.332   5.899   0.788  0.7573  0.3317  0.0764
 2606WAT      O11129   4.457   3.383   6.323  0.2031  0.2891  0.4477
 2606WAT     H111130   4.477   3.298   6.327  0.2442  0.3045  0.5693
 2606WAT     H211131   4.482   3.406   6.242 -1.3617 -0.2095 -0.2259
 2606WAT    EPW11132   4.463   3.374   6.311 -0.5268 -0.3810 -1.0165
 2607WAT      O11133   5.486   7.138   4.914 -0.4596  0.3132 -0.3909
 2607WAT     H111134   5.464   7.082   4.977 -0.2366  0.3767 -0.2578
 2607WAT     H211135   5.569   7.117   4.896 -0.6432  0.0338 -0.9355
 2607WAT    EPW11136   5.495   7.127   4.920 -0.0491 -0.2631  0.4803
 2608WAT      O11137   4.979   0.482   7.191  0.0693  0.8531  0.6069
 2608WAT     H111138   4.977   0.399   7.217 -0.5919  0.6066 -0.1508
 2608WAT     H211139   5.029   0.480   7.119 -0.6793  0.9262  0.0650
 2608WAT    EPW11140   4.986   0.469   7.184 -0.4250 -0.0710 -0.2856
 2609WAT      O11141   7.581   1.798   0.560  0.0921  0.0339  0.2804
 2609WAT     H111142   7.496   1.799   0.541 -0.1033 -1.7909  0.8086
 2609WAT     H211143   7.609   1.723   0.524  1.8237  1.3105 -1.1550
 2609WAT    EPW11144   7.572   1.787   0.552 -0.1002  0.2826 -0.5454
 2610WAT      O11145   5.108   6.737   7.692  0.3388 -0.0663  0.4466
 2610WAT     H111146   5.105   6.772   7.612 -0.2500  1.1146  0.9597
 2610WAT     H211147   5.033   6.764   7.729 -1.0466 -3.3062  0.3343
 2610WAT    EPW11148   5.096   6.746   7.685  0.0363 -0.1642  0.4602
 2611WAT      O11149   4.788   0.209   5.748  0.1801 -0.1492 -0.3188
 2611WAT     H111150   4.801   0.182   5.666  2.4743 -0.2927  0.0344
 2611WAT     H211151   4.721   0.160   5.774  0.6148 -1.4731 -1.5157
 2611WAT    EPW11152   4.780   0.198   5.739 -0.3918 -0.0616 -0.6802
 2612WAT      O11153   4.050   0.547   0.094 -0.0194 -0.8641 -0.2965
 2612WAT     H111154   4.076   0.467   0.074 -0.5460 -0.7029 -1.7111
 2612WAT     H211155   4.125   0.590   0.109  0.3722 -1.1737 -1.3068
 2612WAT    EPW11156   4.065   0.542   0.093  0.2357 -0.6788 -0.0622
 2613WAT      O11157   4.823   3.244   0.867 -0.6789 -0.1570  0.3782
 2613WAT     H111158   4.816   3.183   0.805 -0.3892  0.8854 -0.7243
 2613WAT     H211159   4.742   3.251   0.898 -0.6949 -1.1533  0.5810
 2613WAT    EPW11160   4.810   3.236   0.862  0.2725  0.1583  0.6953
 2614WAT      O11161   6.064   6.849   4.427 -0.4241  0.1076  0.1595
 2614WAT     H111162   6.064   6.780   4.480  0.9029 -1.4852 -1.7343
 2614WAT     H211163   6.008   6.826   4.364  0.4074  0.5063 -0.7546
 2614WAT    EPW11164   6.056   6.835   4.425 -0.2622  0.1339 -0.1461
 2615WAT      O11165   3.561   7.761   1.490  0.5295 -0.5418  0.0519
 2615WAT     H111166   3.488   7.781   1.446 -2.2934 -3.6943  2.6914
 2615WAT     H211167   3.565   7.822   1.552 -0.1757 -0.5482  0.1168
 2615WAT    EPW11168   3.551   7.773   1.493  0.3330 -0.4223  0.2302
 2616WAT      O11169   3.460   1.659   2.646  0.0564  0.3547  0.0266
 2616WAT     H111170   3.481   1.588   2.600 -0.7076 -0.4621  0.8871
 2616WAT     H211171   3.408   1.704   2.592 -1.4252 -0.9399  0.2822
 2616WAT    EPW11172   3.455   1.655   2.631  0.0456  0.4542 -0.1442
 2617WAT      O11173   7.329   0.831   1.818  0.1002 -0.4415 -0.1706
 2617WAT     H111174   7.366   0.862   1.891 -3.5685 -0.8089  2.1028
 2617WAT     H211175   7.365   0.752   1.809  0.4227 -0.5101  1.4526
 2617WAT    EPW11176   7.340   0.823   1.827 -0.1238 -0.6191  0.4106
 2618WAT      O11177   4.791   5.223   6.463 -0.0996  0.1037 -0.1411
 2618WAT     H111178   4.705   5.221   6.476 -0.1750  1.0362 -0.3974
 2618WAT     H211179   4.824   5.193   6.538 -0.6515 -0.9215 -0.2941
 2618WAT    EPW11180   4.783   5.218   6.476 -0.5108 -0.3423 -0.2895
 2619WAT      O11181   6.475   2.267   3.943 -0.0310 -0.0238  0.4064
 2619WAT     H111182   6.489   2.216   3.874  0.6805 -0.7817  1.0803
 2619WAT     H211183   6.533   2.238   4.002  1.2042  2.3054  0.4408
 2619WAT    EPW11184   6.486   2.255   3.942  0.0243 -0.4455 -0.2589
 2620WAT      O11185   6.270   5.816   4.179  0.0379 -0.5498  0.0182
 2620WAT     H111186   6.287   5.866   4.109  2.8655  0.3530  1.1691
 2620WAT     H211187   6.240   5.874   4.238  0.1823 -0.7874  0.3282
 2620WAT    EPW11188   6.268   5.832   4.178  0.3181 -0.0712 -0.2947
 2621WAT      O11189   5.711   1.058   5.289 -0.6694 -0.4967 -0.1031
 2621WAT     H111190   5.637   1.015   5.272 -0.4514 -0.7118 -0.5087
 2621WAT     H211191   5.749   1.065   5.211 -1.0876  1.1435 -0.2105
 2621WAT    EPW11192   5.706   1.053   5.275 -0.0082 -0.0845 -0.2053
 2622WAT      O11193   4.626   4.399   6.350  0.5223  0.6362  0.6859
 2622WAT     H111194   4.615   4.367   6.269  2.0342  0.9716  0.3188
 2622WAT     H211195   4.681   4.342   6.387 -1.3081 -0.3476  2.0250
 2622WAT    EPW11196   4.633   4.385   6.344 -0.3106  0.6778 -0.3664
 2623WAT      O11197   2.907   7.127   0.617 -0.2701  0.4370 -0.1536
 2623WAT     H111198   2.951   7.076   0.672  0.0981  0.6355 -0.2638
 2623WAT     H211199   2.903   7.204   0.657  1.8585  1.2143 -1.2803
 2623WAT    EPW11200   2.913   7.130   0.631  0.2807  0.4363  0.1997
 2624WAT      O11201   3.080   6.820   7.421 -0.1823 -0.5719  0.0856
 2624WAT     H111202   3.093   6.884   7.364 -0.5531 -0.6334 -0.0714
 2624WAT     H211203   3.011   6.847   7.467 -0.8234 -1.1939 -0.4809
 2624WAT    EPW11204   3.071   6.834   7.419 -0.0890  0.1567 -0.3715
 2625WAT      O11205   4.297   1.092   7.211 -0.1712  0.0531 -0.2453
 2625WAT     H111206   4.256   1.040   7.267 -1.1552 -0.4213 -1.3567
 2625WAT     H211207   4.378   1.060   7.207 -1.0519 -2.2011 -1.7790
 2625WAT    EPW11208   4.303   1.080   7.219  0.5551  0.0766  0.4163
 2626WAT      O11209   4.379   7.279   7.929  0.4045  0.8462 -1.0231
 2626WAT     H111210   4.332   7.218   7.888  0.8703 -1.3958  1.4762
 2626WAT     H211211   4.328   7.304   7.996  1.5758  0.5293  0.0390
 2626WAT    EPW11212   4.364   7.274   7.933  0.6261 -0.2752  0.1148
 2627WAT      O11213   5.383   5.051   5.239 -0.2149 -0.5301 -0.1114
 2627WAT     H111214   5.345   5.128   5.254  2.2348  0.7381  0.1186
 2627WAT     H211215   5.354   5.029   5.160 -1.3100  0.4127  0.0106
 2627WAT    EPW11216   5.373   5.059   5.229  0.0962 -0.4063 -0.9003
 2628WAT      O11217   3.244   5.059   7.425 -0.1303  0.6578 -0.5906
 2628WAT     H111218   3.236   5.145   7.441  1.2377  0.5229  1.0928
 2628WAT     H211219   3.279   5.056   7.345 -1.1221  1.6094 -1.0953
 2628WAT    EPW11220   3.248   5.071   7.416  0.4134  0.3783 -0.1452
 2629WAT      O11221   3.512   1.145   4.388 -0.8573  0.5177  0.1367
 2629WAT     H111222   3.517   1.202   4.455  1.2244  1.3769 -0.6642
 2629WAT     H211223   3.551   1.188   4.322 -1.0564 -1.0860 -1.0673
 2629WAT    EPW11224   3.519   1.160   4.388 -0.4956 -0.2476 -0.2103
 2630WAT      O11225   1.587   3.605   2.636  0.0565  0.3505 -0.1588
 2630WAT     H111226   1.527   3.614   2.573 -0.6285  1.1371  0.5696
 2630WAT     H211227   1.660   3.586   2.593 -0.5861 -0.0151 -1.1203
 2630WAT    EPW11228   1.589   3.603   2.621 -0.0919 -0.6886  0.5283
 2631WAT      O11229   5.588   6.153   4.339  0.4023 -0.3451 -0.3606
 2631WAT     H111230   5.559   6.233   4.322 -0.2130 -0.2240  1.0902
 2631WAT     H211231   5.519   6.113   4.375  1.1094 -1.0699  0.2335
 2631WAT    EPW11232   5.574   6.159   4.342 -0.2532  0.0900 -0.0839
 2632WAT      O11233   1.453   7.761   3.216 -0.5477 -0.1979 -0.7136
 2632WAT     H111234   1.520   7.782   3.268 -1.3610  3.3025 -0.7816
 2632WAT     H211235   1.492   7.732   3.144  0.7663 -0.9160  0.2416
 2632WAT    EPW11236   1.469   7.760   3.213  0.7611  0.4133  0.0290
 2633WAT      O11237   7.010   3.088   4.073 -0.4504 -0.1774  0.1848
 2633WAT     H111238   7.096   3.099   4.063 -0.2075 -0.9405  1.1760
 2633WAT     H211239   6.980   3.084   3.991  0.8377 -2.4413 -0.2956
 2633WAT    EPW11240   7.018   3.089   4.059  0.2363  0.5194  0.3809
 2634WAT      O11241   6.427   0.957   1.343 -0.0760  0.2146  0.3597
 2634WAT     H111242   6.404   1.039   1.326  0.5882  0.7717  1.8636
 2634WAT     H211243   6.469   0.932   1.271 -1.4251  0.7261 -0.6282
 2634WAT    EPW11244   6.430   0.965   1.330 -0.1441 -1.2667 -0.4680
 2635WAT      O11245   3.198   5.093   5.560 -0.2744 -0.4338  0.4100
 2635WAT     H111246   3.158   5.149   5.613  1.3877 -0.2560  1.5405
 2635WAT     H211247   3.281   5.120   5.560 -0.0425 -0.9682 -1.6020
 2635WAT    EPW11248   3.204   5.105   5.568  0.1630 -0.4696  0.8785
 2636WAT      O11249   5.978   3.024   3.240 -0.7380 -0.2436  0.5187
 2636WAT     H111250   5.920   3.084   3.267  0.8834  1.6700 -0.0375
 2636WAT     H211251   6.054   3.065   3.245  0.3401 -1.9106 -1.0222
 2636WAT    EPW11252   5.980   3.039   3.245 -0.2370 -0.2370 -0.0579
 2637WAT      O11253   6.416   7.724   3.053  0.0604 -0.3488 -0.2308
 2637WAT     H111254   6.367   7.701   2.985 -0.5919 -0.4093  0.2537
 2637WAT     H211255   6.422   7.651   3.100  1.1181 -0.5082 -0.5734
 2637WAT    EPW11256   6.410   7.710   3.050  0.3665  0.0592 -0.0361
 2638WAT      O11257   2.306   6.308   3.207 -0.3959 -0.1635  0.4659
 2638WAT     H111258   2.268   6.298   3.129  2.6430  0.2078 -1.1966
 2638WAT     H211259   2.308   6.395   3.217 -0.0789 -0.1784  0.5506
 2638WAT    EPW11260   2.301   6.320   3.197 -0.2556  0.3058  0.4602
 2639WAT      O11261   5.710   5.241   1.513  0.2940  0.5279 -0.2345
 2639WAT     H111262   5.705   5.238   1.426 -2.0064  1.1308 -0.1874
 2639WAT     H211263   5.756   5.314   1.528  2.1362 -0.4276 -0.8950
 2639WAT    EPW11264   5.716   5.251   1.502 -0.1054 -0.3894  0.1020
 2640WAT      O11265   4.614   0.882   3.402 -0.3972  0.6074 -0.3920
 2640WAT     H111266   4.669   0.946   3.380 -0.7343  1.6652  1.6614
 2640WAT     H211267   4.646   0.853   3.477 -0.4951 -1.4163 -1.0747
 2640WAT    EPW11268   4.627   0.887   3.410 -0.1212  0.6433 -0.1749
 2641WAT      O11269   6.088   2.876   4.670 -0.0695 -0.1362 -0.3068
 2641WAT     H111270   6.149   2.859   4.730  0.7504 -1.8869 -1.5399
 2641WAT     H211271   6.129   2.930   4.615  0.0486 -0.5513 -0.6286
 2641WAT    EPW11272   6.103   2.881   4.671 -0.8798 -0.1883  0.1001
 2642WAT      O11273   4.519   5.869   6.713 -0.1232 -0.4654  0.6194
 2642WAT     H111274   4.564   5.796   6.697 -0.0134 -0.4769  0.9713
 2642WAT     H211275   4.560   5.903   6.782 -2.0116 -1.6457  2.4200
 2642WAT    EPW11276   4.532   5.863   6.721 -0.3669  0.0053  0.0910
 2643WAT      O11277   2.169   5.517   5.840  0.3484 -0.6304 -0.0417
 2643WAT     H111278   2.085   5.499   5.855  0.1575  1.4549  1.9046
 2643WAT     H211279   2.178   5.504   5.754 -1.7296 -1.6968 -0.1460
 2643WAT    EPW11280   2.158   5.512   5.830 -0.0945  0.0003  0.4958
 2644WAT      O11281   5.916   2.446   7.303  0.0968 -0.2410  0.2168
 2644WAT     H111282   5.848   2.407   7.265  0.4564 -1.0245  0.3583
 2644WAT     H211283   5.892   2.452   7.387 -0.0654  0.0839  0.1484
 2644WAT    EPW11284   5.903   2.441   7.310  0.3051  0.3373 -0.3931
 2645WAT      O11285   6.702   3.945   2.451 -0.1806  0.0380 -0.1227
 2645WAT     H111286   6.667   3.869   2.425 -0.0573  0.1773 -0.7100
 2645WAT     H211287   6.747   3.923   2.523 -0.3454 -0.4004 -0.1497
 2645WAT    EPW11288   6.704   3.931   2.458  0.2393 -0.3284 -0.3445
 2646WAT      O11289   5.816  -0.009   0.182  0.0191  0.1779 -0.1334
 2646WAT     H111290   5.900  -0.033   0.180 -0.1177 -0.3273 -0.1635
 2646WAT     H211291   5.811   0.058   0.128  0.6837  1.1334  0.9509
 2646WAT    EPW11292   5.827  -0.003   0.174  0.0863  0.0357 -0.4067
 2647WAT      O11293   2.147   7.360   7.288  0.1318 -0.3034  0.3509
 2647WAT     H111294   2.145   7.341   7.203 -1.0133 -2.1036  0.7424
 2647WAT     H211295   2.072   7.403   7.301  0.0693 -0.4726  0.5478
 2647WAT    EPW11296   2.136   7.364   7.277  0.6527  0.2171  0.4048
 2648WAT      O11297   3.241   4.114   5.776 -0.0121  0.2714 -0.4005
 2648WAT     H111298   3.274   4.189   5.805 -0.4101  0.5772 -0.7246
 2648WAT     H211299   3.207   4.135   5.698 -0.3316 -0.1882 -0.3923
 2648WAT    EPW11300   3.241   4.128   5.769  0.2104 -0.0686 -0.1747
 2649WAT      O11301   6.355   4.752   5.448  0.2417 -0.0282  0.0309
 2649WAT     H111302   6.314   4.768   5.373  1.5302 -0.7156 -0.8639
 2649WAT     H211303   6.393   4.828   5.467 -0.1752  0.1777  0.0577
 2649WAT    EPW11304   6.355   4.766   5.440 -0.1303 -0.2129  0.3360
 2650WAT      O11305   4.438   2.651   0.287 -0.3844 -0.3151 -0.5836
 2650WAT     H111306   4.499   2.688   0.236  0.0266 -1.6778 -1.1365
 2650WAT     H211307   4.369   2.644   0.234 -0.1576 -1.1569 -0.7871
 2650WAT    EPW11308   4.437   2.655   0.271  0.5143  0.5601 -0.1672
 2651WAT      O11309   6.374   5.193   4.311 -0.3975  0.1179 -0.7135
 2651WAT     H111310   6.400   5.267   4.274  1.7660 -0.2062 -0.0032
 2651WAT     H211311   6.372   5.136   4.245  1.4490  0.0178 -0.7329
 2651WAT    EPW11312   6.377   5.195   4.296  0.1244  0.8152  0.3022
 2652WAT      O11313   6.000   2.352   2.911 -0.2657 -0.0912  1.1358
 2652WAT     H111314   6.001   2.364   2.824 -1.8530 -0.4120  1.0478
 2652WAT     H211315   5.960   2.424   2.941 -0.1069 -0.1802  1.5644
 2652WAT    EPW11316   5.994   2.365   2.902 -0.2336  0.3826 -0.1293
 2653WAT      O11317   1.722   0.026   0.976  0.3122  0.0245  0.0408
 2653WAT     H111318   1.719  -0.060   0.988  2.0759 -0.1249 -0.3572
 2653WAT     H211319   1.667   0.040   0.909 -0.8665 -0.6036  0.8421
 2653WAT    EPW11320   1.713   0.016   0.968  0.0434  0.7106 -0.2899
 2654WAT      O11321   2.787   7.665   5.219  0.3760  0.4288 -0.7583
 2654WAT     H111322   2.857   7.619   5.196 -1.0180 -0.4690 -3.9152
 2654WAT     H211323   2.787   7.731   5.162 -0.9890  0.7222 -0.4530
 2654WAT    EPW11324   2.797   7.668   5.207  0.0550 -0.0209 -0.0418
 2655WAT      O11325   4.728   1.831   6.243  0.4571  0.0905 -0.2939
 2655WAT     H111326   4.719   1.816   6.158 -0.4924 -1.4416  0.0278
 2655WAT     H211327   4.771   1.760   6.271  0.0494  0.1855  0.6084
 2655WAT    EPW11328   4.733   1.818   6.235  0.5984  0.1514  0.4905
 2656WAT      O11329   7.407   2.950   0.757 -0.5854  0.2512  0.0537
 2656WAT     H111330   7.437   2.869   0.744 -0.9078  0.3879 -1.7695
 2656WAT     H211331   7.340   2.956   0.701 -0.6370  1.7338  0.2394
 2656WAT    EPW11332   7.401   2.939   0.747 -0.2293 -0.3363 -0.7884
 2657WAT      O11333   7.896   7.458   4.300 -0.0511  0.0093  0.3766
 2657WAT     H111334   7.869   7.536   4.272 -1.5194 -0.1502  1.2301
 2657WAT     H211335   7.953   7.477   4.363  1.3829  0.3659 -0.9829
 2657WAT    EPW11336   7.900   7.472   4.305  0.1638  0.1504  0.2480
 2658WAT      O11337   0.266   5.192   4.894 -0.0900  0.3572 -0.2153
 2658WAT     H111338   0.268   5.258   4.952 -0.3671  1.1620 -1.0869
 2658WAT     H211339   0.335   5.143   4.916 -0.8327  0.0292  1.4742
 2658WAT    EPW11340   0.277   5.195   4.906  0.2047 -0.3294  0.2339
 2659WAT      O11341   4.199   7.320   7.122 -0.0939 -0.6822 -0.6872
 2659WAT     H111342   4.283   7.341   7.130 -0.5356  0.8203  0.5793
 2659WAT     H211343   4.171   7.318   7.205 -1.4602 -0.5132 -1.1268
 2659WAT    EPW11344   4.207   7.323   7.135 -0.1448  0.1378  0.4890
 2660WAT      O11345   6.385   3.114   0.312  0.5807 -0.1656 -0.0259
 2660WAT     H111346   6.406   3.153   0.388 -0.9984  0.4285  0.1547
 2660WAT     H211347   6.311   3.071   0.332 -2.3328  3.3151 -2.0743
 2660WAT    EPW11348   6.377   3.114   0.326  0.2255 -0.1381  0.1805
 2661WAT      O11349   4.827   1.715   5.360 -0.0728  0.5996  0.3752
 2661WAT     H111350   4.869   1.658   5.411 -0.9251 -0.6114 -0.2448
 2661WAT     H211351   4.805   1.779   5.416  3.5419  1.9386  0.5423
 2661WAT    EPW11352   4.830   1.716   5.376 -0.3131  0.2679 -0.3939
 2662WAT      O11353   5.055   7.987   4.481 -0.3596 -0.3927  0.4064
 2662WAT     H111354   5.044   7.982   4.395  2.3321  2.6737 -0.3160
 2662WAT     H211355   5.140   7.972   4.492 -0.3128  0.8606  2.2848
 2662WAT    EPW11356   5.066   7.984   4.470 -0.4135  0.4233  0.2947
 2663WAT      O11357   3.629   2.733   7.025  0.6206  0.7318  0.2288
 2663WAT     H111358   3.694   2.694   7.069  1.3669  1.8048  0.1224
 2663WAT     H211359   3.669   2.800   6.986 -0.2335  0.4286 -1.2253
 2663WAT    EPW11360   3.645   2.737   7.026 -0.3774  0.3523 -0.4538
 2664WAT      O11361   3.742   5.871   2.654  0.5382 -0.7894  0.0821
 2664WAT     H111362   3.806   5.890   2.598  0.6526  0.3687  0.5784
 2664WAT     H211363   3.748   5.934   2.714 -1.1658 -0.5637  0.0651
 2664WAT    EPW11364   3.753   5.883   2.655  0.0003 -0.2316  0.0382
 2665WAT      O11365   0.085   1.827   5.170 -0.2538  0.3743 -0.0118
 2665WAT     H111366   0.019   1.855   5.221  0.5211  0.0730  1.2174
 2665WAT     H211367   0.112   1.899   5.130  0.4364  1.0588  1.5985
 2665WAT    EPW11368   0.079   1.842   5.172  0.2225 -0.0429  0.4841
 2666WAT      O11369   5.429   4.113   5.882 -0.0272  0.0072 -0.2618
 2666WAT     H111370   5.464   4.059   5.942 -0.3488 -0.7181 -0.7151
 2666WAT     H211371   5.350   4.079   5.868  0.8472 -1.2101 -2.7647
 2666WAT    EPW11372   5.423   4.100   5.889  0.2263  0.3576 -0.0767
 2667WAT      O11373   4.415   0.155   4.579  0.2103  0.5655 -0.7641
 2667WAT     H111374   4.448   0.076   4.597 -2.0134 -0.3738 -0.5684
 2667WAT     H211375   4.403   0.154   4.493 -0.9463  0.1925 -0.6143
 2667WAT    EPW11376   4.418   0.143   4.569 -0.7227 -0.0721  0.0203
 2668WAT      O11377   5.798   6.105   3.315 -0.1806 -0.0457  1.2135
 2668WAT     H111378   5.842   6.035   3.284  0.1069 -0.1936  1.9265
 2668WAT     H211379   5.836   6.172   3.274 -1.1938 -0.3537 -0.3327
 2668WAT    EPW11380   5.810   6.104   3.304 -0.3839  0.3556 -0.1879
 2669WAT      O11381   2.452   3.497   3.307  0.5341  0.3665 -0.0019
 2669WAT     H111382   2.405   3.494   3.380 -0.2961  0.3513 -0.5294
 2669WAT     H211383   2.486   3.417   3.300 -1.0707 -0.2982 -0.7128
 2669WAT    EPW11384   2.450   3.485   3.317 -0.1896 -0.4494 -0.2364
 2670WAT      O11385   3.462   5.889   3.274 -0.5878 -0.2207  0.3334
 2670WAT     H111386   3.476   5.820   3.326  0.2110 -1.3266 -1.2477
 2670WAT     H211387   3.381   5.875   3.244 -1.6007  1.1458  2.2413
 2670WAT    EPW11388   3.452   5.876   3.277  0.4676  0.3608  0.9459
 2671WAT      O11389   6.318   5.719   3.300  0.0602  0.3088 -0.0725
 2671WAT     H111390   6.374   5.745   3.361 -1.3456  2.3876  0.4588
 2671WAT     H211391   6.242   5.714   3.342 -0.4465 -1.0908 -1.0589
 2671WAT    EPW11392   6.315   5.722   3.315 -0.1154  0.1136 -0.4757
 2672WAT      O11393   4.761   2.231   1.167  0.0099 -1.2401  0.2358
 2672WAT     H111394   4.755   2.235   1.254 -1.0199 -1.2507  0.1722
 2672WAT     H211395   4.678   2.237   1.140  0.4560  1.2953 -0.8554
 2672WAT    EPW11396   4.748   2.233   1.176 -0.4260  0.7361  0.3485
 2673WAT      O11397   1.408   6.918   4.930 -1.0101 -0.4022 -0.3125
 2673WAT     H111398   1.489   6.906   4.898 -0.5839  0.4982  0.3798
 2673WAT     H211399   1.402   6.857   4.992 -1.2765 -1.1649 -1.0640
 2673WAT    EPW11400   1.419   6.907   4.934  0.1835 -0.2303  0.3738
 2674WAT      O11401   6.207   6.188   1.158 -0.2147  0.0638  0.3919
 2674WAT     H111402   6.139   6.135   1.170  0.7616 -0.8964  2.0929
 2674WAT     H211403   6.188   6.257   1.209  0.5647 -0.7440  1.8631
 2674WAT    EPW11404   6.194   6.190   1.168 -0.3160  0.5063  0.3769
 2675WAT      O11405   1.275   7.654   3.638 -0.5458 -0.0544  0.1579
 2675WAT     H111406   1.269   7.625   3.556 -2.2684  0.5084  0.0389
 2675WAT     H211407   1.265   7.740   3.630  0.6853  0.1824  0.8549
 2675WAT    EPW11408   1.273   7.662   3.625 -0.1259 -0.6638 -0.3792
 2676WAT      O11409   6.001   0.189   7.661  0.5328  0.2328  0.0198
 2676WAT     H111410   5.915   0.185   7.646  0.8085 -0.7502 -1.4928
 2676WAT     H211411   6.016   0.275   7.670 -0.4337  0.5237 -0.8859
 2676WAT    EPW11412   5.991   0.201   7.660  0.6332 -0.0334  0.3075
 2677WAT      O11413   7.441   7.198   0.305 -0.4498 -0.4619 -0.6267
 2677WAT     H111414   7.396   7.156   0.243 -0.9294  0.2768 -0.7894
 2677WAT     H211415   7.379   7.240   0.350 -0.0765 -0.7281  0.1589
 2677WAT    EPW11416   7.425   7.198   0.303  0.3048  0.0905  0.5774
 2678WAT      O11417   2.467   5.678   4.043  0.2526 -0.0910 -0.1752
 2678WAT     H111418   2.520   5.620   4.080 -1.4137 -2.2919 -1.0176
 2678WAT     H211419   2.401   5.685   4.099  0.6433  1.4477  0.1446
 2678WAT    EPW11420   2.465   5.670   4.056  1.0190  0.3707 -0.2893
 2679WAT      O11421   3.888   0.251   4.773 -0.2893 -0.4825 -0.4698
 2679WAT     H111422   3.945   0.208   4.723 -0.5781 -2.0171  0.4500
 2679WAT     H211423   3.812   0.212   4.755 -0.5687 -0.3492  0.3798
 2679WAT    EPW11424   3.885   0.239   4.763 -0.0605 -0.2635 -0.0046
 2680WAT      O11425   6.267   2.379   0.032 -0.1118 -0.4152 -0.7619
 2680WAT     H111426   6.296   2.318  -0.023  1.9972  0.1388 -0.3594
 2680WAT     H211427   6.272   2.452  -0.016 -0.7505 -0.2848 -0.6322
 2680WAT    EPW11428   6.272   2.381   0.017 -1.2011  0.1442 -0.1264
 2681WAT      O11429   3.229   4.307   8.006 -0.1601  0.4734 -0.1232
 2681WAT     H111430   3.199   4.230   8.033  1.9838 -0.1174  0.7645
 2681WAT     H211431   3.159   4.359   8.009 -1.5035 -1.2545 -0.1105
 2681WAT    EPW11432   3.214   4.303   8.010  0.3070 -0.5095 -0.3474
 2682WAT      O11433   1.855   4.526   0.667  0.5093 -0.1186  0.2731
 2682WAT     H111434   1.859   4.613   0.674 -1.7314  0.2661 -1.8235
 2682WAT     H211435   1.896   4.508   0.593 -0.5981 -0.6064 -0.2469
 2682WAT    EPW11436   1.861   4.536   0.657  0.1616 -0.2399  0.5139
 2683WAT      O11437   2.960   5.252   5.960 -0.1433  0.0050 -0.3662
 2683WAT     H111438   2.990   5.280   6.037  0.2324  0.4032 -0.6541
 2683WAT     H211439   2.938   5.326   5.918  1.1542 -0.0799 -1.2553
 2683WAT    EPW11440   2.961   5.267   5.965 -0.1469 -0.3908 -0.1907
 2684WAT      O11441   7.675   6.269   0.896  0.3403  0.2873 -0.3330
 2684WAT     H111442   7.669   6.308   0.818  0.8344 -0.3509 -0.6975
 2684WAT     H211443   7.681   6.185   0.876  0.8725  0.1539  0.3756
 2684WAT    EPW11444   7.675   6.263   0.881  0.4238  0.5892  0.3960
 2685WAT      O11445   3.143   5.680   1.008  0.2642  0.0858  0.5495
 2685WAT     H111446   3.107   5.695   0.930  1.1210 -0.7587 -0.0370
 2685WAT     H211447   3.076   5.659   1.059 -0.3455  0.9919  0.1344
 2685WAT    EPW11448   3.128   5.679   1.004 -0.6218 -0.3131  0.5588
 2686WAT      O11449   6.816   0.470   3.335  0.3831 -0.6144  0.1455
 2686WAT     H111450   6.889   0.517   3.327 -0.1803  0.1979 -0.3323
 2686WAT     H211451   6.762   0.505   3.277 -0.0944 -1.8108 -0.1766
 2686WAT    EPW11452   6.819   0.482   3.325 -0.2169 -0.0077 -0.5912
 2687WAT      O11453   5.424   3.960   6.277  0.0449 -0.2865 -0.3501
 2687WAT     H111454   5.343   3.931   6.265  0.1061 -0.9056  0.5590
 2687WAT     H211455   5.414   4.046   6.285 -0.8292 -0.4984  1.7016
 2687WAT    EPW11456   5.411   3.968   6.276 -0.5816  0.3892 -0.2404
 2688WAT      O11457   6.250   0.618   1.925  0.7489  0.3802 -0.1321
 2688WAT     H111458   6.326   0.613   1.969  0.4378  0.1026  0.3823
 2688WAT     H211459   6.203   0.552   1.958  0.1518  0.7684 -0.1966
 2688WAT    EPW11460   6.255   0.608   1.937 -0.0566 -0.1359 -0.2327
 2689WAT      O11461   1.791   0.896   4.634 -0.6584  0.4601  0.2278
 2689WAT     H111462   1.792   0.819   4.674 -0.8569 -0.8795 -2.1393
 2689WAT     H211463   1.873   0.925   4.641 -0.7402  0.4229  1.7212
 2689WAT    EPW11464   1.803   0.889   4.641  0.0056 -0.7282  0.0370
 2690WAT      O11465   4.384   5.728   3.742  0.8895 -0.5877  0.0411
 2690WAT     H111466   4.403   5.813   3.745  0.5106 -0.5203  0.7399
 2690WAT     H211467   4.312   5.721   3.790 -0.2643 -1.0053 -1.6735
 2690WAT    EPW11468   4.377   5.739   3.750 -0.6920  0.0523  0.2100
 2691WAT      O11469   4.633   4.242   7.202  0.0811  0.5506 -0.3054
 2691WAT     H111470   4.549   4.232   7.182 -0.2403  0.8355  0.8037
 2691WAT     H211471   4.672   4.255   7.125 -0.2792 -3.4167 -1.3552
 2691WAT    EPW11472   4.626   4.242   7.188 -0.1406 -0.0666 -0.0192
 2692WAT      O11473   6.108   4.740   5.265  0.6270 -0.3090 -0.2797
 2692WAT     H111474   6.026   4.760   5.289  0.1450  0.1061 -2.1288
 2692WAT     H211475   6.109   4.653   5.267  0.9365 -0.3148  2.1262
 2692WAT    EPW11476   6.096   4.730   5.269  0.0975 -0.0748 -0.2168
 2693WAT      O11477   5.967   6.277   3.612  0.3002 -0.6165 -0.2844
 2693WAT     H111478   6.034   6.271   3.558 -0.5308 -2.0512 -1.2190
 2693WAT     H211479   5.943   6.361   3.607  1.2413 -0.3741 -0.8596
 2693WAT    EPW11480   5.973   6.288   3.604 -0.2262 -0.0864  0.4532
 2694WAT      O11481   3.500   4.397   6.853 -0.2771  0.2624 -0.1193
 2694WAT     H111482   3.488   4.337   6.792 -0.3171 -0.2370  0.3728
 2694WAT     H211483   3.569   4.442   6.824 -0.5911  0.3420 -0.7648
 2694WAT    EPW11484   3.509   4.395   6.840 -0.0495  0.3738 -0.0045
 2695WAT      O11485   2.780   4.998   7.735  0.4262  0.5771 -0.3785
 2695WAT     H111486   2.744   5.077   7.741 -0.2171  0.2760 -0.2383
 2695WAT     H211487   2.818   4.999   7.656  0.2916  0.9701 -0.4389
 2695WAT    EPW11488   2.780   5.010   7.724  0.0486 -0.7019 -0.3264
 2696WAT      O11489   5.966   5.841   2.897 -0.0722 -0.2062 -0.3088
 2696WAT     H111490   6.043   5.807   2.873  0.4427  1.7085 -1.6047
 2696WAT     H211491   5.907   5.787   2.862  0.6963  0.8578 -3.5129
 2696WAT    EPW11492   5.969   5.828   2.888 -0.3008  0.0264  0.1437
 2697WAT      O11493   4.155   5.841   7.229 -0.5331  0.1197 -0.1121
 2697WAT     H111494   4.107   5.901   7.188 -0.3625  0.6585  0.4581
 2697WAT     H211495   4.183   5.883   7.301 -0.9650 -0.8437  0.6414
 2697WAT    EPW11496   4.152   5.856   7.234  0.8992 -0.0850 -0.6667
 2698WAT      O11497   2.832   0.667   5.808  0.1412  0.6898  0.3337
 2698WAT     H111498   2.746   0.675   5.801 -0.2082 -1.0945  1.7568
 2698WAT     H211499   2.850   0.703   5.885  0.0350 -2.0934  1.8003
 2698WAT    EPW11500   2.822   0.674   5.818  0.1778  1.0098  0.3107
 2699WAT      O11501   1.267   0.247   0.910  0.5453 -0.8647  0.1176
 2699WAT     H111502   1.314   0.239   0.837  2.2051  0.2548  1.0207
 2699WAT     H211503   1.323   0.226   0.973  0.5301  2.3592  1.3779
 2699WAT    EPW11504   1.282   0.243   0.908  0.0886 -0.2751  0.0370
 2700WAT      O11505   5.080   6.897   0.571 -0.1581  0.2479 -0.0401
 2700WAT     H111506   5.084   6.943   0.645  2.8425  0.6493 -0.3420
 2700WAT     H211507   5.117   6.949   0.512  0.1513 -1.1840 -1.1837
 2700WAT    EPW11508   5.086   6.911   0.573 -0.0266 -0.5781 -0.2716
 2701WAT      O11509   2.846   7.293   6.827  0.1601  0.3464  0.7424
 2701WAT     H111510   2.923   7.318   6.861  1.2121  2.1973 -2.6127
 2701WAT     H211511   2.865   7.277   6.743 -2.6863 -1.6737  0.3514
 2701WAT    EPW11512   2.860   7.294   6.820 -0.1963  0.7083  0.4222
 2702WAT      O11513   5.730   7.600   5.875  0.2004  0.1606  0.2119
 2702WAT     H111514   5.693   7.664   5.921  0.9670  0.7746 -0.0074
 2702WAT     H211515   5.675   7.533   5.885  0.7040  0.0283  2.6702
 2702WAT    EPW11516   5.717   7.600   5.883  0.1577  0.1296 -0.2204
 2703WAT      O11517   5.616   5.702   3.170  0.1900  0.1035 -0.1933
 2703WAT     H111518   5.616   5.789   3.162  0.8243  0.0168 -1.3411
 2703WAT     H211519   5.675   5.688   3.233 -0.0295  0.5110  0.1054
 2703WAT    EPW11520   5.625   5.713   3.178  0.2883  0.5733 -0.4626
 2704WAT      O11521   5.304   7.173   6.535 -0.3989  0.3707 -0.0714
 2704WAT     H111522   5.368   7.212   6.490  0.9723 -0.8404  0.7446
 2704WAT     H211523   5.305   7.214   6.612 -2.7269  2.4269 -0.9896
 2704WAT    EPW11524   5.314   7.185   6.540  0.4999  0.5435 -0.4199
 2705WAT      O11525   6.595   8.008   1.978 -0.1419 -0.2750  0.3126
 2705WAT     H111526   6.618   7.978   2.057 -2.3941 -1.0366  0.7660
 2705WAT     H211527   6.551   7.941   1.943  0.6078  0.1352 -1.5309
 2705WAT    EPW11528   6.592   7.994   1.985  0.7105 -0.6662 -0.6231
 2706WAT      O11529   4.054   6.002   0.661 -0.2017  0.2371  0.1376
 2706WAT     H111530   4.141   5.999   0.658 -0.1996 -0.5983  0.8006
 2706WAT     H211531   4.037   6.026   0.743 -0.6079 -1.2488  0.5215
 2706WAT    EPW11532   4.064   6.005   0.673 -0.1150  0.4080  0.2849
 2707WAT      O11533   1.042   0.840   0.590  0.4658 -0.4534 -0.1099
 2707WAT     H111534   1.096   0.908   0.595  0.6128 -0.5982  0.3414
 2707WAT     H211535   1.046   0.817   0.506 -0.5150  0.8276 -0.5320
 2707WAT    EPW11536   1.050   0.846   0.578 -0.0970  0.4078 -0.3485
 2708WAT      O11537   4.005   2.599   5.215  0.2619  0.0337  0.8292
 2708WAT     H111538   3.984   2.619   5.297 -1.5859 -1.4798  0.7981
 2708WAT     H211539   3.928   2.582   5.178  1.2367 -1.5987 -0.5655
 2708WAT    EPW11540   3.991   2.600   5.222  0.9293  0.4536 -0.4483
 2709WAT      O11541   2.462   7.614   3.821 -0.0075 -0.1815 -0.0213
 2709WAT     H111542   2.399   7.670   3.844 -0.7449 -1.2329  0.6349
 2709WAT     H211543   2.421   7.556   3.771  0.3989 -0.9725  0.5474
 2709WAT    EPW11544   2.447   7.614   3.817  0.4455 -0.1176 -0.6208
 2710WAT      O11545   6.381   4.675   1.067  0.7858  0.5918 -0.2287
 2710WAT     H111546   6.422   4.688   0.992  0.3509 -0.4280 -0.6628
 2710WAT     H211547   6.400   4.592   1.087 -2.2633 -0.4975 -1.2722
 2710WAT    EPW11548   6.390   4.664   1.059 -0.0399 -0.2072  0.2828
 2711WAT      O11549   5.515   6.685   1.829 -0.1863  0.3034  0.0255
 2711WAT     H111550   5.565   6.651   1.892 -1.2890 -0.3331  0.5921
 2711WAT     H211551   5.442   6.708   1.870 -0.5387  0.8218 -0.8510
 2711WAT    EPW11552   5.512   6.683   1.844  0.1888  0.6611  0.1806
 2712WAT      O11553   2.154   7.848   0.925 -0.7262  0.1638 -0.3920
 2712WAT     H111554   2.110   7.846   1.000 -1.0628  1.8683 -0.4924
 2712WAT     H211555   2.092   7.840   0.864 -0.8212  1.5215 -0.5106
 2712WAT    EPW11556   2.139   7.847   0.927 -0.0934  0.0860  0.8547
 2713WAT      O11557   4.827   4.955   4.531  0.0473 -0.1195  0.3509
 2713WAT     H111558   4.818   4.905   4.602 -0.1196  1.0185  1.1559
 2713WAT     H211559   4.777   4.914   4.472  0.0256 -0.9809  0.9410
 2713WAT    EPW11560   4.818   4.941   4.533  0.3594  0.0595 -0.1983
 2714WAT      O11561   5.499   7.304   6.380 -0.5246  0.2168  0.0263
 2714WAT     H111562   5.579   7.315   6.412 -1.2049  2.2930  1.2225
 2714WAT     H211563   5.513   7.271   6.301  1.4709  0.0454  0.3982
 2714WAT    EPW11564   5.512   7.301   6.373 -0.2282  0.0473  0.3270
 2715WAT      O11565   3.576   1.722   0.023 -0.0475  0.1234 -0.2921
 2715WAT     H111566   3.504   1.709   0.071 -0.5897  1.0010 -0.8420
 2715WAT     H211567   3.553   1.696  -0.057  0.4222 -0.0813 -0.3648
 2715WAT    EPW11568   3.562   1.716   0.019  0.4139 -0.2360 -0.0166
 2716WAT      O11569   5.518   7.239   3.080 -0.6005  0.2610 -0.2631
 2716WAT     H111570   5.605   7.243   3.069 -0.7015  0.2296 -1.1830
 2716WAT     H211571   5.491   7.320   3.065 -0.7584  0.2048 -0.2903
 2716WAT    EPW11572   5.527   7.251   3.076  0.7994 -0.8710  0.5022
 2717WAT      O11573   5.698   2.820   3.449  0.1433 -0.1990 -0.5169
 2717WAT     H111574   5.664   2.743   3.471 -0.7085  0.2659 -0.1475
 2717WAT     H211575   5.780   2.801   3.427  0.4365 -0.9833  1.1380
 2717WAT    EPW11576   5.705   2.806   3.449 -0.9546  0.0447  0.3175
 2718WAT      O11577   4.637   5.180   4.510  0.6426  0.3466  0.1937
 2718WAT     H111578   4.579   5.144   4.456  0.4192 -0.1033  0.7178
 2718WAT     H211579   4.709   5.132   4.498  1.1468  1.3336 -0.9624
 2718WAT    EPW11580   4.639   5.167   4.500  0.5957 -0.6112 -0.1516
 2719WAT      O11581   6.385   4.406   1.099  0.3801 -0.3085 -0.8395
 2719WAT     H111582   6.314   4.358   1.081 -0.7391  0.3243  1.4916
 2719WAT     H211583   6.373   4.431   1.182  1.5239  2.9155 -1.4919
 2719WAT    EPW11584   6.373   4.403   1.109 -0.4427 -0.3811  0.1400
 2720WAT      O11585   0.166   5.764   2.165 -0.1575  0.6756 -0.4083
 2720WAT     H111586   0.198   5.763   2.246 -2.0213  1.0729  0.3936
 2720WAT     H211587   0.209   5.828   2.126 -0.6340  1.8530  0.9203
 2720WAT    EPW11588   0.177   5.773   2.171 -0.5382 -0.3523 -0.3346
 2721WAT      O11589   3.517   7.244   5.912 -0.2316 -0.4480  0.0538
 2721WAT     H111590   3.591   7.289   5.923 -0.9196  0.2448  2.9083
 2721WAT     H211591   3.455   7.306   5.916 -1.0266 -1.1674 -0.7500
 2721WAT    EPW11592   3.519   7.260   5.914 -0.7219  0.0887 -0.1962
 2722WAT      O11593   4.927   0.785   2.351  0.3492 -0.4262  0.4738
 2722WAT     H111594   4.874   0.778   2.282 -0.1801 -0.2889  0.8667
 2722WAT     H211595   4.880   0.829   2.409  1.0469  0.0810  0.6686
 2722WAT    EPW11596   4.912   0.790   2.349  0.0319 -0.3503 -0.2978
 2723WAT      O11597   4.996   2.596   3.906  0.0160  0.3753  0.0802
 2723WAT     H111598   5.037   2.666   3.938  1.7734  0.4771 -2.1315
 2723WAT     H211599   4.920   2.629   3.877  0.6556  1.3188 -0.5731
 2723WAT    EPW11600   4.991   2.611   3.906  0.0226 -0.1178  0.6682
 2724WAT      O11601   4.196   0.137   6.549 -0.4474  0.6552  0.6791
 2724WAT     H111602   4.204   0.210   6.502 -1.0592  0.3902  0.1586
 2724WAT     H211603   4.139   0.159   6.611 -2.2879  0.0494 -0.7033
 2724WAT    EPW11604   4.189   0.151   6.551 -0.2233  0.0377 -0.0339
 2725WAT      O11605   0.334   1.906   2.219 -0.4042  0.0521  0.1932
 2725WAT     H111606   0.273   1.843   2.217 -1.0819  0.7007  0.2904
 2725WAT     H211607   0.368   1.900   2.299  2.9878 -3.3931 -1.1583
 2725WAT    EPW11608   0.330   1.896   2.230  0.3401  0.3099  0.2034
 2726WAT      O11609   4.790   6.343   5.291  0.1168 -0.2532  0.6559
 2726WAT     H111610   4.837   6.347   5.218 -0.4563 -1.1251  0.2269
 2726WAT     H211611   4.721   6.394   5.275  1.1141  1.4587  1.4797
 2726WAT    EPW11612   4.787   6.351   5.278 -0.0175 -0.3951 -0.4123
 2727WAT      O11613   4.538   6.718   4.608 -1.0828  0.5004  0.1647
 2727WAT     H111614   4.580   6.758   4.543 -0.1975  0.0953  0.4665
 2727WAT     H211615   4.532   6.635   4.580  0.7868 -0.0677  1.2473
 2727WAT    EPW11616   4.544   6.712   4.595 -0.3714 -0.0779 -0.2000
 2728WAT      O11617   4.335   4.383   6.454  0.1428 -0.0308  0.4950
 2728WAT     H111618   4.413   4.370   6.418 -0.4545 -0.1109 -0.8379
 2728WAT     H211619   4.328   4.470   6.458 -0.5090  0.0417 -1.3291
 2728WAT    EPW11620   4.346   4.394   6.450  0.2128  0.0277  0.0041
 2729WAT      O11621   2.402   6.951   5.732  0.2143  0.1657  0.3375
 2729WAT     H111622   2.407   6.864   5.733 -1.0574  0.0378 -0.7843
 2729WAT     H211623   2.469   6.976   5.782  1.2844 -1.4245 -0.1952
 2729WAT    EPW11624   2.413   6.942   5.739  0.2610  0.2521 -0.0446
 2730WAT      O11625   5.554   5.557   2.635  1.2314  0.3471  0.7154
 2730WAT     H111626   5.587   5.554   2.555  1.4330  0.8610  0.7751
 2730WAT     H211627   5.575   5.480   2.669 -1.1415 -0.9912 -0.6069
 2730WAT    EPW11628   5.562   5.545   2.628  0.2860 -0.3386  0.6325
 2731WAT      O11629   5.425   7.833   7.416  0.3914  0.0505  0.2417
 2731WAT     H111630   5.448   7.813   7.334  2.6012 -0.2613  0.8761
 2731WAT     H211631   5.436   7.758   7.459 -0.9291  0.1603  0.8273
 2731WAT    EPW11632   5.430   7.819   7.410 -0.5961 -0.0425 -0.3973
 2732WAT      O11633   6.033   5.875   0.963 -0.0766 -0.4407  0.3398
 2732WAT     H111634   6.040   5.946   0.912 -2.6981 -0.5155 -0.2578
 2732WAT     H211635   6.012   5.908   1.041  0.3066 -0.5175  0.4805
 2732WAT    EPW11636   6.031   5.890   0.967  0.0415 -0.1727  0.2140
 2733WAT      O11637   0.394   4.154   2.410 -0.0366  0.9346 -0.0687
 2733WAT     H111638   0.365   4.174   2.330 -2.1284 -0.1792  0.3253
 2733WAT     H211639   0.426   4.229   2.440 -1.1596  1.9113 -1.1857
 2733WAT    EPW11640   0.394   4.168   2.403  0.3872  0.4291  0.6668
 2734WAT      O11641   6.351   3.982   1.439 -0.0126 -0.1053 -0.3576
 2734WAT     H111642   6.293   3.917   1.438  1.0367 -1.0721 -1.1316
 2734WAT     H211643   6.370   3.993   1.523 -0.7314 -0.3094 -0.1658
 2734WAT    EPW11644   6.345   3.974   1.451  0.0425  0.2394 -0.6360
 2735WAT      O11645   3.038   1.952   6.490  0.0869 -0.3799  0.0128
 2735WAT     H111646   3.058   1.867   6.497 -0.5750 -0.5491 -0.0952
 2735WAT     H211647   2.961   1.952   6.449 -0.3792  0.2403  0.8544
 2735WAT    EPW11648   3.029   1.939   6.485  0.2826 -0.5654 -0.2626
 2736WAT      O11649   0.927   2.117   4.811 -0.1099 -0.3848  0.4548
 2736WAT     H111650   0.874   2.059   4.849 -2.0753 -0.8666 -2.6621
 2736WAT     H211651   0.924   2.096   4.727  3.4385  0.9626 -0.2191
 2736WAT    EPW11652   0.919   2.105   4.804 -0.2540  0.2205  0.4764
 2737WAT      O11653   5.645   5.987   3.120 -0.4095 -0.4446 -0.2044
 2737WAT     H111654   5.681   6.009   3.043 -0.8092  0.5042 -0.1368
 2737WAT     H211655   5.688   6.037   3.178 -1.0078 -0.1786  0.0172
 2737WAT    EPW11656   5.657   5.998   3.117  0.0093  0.0398 -0.0022
 2738WAT      O11657   3.505   4.781   7.741 -0.3983 -0.1220  0.2816
 2738WAT     H111658   3.439   4.834   7.719  1.6622  1.7670 -2.0255
 2738WAT     H211659   3.570   4.836   7.758  0.5802 -1.8892  2.8365
 2738WAT    EPW11660   3.505   4.797   7.740 -0.2562 -0.0785  0.3039
 2739WAT      O11661   1.431   4.269   6.691  0.2111 -0.3001  0.3311
 2739WAT     H111662   1.447   4.343   6.647  0.0693 -0.7691 -0.5213
 2739WAT     H211663   1.443   4.293   6.774 -0.5736  0.8904  0.1388
 2739WAT    EPW11664   1.435   4.284   6.697  0.6463 -0.0217  0.0263
 2740WAT      O11665   0.924   1.876   2.619  0.4124 -0.3495 -0.3430
 2740WAT     H111666   0.975   1.904   2.684  0.1800  1.0097 -0.7079
 2740WAT     H211667   0.910   1.792   2.638  1.1114 -0.2161  0.8507
 2740WAT    EPW11668   0.929   1.868   2.631 -0.3286 -0.0604  0.1537
 2741WAT      O11669   4.249   5.095   6.055 -0.1747  0.0419  0.5779
 2741WAT     H111670   4.239   5.141   5.981 -1.1320  0.2851  0.8539
 2741WAT     H211671   4.271   5.155   6.114 -0.6539  0.0373  0.7655
 2741WAT    EPW11672   4.251   5.111   6.053  0.6448  0.0907  0.2821
 2742WAT      O11673   5.819   1.124   0.266 -0.3258  0.3036 -0.0633
 2742WAT     H111674   5.854   1.045   0.255  1.9905  0.9757  1.6338
 2742WAT     H211675   5.827   1.138   0.352 -3.7073  1.1276  0.2626
 2742WAT    EPW11676   5.825   1.114   0.277 -0.4425 -0.3100 -0.1152
 2743WAT      O11677   7.480   1.692   4.487 -0.0113 -0.1966 -0.6630
 2743WAT     H111678   7.429   1.711   4.555 -2.3757 -3.2272 -1.3715
 2743WAT     H211679   7.553   1.662   4.524 -0.1965  0.6612  0.4583
 2743WAT    EPW11680   7.483   1.690   4.502  0.2956 -0.0927 -0.1346
 2744WAT      O11681   3.466   2.987   6.555  0.1528 -0.4214 -0.9674
 2744WAT     H111682   3.543   2.968   6.518  1.5458 -0.6628  1.8153
 2744WAT     H211683   3.443   3.062   6.516  1.5100 -0.6110 -2.2248
 2744WAT    EPW11684   3.474   2.995   6.544  0.3920 -0.1700 -0.0383
 2745WAT      O11685   7.433   6.054   2.050  0.2813 -0.3692  0.0081
 2745WAT     H111686   7.485   5.988   2.028  0.2101 -0.1210 -0.9401
 2745WAT     H211687   7.359   6.038   2.006 -0.3812 -0.6035  1.1642
 2745WAT    EPW11688   7.430   6.042   2.040 -0.4034  0.0936 -0.2936
 2746WAT      O11689   4.282   3.419   6.770 -0.3773  0.1822  0.3382
 2746WAT     H111690   4.221   3.357   6.776 -1.9855  1.7447  1.6139
 2746WAT     H211691   4.355   3.380   6.798 -0.4719 -2.0423 -2.1742
 2746WAT    EPW11692   4.284   3.404   6.775 -0.4049 -0.7638  0.3781
 2747WAT      O11693   4.160   6.930   5.438 -0.3146  0.2513 -0.4389
 2747WAT     H111694   4.078   6.956   5.447  0.1956  1.1920  2.8666
 2747WAT     H211695   4.199   6.998   5.400 -0.7242  0.5645 -0.3082
 2747WAT    EPW11696   4.154   6.944   5.434  0.9641  0.1253 -0.1678
 2748WAT      O11697   0.255   4.110   1.027  0.2366 -0.1567  0.1209
 2748WAT     H111698   0.228   4.090   1.107  1.0069 -0.4771  0.3153
 2748WAT     H211699   0.326   4.159   1.040 -0.4773  1.0505 -0.3714
 2748WAT    EPW11700   0.262   4.114   1.040 -0.0586 -0.6030 -0.7965
 2749WAT      O11701   3.658   7.798   5.513 -0.1708  0.3392 -0.3327
 2749WAT     H111702   3.651   7.877   5.550 -1.4086  0.3378 -0.5329
 2749WAT     H211703   3.714   7.812   5.447  1.6417  0.4539  1.1444
 2749WAT    EPW11704   3.665   7.812   5.509 -0.1066 -0.2197 -0.0374
 2750WAT      O11705   4.075   7.547   7.027 -0.2465 -0.3350 -0.1648
 2750WAT     H111706   4.118   7.473   7.039  1.1102  0.6236  1.4242
 2750WAT     H211707   3.992   7.522   7.017  0.2523 -2.0684 -0.1789
 2750WAT    EPW11708   4.069   7.533   7.027  0.2100 -0.0807  0.5101
 2751WAT      O11709   6.187   6.490   2.556  0.6527  0.2243  0.2043
 2751WAT     H111710   6.225   6.454   2.487 -1.5731 -0.7608 -0.6058
 2751WAT     H211711   6.133   6.549   2.522  0.7406  0.9243  1.2280
 2751WAT    EPW11712   6.185   6.494   2.541 -0.3734 -0.3891  0.1062
 2752WAT      O11713   4.259   2.187   7.178 -0.3145  0.1839 -0.5555
 2752WAT     H111714   4.286   2.109   7.207 -0.1589  0.6002  0.4718
 2752WAT     H211715   4.225   2.169   7.100 -0.1104 -0.8854 -0.4203
 2752WAT    EPW11716   4.258   2.173   7.171  0.0306 -0.6249  0.3894
 2753WAT      O11717   6.102   3.926   3.757  0.1843  0.0036  0.3738
 2753WAT     H111718   6.132   3.864   3.704 -0.7637  0.4505 -0.7446
 2753WAT     H211719   6.164   3.987   3.754  0.6084 -0.4094  0.6018
 2753WAT    EPW11720   6.116   3.926   3.749  0.2708 -0.3354  0.3569
 2754WAT      O11721   2.457   4.193   4.897  0.4573  0.3929 -0.2191
 2754WAT     H111722   2.397   4.147   4.853 -0.3071  0.2300  0.9424
 2754WAT     H211723   2.531   4.151   4.880  0.0351 -0.2347 -0.5704
 2754WAT    EPW11724   2.459   4.180   4.888 -0.8063  0.5462 -0.2397
 2755WAT      O11725   3.637   7.517   4.350 -0.0723 -0.1158 -0.3905
 2755WAT     H111726   3.722   7.501   4.357  0.0316  0.3157 -0.6480
 2755WAT     H211727   3.623   7.584   4.403 -0.1406  0.1892 -0.7882
 2755WAT    EPW11728   3.648   7.524   4.359  0.9208 -0.3922  0.5108
 2756WAT      O11729   2.703   5.902   1.892 -0.2907  0.9019 -0.1935
 2756WAT     H111730   2.774   5.857   1.916 -0.5606 -0.5435 -1.9614
 2756WAT     H211731   2.730   5.945   1.821 -0.5766  2.1520  0.4257
 2756WAT    EPW11732   2.718   5.902   1.885  0.1130 -0.9270  0.3397
 2757WAT      O11733   7.646   1.452   3.632  0.3535  0.4534  0.0698
 2757WAT     H111734   7.595   1.395   3.590  1.4036 -0.0968 -0.4805
 2757WAT     H211735   7.623   1.442   3.716 -0.8627  0.6560 -0.2201
 2757WAT    EPW11736   7.635   1.442   3.638 -0.3074 -0.2841  0.0232
 2758WAT      O11737   2.444   6.845   0.771  0.1713  0.3044 -0.2026
 2758WAT     H111738   2.428   6.760   0.759 -0.4372  0.3615  0.1656
 2758WAT     H211739   2.515   6.859   0.722  0.4746 -0.4821 -0.0155
 2758WAT    EPW11740   2.452   6.835   0.762  0.4921  0.5562  0.1988
 2759WAT      O11741   6.666   7.481   3.288  0.3134 -0.2254 -0.4389
 2759WAT     H111742   6.677   7.558   3.328  0.9793 -0.5745  0.0771
 2759WAT     H211743   6.734   7.434   3.317 -1.2143 -1.7117  0.9299
 2759WAT    EPW11744   6.678   7.485   3.299  0.3071 -0.6592  0.0149
 2760WAT      O11745   3.493   1.325   4.883 -0.0145  0.5133  0.4026
 2760WAT     H111746   3.577   1.306   4.894  0.0595  0.4202 -0.2951
 2760WAT     H211747   3.475   1.378   4.950  0.4967  0.2341  0.7677
 2760WAT    EPW11748   3.502   1.330   4.895 -0.4280  0.5103 -0.8370
 2761WAT      O11749   5.570   0.331   4.973 -0.0681 -0.2777 -0.0831
 2761WAT     H111750   5.523   0.349   4.901  0.1529 -0.3452 -0.2429
 2761WAT     H211751   5.521   0.273   5.016 -0.3643  0.0232 -0.0074
 2761WAT    EPW11752   5.556   0.325   4.969  0.5876 -0.2868 -0.1621
 2762WAT      O11753   4.931   6.045   1.177 -0.1841  0.1550  0.3225
 2762WAT     H111754   4.883   5.981   1.142  0.0510  0.8663 -1.3898
 2762WAT     H211755   4.944   6.100   1.111 -0.0547  1.8114  1.6520
 2762WAT    EPW11756   4.926   6.043   1.162 -0.3306 -0.3053 -0.1095
 2763WAT      O11757   6.000   7.114   4.572  0.3347  0.5216  0.2794
 2763WAT     H111758   6.059   7.103   4.635 -3.0517 -2.6050  3.4745
 2763WAT     H211759   6.025   7.059   4.510  2.8370  2.3822 -0.5215
 2763WAT    EPW11760   6.012   7.104   4.572 -0.0777 -0.7087  0.2160
 2764WAT      O11761   1.239   6.263   5.221  0.3424  0.0680  0.0689
 2764WAT     H111762   1.155   6.243   5.236 -0.1812  2.2686  0.4603
 2764WAT     H211763   1.266   6.199   5.169 -2.1145  0.1674 -1.5285
 2764WAT    EPW11764   1.231   6.251   5.216  0.1160  0.2938 -0.2863
 2765WAT      O11765   7.598   0.596   0.407 -0.5707 -0.7531  0.4737
 2765WAT     H111766   7.621   0.632   0.483 -0.6438 -1.2527  0.7389
 2765WAT     H211767   7.576   0.665   0.357 -0.2550 -0.4054  0.8096
 2765WAT    EPW11768   7.598   0.612   0.411 -0.1689  0.4758  0.0956
 2766WAT      O11769   4.893   4.295   6.705 -0.0604  0.0769 -0.3063
 2766WAT     H111770   4.929   4.356   6.755 -0.4454 -0.6169  0.8501
 2766WAT     H211771   4.856   4.340   6.640  1.0747  0.9406 -0.3742
 2766WAT    EPW11772   4.893   4.311   6.703 -0.2327 -0.3267 -0.2077
 2767WAT      O11773   1.858   6.083   1.247  0.5454 -0.4028  0.3216
 2767WAT     H111774   1.894   6.110   1.322  1.3861  0.8726 -0.5168
 2767WAT     H211775   1.891   6.137   1.187 -2.9008  1.0251 -0.5191
 2767WAT    EPW11776   1.868   6.095   1.250  0.2254 -0.5438 -0.0408
 2768WAT      O11777   3.647   6.416   2.329  0.2281  0.3660  0.1335
 2768WAT     H111778   3.631   6.339   2.365 -0.7072  1.0407  1.2550
 2768WAT     H211779   3.697   6.456   2.387 -0.7415  1.2248  0.4177
 2768WAT    EPW11780   3.652   6.411   2.343 -0.0168  0.1721  0.4115
 2769WAT      O11781   6.391   2.884   2.213  0.0068 -0.4858 -0.1715
 2769WAT     H111782   6.337   2.950   2.195  0.1908  0.0374  1.0615
 2769WAT     H211783   6.336   2.818   2.231 -0.2783  0.1185  1.3428
 2769WAT    EPW11784   6.375   2.884   2.213  0.6551 -0.1129  0.1212
 2770WAT      O11785   3.273   3.896   3.046 -0.0836  0.1868  0.0272
 2770WAT     H111786   3.196   3.879   3.084  1.4895 -1.4343  2.8215
 2770WAT     H211787   3.324   3.918   3.114  2.6155 -1.5821 -1.2626
 2770WAT    EPW11788   3.269   3.897   3.062  0.8084 -0.5751 -0.0509
 2771WAT      O11789   2.446   4.117   7.214  0.2487  0.4634  0.2942
 2771WAT     H111790   2.516   4.079   7.179 -0.2415 -0.7816  0.5994
 2771WAT     H211791   2.429   4.183   7.160  0.9948  0.1046 -0.3981
 2771WAT    EPW11792   2.454   4.121   7.201 -0.0289 -0.1115 -0.0278
 2772WAT      O11793   3.462   5.914   2.977 -0.1489  0.0686  0.0921
 2772WAT     H111794   3.393   5.965   2.963  0.9266  1.4603 -0.3832
 2772WAT     H211795   3.463   5.904   3.064 -0.0663  1.3625  0.2652
 2772WAT    EPW11796   3.452   5.920   2.988  0.2543  0.2992 -0.0307
 2773WAT      O11797   4.473   5.889   4.409 -0.0664  0.0976  0.2571
 2773WAT     H111798   4.457   5.970   4.380 -0.7351 -0.0817  0.0921
 2773WAT     H211799   4.393   5.858   4.426  0.1304 -0.7416 -0.2807
 2773WAT    EPW11800   4.459   5.897   4.407  0.2818  0.2767 -0.1765
 2774WAT      O11801   4.981   5.244   1.853  0.1689  0.5216 -0.2086
 2774WAT     H111802   4.924   5.192   1.811  1.5130 -0.5585 -0.7581
 2774WAT     H211803   5.021   5.287   1.788  1.0369  0.1519  0.0751
 2774WAT    EPW11804   4.978   5.243   1.837 -0.4409  0.6528  0.0386
 2775WAT      O11805   5.924   0.869   3.435  0.9175 -0.3228 -0.0379
 2775WAT     H111806   5.889   0.840   3.509  1.3591 -2.2347 -0.5217
 2775WAT     H211807   5.860   0.858   3.376  0.7908  0.5806 -0.0930
 2775WAT    EPW11808   5.910   0.863   3.437  0.1760  0.0036 -0.2022
 2776WAT      O11809   1.795   3.786   1.003 -0.2356  0.0791 -0.2272
 2776WAT     H111810   1.747   3.844   1.047  0.3128  0.1474  0.2964
 2776WAT     H211811   1.759   3.786   0.923  0.4700  2.0050 -0.5968
 2776WAT    EPW11812   1.783   3.794   0.998 -0.1382  0.0290 -0.0179
 2777WAT      O11813   6.008   3.222   2.133  0.5598  0.8190 -0.1121
 2777WAT     H111814   6.020   3.307   2.117 -1.4944  1.0542 -0.7086
 2777WAT     H211815   5.965   3.194   2.063 -0.7444 -0.1925  1.0450
 2777WAT    EPW11816   6.004   3.230   2.121 -0.0519 -0.0546 -0.4892
 2778WAT      O11817   5.802   6.169   5.525 -0.2989  0.1080  0.3821
 2778WAT     H111818   5.847   6.095   5.526 -2.0852 -1.0583  1.9205
 2778WAT     H211819   5.775   6.178   5.608 -3.1606  0.4902 -0.4795
 2778WAT    EPW11820   5.804   6.160   5.537  0.4027  0.1333 -0.2760
 2779WAT      O11821   5.121   7.842   0.947  0.4275  0.8433  0.3103
 2779WAT     H111822   5.038   7.821   0.965  0.4571  1.3233  1.0437
 2779WAT     H211823   5.133   7.810   0.867  0.5340 -2.0662  1.3764
 2779WAT    EPW11824   5.111   7.834   0.938 -0.0246 -0.5276  0.5095
 2780WAT      O11825   1.659   0.279   2.881 -0.2699 -0.6053 -0.4377
 2780WAT     H111826   1.620   0.219   2.931 -1.2302  0.8304  0.6274
 2780WAT     H211827   1.716   0.233   2.834  1.3809 -1.9786  2.6141
 2780WAT    EPW11828   1.661   0.263   2.881  0.4360 -0.1368 -0.1016
 2781WAT      O11829   6.453   5.794   3.850  0.0340 -0.2593 -0.1862
 2781WAT     H111830   6.467   5.730   3.907  0.6399  1.0419  1.2057
 2781WAT     H211831   6.534   5.821   3.829 -0.1854 -0.5960 -1.5448
 2781WAT    EPW11832   6.467   5.789   3.855 -0.9830 -0.7712  0.3162
 2782WAT      O11833   2.967   4.590   1.415 -0.0461 -0.3699 -0.5262
 2782WAT     H111834   2.921   4.654   1.378  0.2173  0.8513  1.1632
 2782WAT     H211835   2.906   4.535   1.444 -0.4128  0.5023  0.4008
 2782WAT    EPW11836   2.951   4.591   1.414  0.6207 -0.1763 -0.1155
 2783WAT      O11837   5.404   0.875   1.124 -0.1218  0.5059 -0.3842
 2783WAT     H111838   5.472   0.922   1.150  0.3537  0.9563 -2.2343
 2783WAT     H211839   5.440   0.805   1.085 -0.7294  0.2630 -0.5278
 2783WAT    EPW11840   5.419   0.872   1.122  0.5975 -0.0282  0.2776
 2784WAT      O11841   2.950   2.386   2.377  0.3480  0.5004 -0.0386
 2784WAT     H111842   2.967   2.442   2.312 -0.6804  2.2803  1.1253
 2784WAT     H211843   3.026   2.345   2.389  0.8075  0.7860 -1.7379
 2784WAT    EPW11844   2.964   2.389   2.369 -0.2909 -0.7124 -0.1308
 2785WAT      O11845   1.106   4.480   0.807 -0.0567 -0.4563 -0.0860
 2785WAT     H111846   1.162   4.417   0.831 -0.0701 -0.3860  0.1316
 2785WAT     H211847   1.084   4.517   0.882 -0.5489 -0.6072 -0.1553
 2785WAT    EPW11848   1.111   4.476   0.821  0.0028  0.3121  0.2656
 2786WAT      O11849   6.518   6.376   0.135 -0.5096 -0.2819 -0.1043
 2786WAT     H111850   6.433   6.390   0.150  0.0878  2.0526  1.7983
 2786WAT     H211851   6.544   6.449   0.094  1.2071  0.8042  2.6514
 2786WAT    EPW11852   6.509   6.389   0.131  0.3729  0.3247  0.5660
 2787WAT      O11853   6.571   1.507   2.380 -0.4797  0.4844 -0.1188
 2787WAT     H111854   6.648   1.466   2.383  0.5254  2.1928 -0.8511
 2787WAT     H211855   6.515   1.450   2.416  1.2144 -0.5880  0.9479
 2787WAT    EPW11856   6.574   1.493   2.386  0.2530  0.6318 -0.4888
 2788WAT      O11857   2.856   7.280   7.491 -0.0941 -0.1611 -0.1499
 2788WAT     H111858   2.900   7.236   7.552  0.4756 -0.2427 -0.6112
 2788WAT     H211859   2.919   7.315   7.441 -0.5479  0.1255 -0.5370
 2788WAT    EPW11860   2.872   7.279   7.493  0.5224 -0.0165  0.5482
 2789WAT      O11861   3.706   0.085   6.597 -0.3431 -0.8684  0.1237
 2789WAT     H111862   3.660   0.142   6.644 -2.6345 -0.9969 -1.8150
 2789WAT     H211863   3.777   0.071   6.646 -2.0868 -0.2614  3.0272
 2789WAT    EPW11864   3.710   0.091   6.611  0.0447  0.0571  0.1027
 2790WAT      O11865   2.953   7.232   3.608  0.0296 -0.4798  0.6723
 2790WAT     H111866   2.958   7.318   3.602  0.8857 -0.4539  1.5441
 2790WAT     H211867   2.873   7.218   3.641 -0.8069 -0.1433 -1.1163
 2790WAT    EPW11868   2.942   7.242   3.612  0.1475 -0.3932 -0.1348
 2791WAT      O11869   5.284   6.179   0.251 -0.2529  0.5481  0.2990
 2791WAT     H111870   5.319   6.110   0.291 -0.2075 -0.3983 -1.2900
 2791WAT     H211871   5.216   6.145   0.208 -0.0300  1.4359 -0.7825
 2791WAT    EPW11872   5.279   6.164   0.251  0.1300 -0.6050  0.1275
 2792WAT      O11873   6.218   3.983   6.759  0.4481  0.0431 -0.0188
 2792WAT     H111874   6.230   3.963   6.843 -0.0237  0.4756  0.1543
 2792WAT     H211875   6.295   3.963   6.722  0.8813  0.4721  0.6279
 2792WAT    EPW11876   6.231   3.977   6.766  0.1846 -0.5669  0.1402
 2793WAT      O11877   5.209   0.830   5.751  0.3556  0.2602  0.1558
 2793WAT     H111878   5.265   0.897   5.742 -0.0142  0.3714 -1.5768
 2793WAT     H211879   5.257   0.770   5.792  1.5216  0.6220 -0.6346
 2793WAT    EPW11880   5.225   0.831   5.756 -0.8618 -0.4969  0.1666
 2794WAT      O11881   5.318   4.061   1.889 -0.4602 -0.1691  0.3781
 2794WAT     H111882   5.376   4.008   1.852  0.9042  1.3584  0.2316
 2794WAT     H211883   5.255   4.007   1.916  0.8649 -1.8503  0.2495
 2794WAT    EPW11884   5.317   4.045   1.888 -0.1381 -0.2149  0.1750
 2795WAT      O11885   4.487   7.422   7.155  0.2923 -0.6382  0.5516
 2795WAT     H111886   4.492   7.508   7.140 -1.6186 -0.7833 -1.4509
 2795WAT     H211887   4.563   7.391   7.126  0.5495  0.2696  0.2220
 2795WAT    EPW11888   4.499   7.430   7.149 -0.4199 -0.0022 -0.0716
 2796WAT      O11889   4.643   4.207   2.693 -0.2632  0.6669  0.4487
 2796WAT     H111890   4.584   4.173   2.747  1.0326  2.0593  2.9418
 2796WAT     H211891   4.719   4.176   2.724  0.5274  1.3022 -0.7576
 2796WAT    EPW11892   4.646   4.197   2.706  0.5873  0.4983  0.5195
 2797WAT      O11893   4.925   6.348   2.490  0.0945 -0.6004  0.3563
 2797WAT     H111894   4.870   6.363   2.556  0.5423 -1.0416  0.8323
 2797WAT     H211895   4.998   6.389   2.514  1.2242 -3.0829  1.5127
 2797WAT    EPW11896   4.927   6.356   2.503 -0.1444 -0.4783 -0.0136
 2798WAT      O11897   4.175   4.839   3.934  0.2247 -0.0758 -0.3175
 2798WAT     H111898   4.249   4.809   3.970  0.9317  2.2616  0.3556
 2798WAT     H211899   4.177   4.924   3.951 -2.2083  0.2182 -1.0910
 2798WAT    EPW11900   4.186   4.847   3.942  0.5893 -0.6080 -0.4113
 2799WAT      O11901   5.541   7.395   5.918  0.0026 -0.1860  0.0330
 2799WAT     H111902   5.463   7.434   5.908  0.8020  1.3664 -0.6398
 2799WAT     H211903   5.525   7.329   5.972 -2.4118 -1.8659 -2.4507
 2799WAT    EPW11904   5.527   7.391   5.924  0.0202  0.1619 -0.0315
 2800WAT      O11905   2.968   6.146   6.545  0.6120 -0.0950 -0.7690
 2800WAT     H111906   2.970   6.197   6.474 -0.7912 -0.7450 -1.3115
 2800WAT     H211907   3.025   6.184   6.599  1.2146  0.8003 -1.9771
 2800WAT    EPW11908   2.977   6.159   6.542  0.0530 -0.0675  0.1978
 2801WAT      O11909   5.610   5.936   4.174 -0.3500  0.4081 -0.4544
 2801WAT     H111910   5.689   5.942   4.139 -0.7222  2.3518 -1.0863
 2801WAT     H211911   5.598   6.013   4.213 -1.6445 -0.1055  0.2386
 2801WAT    EPW11912   5.620   5.948   4.175 -0.5927 -0.8082 -0.5478
 2802WAT      O11913   3.703   6.824   4.466  0.4473  0.0613  0.0112
 2802WAT     H111914   3.625   6.786   4.477  0.9617 -1.0981 -0.1576
 2802WAT     H211915   3.742   6.772   4.408  1.5480  0.2928  0.5295
 2802WAT    EPW11916   3.697   6.811   4.459 -0.1095  0.7919  0.6394
 2803WAT      O11917   5.185   7.226   0.163  0.3116 -0.2621 -0.1724
 2803WAT     H111918   5.118   7.170   0.161  0.1235 -0.0094 -0.8124
 2803WAT     H211919   5.227   7.204   0.237  0.5423 -1.6058 -0.6804
 2803WAT    EPW11920   5.181   7.214   0.174 -0.0237 -0.3275 -0.0311
 2804WAT      O11921   5.634   1.859   3.494  0.0700 -0.0280  0.1949
 2804WAT     H111922   5.586   1.872   3.422  0.1659 -1.6242 -0.1908
 2804WAT     H211923   5.635   1.938   3.532 -1.7876  0.3445 -0.4243
 2804WAT    EPW11924   5.627   1.873   3.489  0.5716 -0.0185  0.0317
 2805WAT      O11925   5.711   5.133   4.421  0.0718  0.7242  0.4962
 2805WAT     H111926   5.761   5.084   4.473  1.6607  1.0228 -0.6819
 2805WAT     H211927   5.726   5.214   4.449  0.0940  0.8047  0.2478
 2805WAT    EPW11928   5.720   5.137   4.433 -0.9482  0.2510 -0.1680
 2806WAT      O11929   5.886   5.399   5.752  0.4739 -0.0985  0.8117
 2806WAT     H111930   5.942   5.456   5.717 -1.5456  0.6862 -1.4486
 2806WAT     H211931   5.848   5.362   5.683 -0.5584 -1.8978  2.2307
 2806WAT    EPW11932   5.888   5.402   5.737  0.4163 -0.0770 -0.1115
 2807WAT      O11933   6.606   0.797   1.839  0.3932 -0.2593 -0.1236
 2807WAT     H111934   6.555   0.829   1.776  1.2658 -0.3761 -0.9077
 2807WAT     H211935   6.650   0.866   1.868  0.5189 -0.3290 -0.1450
 2807WAT    EPW11936   6.605   0.812   1.834 -0.8562  0.0135 -0.4893
 2808WAT      O11937   0.541   7.958   3.096 -0.2678  0.0837  0.1700
 2808WAT     H111938   0.492   7.913   3.152 -0.4441  0.3779  0.2572
 2808WAT     H211939   0.500   7.946   3.019  0.1453 -0.5688  0.0453
 2808WAT    EPW11940   0.527   7.950   3.093  0.0655  0.2777 -0.6231
 2809WAT      O11941   5.835   5.636   3.308  0.0054 -0.0196  0.6474
 2809WAT     H111942   5.871   5.560   3.286  0.3524  0.7070 -1.5139
 2809WAT     H211943   5.846   5.640   3.395  1.4936 -1.6357  0.5770
 2809WAT    EPW11944   5.842   5.625   3.318 -0.0370  0.1252 -0.2584
 2810WAT      O11945   4.166   6.656   1.851  0.1647  0.1504 -0.5480
 2810WAT     H111946   4.120   6.728   1.839 -0.1025 -0.0993 -1.0382
 2810WAT     H211947   4.114   6.593   1.821  0.6010 -0.1918 -0.6017
 2810WAT    EPW11948   4.152   6.657   1.845  0.3501  0.5497 -0.4007
 2811WAT      O11949   5.225   0.841   3.414 -0.3661  0.0247 -0.8172
 2811WAT     H111950   5.236   0.870   3.496  2.2551 -3.1958  0.1700
 2811WAT     H211951   5.138   0.836   3.406 -0.7266  1.4615  1.3051
 2811WAT    EPW11952   5.214   0.845   3.425  0.0131  0.2363 -0.6986
 2812WAT      O11953   4.210   7.193   5.833 -0.0633 -0.2220 -0.4558
 2812WAT     H111954   4.231   7.118   5.794 -0.6203 -2.1747  2.6665
 2812WAT     H211955   4.133   7.175   5.870 -0.3254  2.0174  0.1862
 2812WAT    EPW11956   4.202   7.179   5.832  0.4216  0.0307 -0.2732
 2813WAT      O11957   5.392   5.936   1.341 -0.2563 -0.1777 -0.0228
 2813WAT     H111958   5.409   5.897   1.265 -0.1446 -1.2602  0.5479
 2813WAT     H211959   5.329   5.887   1.376 -1.0010  0.8733  0.1601
 2813WAT    EPW11960   5.385   5.923   1.335  0.6389 -0.2580  0.1756
 2814WAT      O11961   6.716   4.835   4.648 -0.3715 -0.3387  0.4137
 2814WAT     H111962   6.719   4.921   4.662 -0.5103 -0.2389 -0.1387
 2814WAT     H211963   6.765   4.824   4.577 -3.2899 -0.1810 -1.8263
 2814WAT    EPW11964   6.723   4.846   4.640  0.0825 -0.1085  0.0151
 2815WAT      O11965   2.065   2.633   3.692  0.1647 -0.2473 -0.8000
 2815WAT     H111966   2.151   2.618   3.685  0.1676 -0.8362  0.2439
 2815WAT     H211967   2.029   2.557   3.671 -0.1065 -0.0253 -1.1541
 2815WAT    EPW11968   2.072   2.620   3.688 -0.6595 -0.5415  0.0430
 2816WAT      O11969   3.598   6.059   0.460  0.1577  0.6035 -0.4147
 2816WAT     H111970   3.559   6.117   0.513  0.7288 -0.9542  1.8438
 2816WAT     H211971   3.682   6.068   0.479  0.4495  0.3694 -1.5219
 2816WAT    EPW11972   3.604   6.069   0.470  0.2914 -0.2228  0.2698
 2817WAT      O11973   3.446   4.483   5.449 -0.4696 -0.0193 -0.2080
 2817WAT     H111974   3.457   4.496   5.363  1.3850  1.5605  0.1894
 2817WAT     H211975   3.503   4.420   5.468 -2.2884 -1.8111 -0.4104
 2817WAT    EPW11976   3.456   4.476   5.439  0.6130  0.2073 -0.2762
 2818WAT      O11977   3.805   7.884   5.753  0.4531 -0.2191  0.5164
 2818WAT     H111978   3.773   7.808   5.724 -1.2552  0.3278  0.9087
 2818WAT     H211979   3.755   7.904   5.820  1.5791  0.7491  1.1080
 2818WAT    EPW11980   3.793   7.875   5.758  0.3002 -0.2341 -0.4145
 2819WAT      O11981   1.234   1.427   5.105  0.4409 -0.1335  0.2775
 2819WAT     H111982   1.224   1.487   5.168 -1.8317  0.1716 -0.3089
 2819WAT     H211983   1.250   1.354   5.149 -0.4777  0.1990  1.1992
 2819WAT    EPW11984   1.235   1.425   5.121 -0.0479  0.4760 -0.5813
 2820WAT      O11985   4.502   2.730   6.993 -0.0043  0.2761 -0.2021
 2820WAT     H111986   4.439   2.719   6.933  0.6318  0.0523 -0.8500
 2820WAT     H211987   4.507   2.817   7.000 -0.0348  0.3098 -0.5361
 2820WAT    EPW11988   4.493   2.741   6.985 -0.6187  0.3422  0.0210
 2821WAT      O11989   6.760   1.681   1.245  0.2930 -0.0389  0.1971
 2821WAT     H111990   6.787   1.752   1.201  1.0511 -0.6465 -0.3388
 2821WAT     H211991   6.832   1.656   1.288 -0.3412  0.3325  1.5252
 2821WAT    EPW11992   6.775   1.688   1.245 -0.1721 -0.1810 -0.4400
 2822WAT      O11993   6.162   7.000   1.292 -0.4107  0.1524  0.4272
 2822WAT     H111994   6.199   6.974   1.367 -2.3918 -0.0184  1.3976
 2822WAT     H211995   6.169   6.931   1.240 -1.1274 -0.5935  1.2859
 2822WAT    EPW11996   6.169   6.986   1.296 -0.5494  0.4954 -0.8190
 2823WAT      O11997   4.322   5.480   6.704  0.5499  0.5327  0.3963
 2823WAT     H111998   4.269   5.462   6.771  0.8710  0.3250  0.5947
 2823WAT     H211999   4.307   5.565   6.689 -0.5054  0.2665 -0.1403
 2823WAT    EPW12000   4.312   5.490   6.712 -0.0794  0.0807  0.4590
 2824WAT      O12001   3.657   1.936   2.917 -0.0185 -0.1235  0.5683
 2824WAT     H112002   3.662   2.018   2.948  1.0924  0.4076 -0.8846
 2824WAT     H212003   3.715   1.893   2.966  0.5323  0.3272  0.3267
 2824WAT    EPW12004   3.666   1.942   2.929 -0.7680  0.0864 -0.3018
 2825WAT      O12005   4.131   6.221   6.611 -0.6441  0.4500 -0.8279
 2825WAT     H112006   4.185   6.155   6.592  1.6495  1.8974  0.2242
 2825WAT     H212007   4.185   6.284   6.639 -3.0085  1.1062  2.9471
 2825WAT    EPW12008   4.147   6.220   6.612 -0.4348  0.0462 -0.3923
 2826WAT      O12009   1.394   6.218   0.246 -0.2318  0.2128  0.1321
 2826WAT     H112010   1.389   6.301   0.217 -1.1481  0.0873 -0.1025
 2826WAT     H212011   1.350   6.220   0.322  1.4093  0.3462  1.1106
 2826WAT    EPW12012   1.386   6.231   0.253 -0.5699 -0.1826  0.0276
 2827WAT      O12013   7.636   5.221   3.219  0.2939 -0.1462  0.0912
 2827WAT     H112014   7.599   5.296   3.194 -0.1598 -0.3605  0.1062
 2827WAT     H212015   7.635   5.173   3.146  2.7106  0.6725 -0.5554
 2827WAT    EPW12016   7.630   5.225   3.204  0.1849 -1.0380  0.3960
 2828WAT      O12017   4.726   0.853   1.632  0.3761  0.1236  0.9355
 2828WAT     H112018   4.729   0.868   1.718  0.0117 -0.1180  0.9968
 2828WAT     H212019   4.808   0.862   1.606  0.7735 -1.3922  1.5872
 2828WAT    EPW12020   4.738   0.856   1.641 -0.1874 -1.0601  0.0423
 2829WAT      O12021   5.474   0.800   3.895 -0.1038  0.5695  0.6306
 2829WAT     H112022   5.431   0.728   3.918  0.3434 -0.3807 -1.2962
 2829WAT     H212023   5.485   0.791   3.809  1.3557  2.1980  0.5816
 2829WAT    EPW12024   5.469   0.788   3.886  0.6251 -0.3856 -0.1296
 2830WAT      O12025   5.428   1.473   3.217 -0.1536  0.1366 -0.4625
 2830WAT     H112026   5.387   1.406   3.179 -0.6225 -0.4660  1.0368
 2830WAT     H212027   5.432   1.533   3.154 -0.1047 -1.1361 -1.7126
 2830WAT    EPW12028   5.422   1.472   3.202 -0.0343 -0.8298 -0.5187
 2831WAT      O12029   5.163   4.530   1.240 -0.0178 -0.4238  0.0318
 2831WAT     H112030   5.207   4.471   1.191  0.9991  1.4574 -1.4615
 2831WAT     H212031   5.082   4.528   1.207  0.8471  1.4236 -2.5049
 2831WAT    EPW12032   5.158   4.521   1.228  0.2691 -0.1900 -0.1693
 2832WAT      O12033   2.321   5.492   6.080 -0.4919 -0.2072 -0.2657
 2832WAT     H112034   2.259   5.538   6.121 -0.2404 -1.1399  1.2147
 2832WAT     H212035   2.293   5.491   5.997 -1.1148  1.5489 -0.1284
 2832WAT    EPW12036   2.308   5.499   6.074  0.3696 -0.2820 -0.2989
 2833WAT      O12037   5.725   3.831   4.681  0.1005  0.0161  0.0144
 2833WAT     H112038   5.744   3.913   4.704  0.0599 -0.2238  0.9225
 2833WAT     H212039   5.792   3.809   4.629 -0.2332  0.8464 -0.8011
 2833WAT    EPW12040   5.738   3.840   4.677  0.0348  0.1688 -0.0905
 2834WAT      O12041   7.305   0.849   1.140  1.1698  0.0059  0.4180
 2834WAT     H112042   7.254   0.804   1.194 -0.1006  3.1496  2.1239
 2834WAT     H212043   7.250   0.907   1.104  2.7834  0.6936 -1.1069
 2834WAT    EPW12044   7.289   0.851   1.143  0.4411  0.3823 -0.1240
 2835WAT      O12045   5.566   6.666   5.405 -0.0057 -0.3155 -0.2341
 2835WAT     H112046   5.608   6.610   5.457  1.8032  0.8869 -0.3298
 2835WAT     H212047   5.627   6.692   5.349 -1.6013 -0.6621 -2.2684
 2835WAT    EPW12048   5.581   6.661   5.404  0.3550  0.3672  0.6773
 2836WAT      O12049   2.363   0.741   7.696  0.5893  0.2845  0.1587
 2836WAT     H112050   2.364   0.766   7.779 -0.2126  0.6651  0.0670
 2836WAT     H212051   2.359   0.654   7.701  1.6389  0.2427  0.4981
 2836WAT    EPW12052   2.362   0.732   7.709  0.2016  0.3131 -0.3349
 2837WAT      O12053   5.876   3.801   2.029 -0.3254 -0.1618  0.2704
 2837WAT     H112054   5.790   3.789   2.022 -0.5620  1.9601 -2.2246
 2837WAT     H212055   5.882   3.868   2.085 -0.2106 -0.7287  0.9532
 2837WAT    EPW12056   5.864   3.809   2.036  0.0213  0.4023  0.1366
 2838WAT      O12057   2.756   7.869   5.010  0.0280 -0.1372  0.0717
 2838WAT     H112058   2.678   7.908   5.019  0.3795  1.0253 -1.5718
 2838WAT     H212059   2.752   7.831   4.932  1.0749 -0.1269 -0.0047
 2838WAT    EPW12060   2.744   7.869   5.000  1.1381 -0.3947  0.4982
 2839WAT      O12061   5.474   4.850   3.036  0.3968 -0.3296  0.1305
 2839WAT     H112062   5.446   4.783   3.084 -2.6121  0.4476 -0.3073
 2839WAT     H212063   5.483   4.914   3.095  0.9876 -0.4848  0.2186
 2839WAT    EPW12064   5.471   4.850   3.052  0.0047 -0.0604 -0.1165
 2840WAT      O12065   3.581   4.822   2.768 -0.9034 -0.1446  0.4233
 2840WAT     H112066   3.642   4.848   2.825 -0.2114  0.1449 -0.4266
 2840WAT     H212067   3.605   4.740   2.748 -0.1783  0.3222 -0.6916
 2840WAT    EPW12068   3.594   4.813   2.773 -0.6622  0.1438 -0.1057
 2841WAT      O12069   7.642   3.358   3.481 -0.0016  0.7185 -0.2126
 2841WAT     H112070   7.684   3.382   3.408  0.8692  1.4145  0.4964
 2841WAT     H212071   7.705   3.330   3.533 -0.8393 -1.9164 -0.4795
 2841WAT    EPW12072   7.657   3.358   3.478  0.4020 -0.4219 -0.4617
 2842WAT      O12073   8.072   7.381   1.260  0.5739  0.4041  0.6687
 2842WAT     H112074   8.004   7.418   1.300 -1.0787 -0.7393 -0.9583
 2842WAT     H212075   8.112   7.336   1.324 -0.2462  0.9889  1.6143
 2842WAT    EPW12076   8.068   7.380   1.275 -0.5966  0.1855 -0.2365
 2843WAT      O12077   0.211   6.881   4.515 -0.1075  0.1466  0.3716
 2843WAT     H112078   0.173   6.802   4.520  0.7137 -0.2183  1.4245
 2843WAT     H212079   0.296   6.862   4.517  0.0925  1.0633  0.7011
 2843WAT    EPW12080   0.218   6.866   4.516  0.5234 -0.3355  0.1946
 2844WAT      O12081   5.755   4.217   1.203 -0.3011 -0.3791 -0.0130
 2844WAT     H112082   5.812   4.210   1.137  0.8613  0.0604  0.8964
 2844WAT     H212083   5.722   4.137   1.211 -1.7297 -0.0885 -2.1677
 2844WAT    EPW12084   5.759   4.205   1.195  0.1636 -0.0681  0.3356
 2845WAT      O12085   5.495   3.956   7.128  0.4460 -0.0602  0.1905
 2845WAT     H112086   5.581   3.943   7.128  0.4118 -0.3493 -0.6535
 2845WAT     H212087   5.464   3.889   7.081 -0.2017  0.2542  0.1593
 2845WAT    EPW12088   5.503   3.944   7.121 -0.3112  0.1276 -0.1907
 2846WAT      O12089   0.216   5.948   0.885 -0.2167  0.0828 -0.3702
 2846WAT     H112090   0.214   5.866   0.855 -0.2200  0.6593 -2.0105
 2846WAT     H212091   0.293   5.978   0.856 -1.2403  1.3865 -1.8632
 2846WAT    EPW12092   0.227   5.940   0.877 -0.2212 -0.2850  0.3473
 2847WAT      O12093   7.684   5.781   1.408 -0.2296  0.2154  0.3165
 2847WAT     H112094   7.686   5.752   1.326  0.1371  0.3039  0.2933
 2847WAT     H212095   7.609   5.748   1.439 -0.6856  0.7007 -0.2345
 2847WAT    EPW12096   7.673   5.772   1.401  0.0135 -0.3536 -0.4958
 2848WAT      O12097   5.074   0.666   7.391 -0.3318 -0.3116 -0.1346
 2848WAT     H112098   5.016   0.643   7.452 -0.2447 -0.9458 -0.2866
 2848WAT     H212099   5.044   0.627   7.319 -0.3556  0.3185 -0.4671
 2848WAT    EPW12100   5.061   0.657   7.389  0.0603 -0.2343 -0.0548
 2849WAT      O12101   6.186   6.481   0.173  0.2802 -0.4081 -0.5952
 2849WAT     H112102   6.153   6.558   0.152  0.7860 -0.3009 -1.0198
 2849WAT     H212103   6.231   6.497   0.246  1.3834 -0.0319 -1.3391
 2849WAT    EPW12104   6.188   6.495   0.181 -0.2828 -0.1513 -0.3215
 2850WAT      O12105   4.888   4.302   5.653 -1.0522  0.9718  0.4549
 2850WAT     H112106   4.938   4.345   5.710  2.5313 -1.6272 -0.3864
 2850WAT     H212107   4.934   4.304   5.580 -1.8663 -2.0546 -0.2704
 2850WAT    EPW12108   4.902   4.309   5.651  0.0701  0.3041 -0.4310
 2851WAT      O12109   4.248   4.642   2.502  0.2011 -0.0175 -0.1321
 2851WAT     H112110   4.228   4.721   2.532 -3.0641 -0.7485  0.0606
 2851WAT     H212111   4.260   4.654   2.417  1.4094  0.8787  0.1450
 2851WAT    EPW12112   4.247   4.655   2.494  0.3910  0.1812  0.0376
 2852WAT      O12113   3.899   7.792   4.554  0.8545 -0.4807 -0.3071
 2852WAT     H112114   3.866   7.870   4.574  1.6167 -0.4069  0.7542
 2852WAT     H212115   3.861   7.738   4.612  1.8935 -0.5339  0.3540
 2852WAT    EPW12116   3.888   7.796   4.566 -0.1457  0.1162 -0.2797
 2853WAT      O12117   4.744   5.604   3.631  0.1661 -0.1522 -0.2833
 2853WAT     H112118   4.831   5.591   3.631  0.0549 -0.9568 -0.9235
 2853WAT     H212119   4.731   5.651   3.704  1.0764 -0.4689  0.1008
 2853WAT    EPW12120   4.755   5.609   3.642 -0.5249 -0.6291  0.2291
 2854WAT      O12121   5.769   5.361   4.548  0.2279  0.1535 -0.1411
 2854WAT     H112122   5.765   5.375   4.634  1.9868  0.9447 -0.1352
 2854WAT     H212123   5.733   5.432   4.513 -2.7069 -1.1979 -0.1235
 2854WAT    EPW12124   5.763   5.373   4.555  0.0880 -0.8331 -0.4232
 2855WAT      O12125   3.999   6.893   3.196  0.5466 -0.1879  0.0792
 2855WAT     H112126   4.025   6.828   3.144  1.4675 -0.9645  1.4240
 2855WAT     H212127   3.937   6.856   3.245 -1.7937  1.0991 -1.7395
 2855WAT    EPW12128   3.994   6.878   3.196 -0.0997  0.2598 -0.0361
 2856WAT      O12129   4.879   0.814   4.080 -0.5851 -0.8793 -0.2310
 2856WAT     H112130   4.831   0.836   4.149 -0.3592  0.3362 -0.4403
 2856WAT     H212131   4.822   0.811   4.015 -0.5342 -0.3103 -0.3092
 2856WAT    EPW12132   4.864   0.817   4.081 -0.2010 -0.5779  0.0735
 2857WAT      O12133   5.076   7.539   3.900  0.6379 -0.2475  0.1597
 2857WAT     H112134   5.005   7.552   3.851  0.2315  0.2126  0.8483
 2857WAT     H212135   5.044   7.522   3.979  1.2691 -1.4686  0.1824
 2857WAT    EPW12136   5.061   7.538   3.904 -0.9283 -0.1397 -0.2671
 2858WAT      O12137   7.757   4.598   1.798  0.3570 -0.0293  0.2626
 2858WAT     H112138   7.799   4.546   1.741 -0.2373 -0.8503  0.5575
 2858WAT     H212139   7.811   4.601   1.866  0.9144  0.6766 -0.1975
 2858WAT    EPW12140   7.771   4.590   1.799 -0.6778  0.4902  0.2259
 2859WAT      O12141   0.147   1.457   4.596  0.3125 -0.6030 -0.7555
 2859WAT     H112142   0.085   1.452   4.657 -0.1797 -1.1721 -1.2765
 2859WAT     H212143   0.215   1.416   4.633 -0.4074 -2.1483 -1.0649
 2859WAT    EPW12144   0.148   1.450   4.610  0.3633  0.1799 -0.5563
 2860WAT      O12145   6.513   1.238   2.690 -0.2576  0.1521 -0.1168
 2860WAT     H112146   6.583   1.207   2.648 -0.9762  1.1853 -2.1921
 2860WAT     H212147   6.472   1.166   2.718  1.0336 -0.4956  0.1936
 2860WAT    EPW12148   6.517   1.223   2.688 -0.2839  0.1810  0.7358
 2861WAT      O12149   3.502   3.506   1.887 -0.7556  0.2965  0.9002
 2861WAT     H112150   3.584   3.493   1.912 -0.4565  0.1072 -0.1317
 2861WAT     H212151   3.463   3.430   1.904 -0.0967 -0.4916 -0.9249
 2861WAT    EPW12152   3.508   3.493   1.893  1.0238 -0.3357 -0.4560
 2862WAT      O12153   8.084   7.681   1.412  0.0260  0.5415  0.1305
 2862WAT     H112154   8.093   7.766   1.431  0.9880  0.6092 -0.6135
 2862WAT     H212155   8.024   7.655   1.470  0.3148  1.5378  0.9148
 2862WAT    EPW12156   8.076   7.690   1.424 -0.1923  0.3451  0.0586
 2863WAT      O12157   4.275   7.038   4.184 -0.7409 -0.0173 -0.5556
 2863WAT     H112158   4.304   7.090   4.120  2.2010 -0.9678 -0.1484
 2863WAT     H212159   4.291   6.958   4.153  0.7735 -0.5009  1.3034
 2863WAT    EPW12160   4.282   7.034   4.170 -0.2168  0.1994 -0.2184
 2864WAT      O12161   4.514   5.097   2.474 -0.0286 -0.1588 -0.5450
 2864WAT     H112162   4.569   5.048   2.427  1.4441  0.3453  0.5760
 2864WAT     H212163   4.445   5.106   2.421  0.8581 -1.0010 -1.9304
 2864WAT    EPW12164   4.512   5.091   2.459 -0.0776  0.1558  0.0599
 2865WAT      O12165   7.961   5.329   3.543  0.6608 -0.2102 -0.3289
 2865WAT     H112166   7.940   5.414   3.545  0.2814 -0.3128  0.8768
 2865WAT     H212167   7.932   5.303   3.466 -1.5133  0.2179  0.2726
 2865WAT    EPW12168   7.954   5.338   3.532 -0.1109 -0.2821 -0.3480
 2866WAT      O12169   2.476   6.084   3.835 -0.1515  0.2695  0.0105
 2866WAT     H112170   2.419   6.139   3.872 -0.1944  1.7409 -2.0919
 2866WAT     H212171   2.539   6.077   3.895 -1.9224 -0.4950  1.9223
 2866WAT    EPW12172   2.477   6.091   3.850  0.1888 -0.4357  0.4736
 2867WAT      O12173   5.747   6.850   2.462 -0.0689 -0.0325  0.4316
 2867WAT     H112174   5.833   6.858   2.449 -0.2733 -1.6169 -3.0505
 2867WAT     H212175   5.714   6.920   2.420 -0.5180 -0.0697  0.7191
 2867WAT    EPW12176   5.755   6.862   2.454 -0.2031  0.2420  0.2950
 2868WAT      O12177   6.121   5.636   0.671 -0.4660  0.4389  0.1825
 2868WAT     H112178   6.178   5.665   0.730 -0.2492 -0.7136  0.5623
 2868WAT     H212179   6.149   5.670   0.596  0.4149  0.3161  0.4466
 2868WAT    EPW12180   6.133   5.645   0.668 -0.7749  0.4004  0.2321
 2869WAT      O12181   1.260   4.016   4.715 -0.0524  0.4250  0.8241
 2869WAT     H112182   1.266   4.100   4.736 -1.1178  0.2380  2.0390
 2869WAT     H212183   1.174   4.005   4.701  0.2165 -0.2117 -0.5118
 2869WAT    EPW12184   1.248   4.027   4.716  0.2994 -0.1561 -0.3322
 2870WAT      O12185   2.165   3.004   6.160  0.0442 -0.2871 -0.7687
 2870WAT     H112186   2.210   3.051   6.102  1.0264  0.1001  0.2764
 2870WAT     H212187   2.210   3.014   6.234 -1.9518  0.4161  0.4165
 2870WAT    EPW12188   2.178   3.012   6.162 -0.1004 -0.9064  0.3815
 2871WAT      O12189   5.491   1.680   3.017 -0.4069  0.1084  0.1792
 2871WAT     H112190   5.436   1.699   2.952 -0.8993 -1.0924  0.2196
 2871WAT     H212191   5.569   1.677   2.978 -0.5194  0.6751 -0.1020
 2871WAT    EPW12192   5.495   1.683   3.002 -0.0671 -0.0256  0.6420
 2872WAT      O12193   4.153   6.710   4.462 -0.3434  0.3939  0.3231
 2872WAT     H112194   4.103   6.780   4.445 -1.0770 -0.3527 -0.7426
 2872WAT     H212195   4.158   6.709   4.549  0.3065  2.1866  0.3558
 2872WAT    EPW12196   4.146   6.720   4.472  0.1335 -0.1212  0.4484
 2873WAT      O12197   6.540   3.801   4.070  0.3058 -0.0765  0.0455
 2873WAT     H112198   6.600   3.863   4.059  1.2133 -0.6666  1.3610
 2873WAT     H212199   6.566   3.760   4.143 -1.7566 -0.3057  0.7088
 2873WAT    EPW12200   6.553   3.804   4.080  0.0442 -0.2890 -0.2276
 2874WAT      O12201   3.886   1.952   5.245  0.5925  0.9725  0.2582
 2874WAT     H112202   3.921   1.981   5.171  1.5717 -1.7545 -0.4716
 2874WAT     H212203   3.896   2.018   5.301  2.7391  1.9565 -1.1883
 2874WAT    EPW12204   3.892   1.966   5.242 -0.3640  0.1876 -0.1223
 2875WAT      O12205   0.762   3.732   2.302 -0.2591  0.3574  0.2740
 2875WAT     H112206   0.742   3.804   2.258  1.4568  0.8636  0.2367
 2875WAT     H212207   0.837   3.752   2.342  0.6858 -1.6194 -0.3314
 2875WAT    EPW12208   0.770   3.745   2.301  0.2215 -0.3178 -0.1390
 2876WAT      O12209   5.718   4.677   4.509 -0.0224 -0.3818  0.2596
 2876WAT     H112210   5.776   4.659   4.446 -0.8292  0.5732 -0.8052
 2876WAT     H212211   5.644   4.691   4.465 -0.3438  1.5466  1.2870
 2876WAT    EPW12212   5.716   4.677   4.493 -0.3370  0.1201 -0.4301
 2877WAT      O12213   2.546   8.007   4.438 -0.1776  0.1193  0.2514
 2877WAT     H112214   2.572   7.924   4.429 -0.8365  0.0667 -1.3227
 2877WAT     H212215   2.492   8.004   4.507 -1.1044 -0.9908 -0.4931
 2877WAT    EPW12216   2.542   7.994   4.447 -0.1606 -0.2250  0.2140
 2878WAT      O12217   6.096   5.511   3.557  0.1245 -0.0230 -0.1785
 2878WAT     H112218   6.127   5.592   3.560 -1.4751  0.6999 -1.2211
 2878WAT     H212219   6.035   5.510   3.619 -0.4805 -0.1183 -0.7588
 2878WAT    EPW12220   6.091   5.523   3.567  0.2417  0.1615  0.0036
 2879WAT      O12221   1.744   6.484   2.823  0.4224 -0.1980 -0.1054
 2879WAT     H112222   1.761   6.433   2.754 -2.5900  1.0676 -1.9987
 2879WAT     H212223   1.822   6.519   2.842  1.5609 -1.3680 -2.1981
 2879WAT    EPW12224   1.758   6.481   2.815 -0.7866  0.2877 -0.5906
 2880WAT      O12225   6.065   4.992   1.742  0.3128  0.6004 -0.3775
 2880WAT     H112226   6.149   5.017   1.745  0.6769 -0.5931  0.0448
 2880WAT     H212227   6.069   4.915   1.701 -0.1243 -1.1373  2.6085
 2880WAT    EPW12228   6.078   4.985   1.736  0.2010  0.3566 -0.0819
 2881WAT      O12229   8.046   8.002   4.525  0.1766  0.0416 -0.7947
 2881WAT     H112230   8.078   8.082   4.512  0.1945 -0.0531 -1.3997
 2881WAT     H212231   8.112   7.950   4.503  0.1027 -0.1385 -0.5889
 2881WAT    EPW12232   8.060   8.006   4.520  0.2356  0.1547  0.4132
 2882WAT      O12233   1.301   3.748   4.926 -0.0966  0.1346 -0.6873
 2882WAT     H112234   1.291   3.778   5.007  1.3659  0.2781 -0.5198
 2882WAT     H212235   1.220   3.739   4.896 -0.7010 -0.8396  1.1257
 2882WAT    EPW12236   1.288   3.751   4.933 -0.1056  0.3174 -0.2907
 2883WAT      O12237   0.961   3.389   5.156  0.6945 -0.1365  0.2779
 2883WAT     H112238   0.928   3.468   5.141  0.5800 -0.4666 -1.4142
 2883WAT     H212239   0.891   3.339   5.172  0.8044  0.1789  1.9259
 2883WAT    EPW12240   0.946   3.393   5.156 -0.5149 -0.7984 -0.5124
 2884WAT      O12241   5.287   6.677   5.381 -0.4395 -0.4139  0.2427
 2884WAT     H112242   5.240   6.615   5.422  0.8930 -2.7948 -1.6100
 2884WAT     H212243   5.369   6.652   5.393  0.0879  0.3167 -1.5281
 2884WAT    EPW12244   5.292   6.664   5.389 -0.4911  0.1553 -0.7052
 2885WAT      O12245   5.516   1.515   7.827  0.0069 -0.3175  0.6053
 2885WAT     H112246   5.505   1.527   7.742 -0.4690 -0.3200  0.6652
 2885WAT     H212247   5.440   1.481   7.853 -0.5526  1.3786  1.3476
 2885WAT    EPW12248   5.503   1.512   7.818 -0.0515 -0.1379  0.3613
 2886WAT      O12249   3.926   0.836   2.767  0.1391  0.5515 -0.1465
 2886WAT     H112250   3.900   0.779   2.828  1.2804  1.5765  1.3652
 2886WAT     H212251   3.851   0.861   2.728 -0.7815  0.8644  1.7323
 2886WAT    EPW12252   3.911   0.831   2.770 -0.1790 -0.6052  0.2339
 2887WAT      O12253   6.542   6.263   3.971 -0.1412  0.4034  0.1213
 2887WAT     H112254   6.603   6.231   3.917 -2.0743 -0.1453 -1.9084
 2887WAT     H212255   6.520   6.339   3.934 -1.9498 -0.2769 -0.3468
 2887WAT    EPW12256   6.547   6.270   3.957 -0.3899  0.1087  0.1894
 2888WAT      O12257   6.527   7.855   4.786  0.1268 -0.3423  0.0009
 2888WAT     H112258   6.582   7.917   4.814 -0.2288 -0.1260  0.2187
 2888WAT     H212259   6.492   7.824   4.859 -0.2713 -0.2702 -0.1598
 2888WAT    EPW12260   6.530   7.860   4.801 -0.3161  0.1529  0.5754
 2889WAT      O12261   1.439   4.882   3.107 -0.2434  0.0495 -0.6114
 2889WAT     H112262   1.471   4.865   3.186  0.3104  0.0952 -0.8248
 2889WAT     H212263   1.451   4.968   3.097  0.6544 -0.1273 -1.1617
 2889WAT    EPW12264   1.445   4.892   3.117  0.3508 -0.1209  0.1884
 2890WAT      O12265   1.171   0.186   4.156  0.8867 -0.0411  0.3571
 2890WAT     H112266   1.226   0.211   4.093  1.7804  0.7702  1.3922
 2890WAT     H212267   1.144   0.108   4.131  0.3834  0.6845 -1.5343
 2890WAT    EPW12268   1.175   0.178   4.143 -0.0759  0.8674  0.2379
 2891WAT      O12269   0.886   6.001   3.920  0.7942  0.1433 -0.0463
 2891WAT     H112270   0.801   6.016   3.909  0.7522 -0.4600 -0.6360
 2891WAT     H212271   0.889   5.917   3.943  1.2869 -0.1221 -1.0364
 2891WAT    EPW12272   0.874   5.991   3.922  0.3899  0.2037  0.0223
 2892WAT      O12273   4.789   1.748   6.739 -0.1176  0.3747  0.3134
 2892WAT     H112274   4.826   1.793   6.674  0.8328 -0.9816 -0.1248
 2892WAT     H212275   4.712   1.724   6.706 -0.2534  0.8956  0.2346
 2892WAT    EPW12276   4.783   1.751   6.725  0.4695  0.3578 -0.1567
 2893WAT      O12277   4.696   7.910   8.028 -0.2903 -0.0222 -0.6565
 2893WAT     H112278   4.671   7.992   8.011  0.4530 -0.0111 -1.8333
 2893WAT     H212279   4.643   7.885   8.093  0.0147  1.6649  0.2908
 2893WAT    EPW12280   4.684   7.919   8.035 -0.1834 -0.0208 -0.1999
 2894WAT      O12281   6.011   4.963   2.778 -0.0722  0.4586  0.0546
 2894WAT     H112282   6.028   4.901   2.719  1.5730  0.0124  0.9473
 2894WAT     H212283   6.088   4.975   2.818 -1.1849  0.5063  2.3233
 2894WAT    EPW12284   6.025   4.955   2.775 -0.9032 -0.2340 -0.4281
 2895WAT      O12285   5.256   5.528   4.636  0.0176 -0.4800 -0.2858
 2895WAT     H112286   5.320   5.478   4.604 -0.3945 -0.5510 -1.0203
 2895WAT     H212287   5.185   5.500   4.594 -0.8108 -1.5115  1.6518
 2895WAT    EPW12288   5.255   5.516   4.625 -0.5338 -0.3548 -0.1363
 2896WAT      O12289   4.826   5.536   1.587 -0.0654  0.0869  0.2922
 2896WAT     H112290   4.827   5.527   1.673  1.7185  0.6201  0.3685
 2896WAT     H212291   4.896   5.490   1.561  0.8097  1.8649 -0.6257
 2896WAT    EPW12292   4.837   5.528   1.596  0.1840 -0.2757 -0.3002
 2897WAT      O12293   6.391   6.462   1.566  0.2380 -0.0004  0.5167
 2897WAT     H112294   6.446   6.522   1.533  0.7943 -1.0064 -0.4418
 2897WAT     H212295   6.325   6.462   1.510 -0.0835  0.1860  0.8907
 2897WAT    EPW12296   6.390   6.471   1.553 -0.4611 -0.1611 -0.1884
 2898WAT      O12297   6.053   0.316   3.244  0.5731  0.5543  0.9076
 2898WAT     H112298   6.015   0.265   3.304 -0.9714  1.9880  1.2145
 2898WAT     H212299   5.991   0.326   3.183  1.1879  1.2672  0.3794
 2898WAT    EPW12300   6.038   0.310   3.244  0.2273 -0.6131  0.2718
 2899WAT      O12301   5.680   7.628   3.432  0.7126 -0.4940  0.4283
 2899WAT     H112302   5.654   7.699   3.390 -0.5204 -0.3407  1.4002
 2899WAT     H212303   5.696   7.570   3.368 -1.7482 -0.5034 -0.2911
 2899WAT    EPW12304   5.679   7.630   3.417  0.3181  0.4977 -0.2225
 2900WAT      O12305   5.742   5.207   7.982  0.3179 -0.2087 -0.2991
 2900WAT     H112306   5.697   5.153   7.930 -0.5115 -1.0412  1.2299
 2900WAT     H212307   5.698   5.206   8.057  1.2316  1.3062  0.3140
 2900WAT    EPW12308   5.729   5.199   7.985  0.1279  0.6770 -0.5789
 2901WAT      O12309   5.485   3.783   2.423  0.0799 -0.1169  0.3248
 2901WAT     H112310   5.410   3.741   2.437  1.0795 -1.3630  2.3569
 2901WAT     H212311   5.508   3.810   2.502  1.8606  0.1003 -0.2237
 2901WAT    EPW12312   5.477   3.781   2.437 -0.1560 -0.1725 -0.1245
 2902WAT      O12313   6.241   6.448   5.099  0.1704 -0.1740  0.5802
 2902WAT     H112314   6.308   6.499   5.077  1.2186 -0.9312  1.8523
 2902WAT     H212315   6.197   6.496   5.157  1.1389 -0.6248  1.7524
 2902WAT    EPW12316   6.244   6.462   5.104  0.0751  0.0655  0.9768
 2903WAT      O12317   5.936   0.101   4.950  0.2738 -0.2613  0.7721
 2903WAT     H112318   5.910   0.134   4.874 -0.2324  1.8548  1.7867
 2903WAT     H212319   6.008   0.056   4.930 -1.1565 -1.7801 -1.2738
 2903WAT    EPW12320   5.943   0.099   4.936  0.2045 -0.3064 -0.4309
 2904WAT      O12321   6.176   4.884   2.541 -0.2703  0.2309 -0.1214
 2904WAT     H112322   6.133   4.938   2.488 -0.4749 -0.6384 -0.8872
 2904WAT     H212323   6.130   4.810   2.535 -1.1560  0.5012  2.4271
 2904WAT    EPW12324   6.163   4.881   2.532  0.2519  0.0301  0.1635
 2905WAT      O12325   5.134   2.124   5.450  0.2176  0.4383  0.2040
 2905WAT     H112326   5.108   2.206   5.437  2.2631  1.0702 -0.2165
 2905WAT     H212327   5.079   2.077   5.400  0.0435  1.6967 -0.8421
 2905WAT    EPW12328   5.122   2.129   5.441 -0.0489 -0.1743 -0.3545
 2906WAT      O12329   0.253   5.142   2.084 -0.4514 -0.3584 -0.1025
 2906WAT     H112330   0.236   5.205   2.142 -0.0809 -0.2663 -0.0932
 2906WAT     H212331   0.216   5.072   2.119  0.3279 -0.4510  0.5782
 2906WAT    EPW12332   0.245   5.141   2.097 -0.0405 -0.0969 -0.4199
 2907WAT      O12333   4.548   5.967   2.895  0.0260 -0.1772 -0.9813
 2907WAT     H112334   4.597   5.896   2.881  2.1362  1.1230 -0.7021
 2907WAT     H212335   4.515   5.985   2.816 -0.7203 -1.5354 -1.0203
 2907WAT    EPW12336   4.550   5.959   2.881  0.4645 -0.5626  0.0975
 2908WAT      O12337   7.539   7.098   1.353  0.0149 -0.5454 -0.2329
 2908WAT     H112338   7.575   7.049   1.290  1.5377 -1.1067  0.9946
 2908WAT     H212339   7.565   7.179   1.334  0.3493 -0.6914 -0.4093
 2908WAT    EPW12340   7.548   7.102   1.341 -0.1713  0.3705  0.0406
 2909WAT      O12341   4.360   7.965   7.096  0.0042 -0.4829  0.1721
 2909WAT     H112342   4.401   7.913   7.153 -1.5927 -1.1885  0.7536
 2909WAT     H212343   4.312   7.910   7.049  0.2823  0.2336 -0.9867
 2909WAT    EPW12344   4.359   7.949   7.097 -0.4500  0.3146 -0.0528
 2910WAT      O12345   4.216   6.532   0.597  0.3043  0.2378  0.5583
 2910WAT     H112346   4.229   6.448   0.578  0.0183  0.0728  1.0966
 2910WAT     H212347   4.226   6.572   0.520  0.8280 -0.2430  0.3735
 2910WAT    EPW12348   4.220   6.525   0.583  0.3874 -0.2015 -0.1798
 2911WAT      O12349   5.242   6.842   0.039  0.1406  0.1891 -0.0361
 2911WAT     H112350   5.292   6.911   0.054  2.2748 -1.3607  0.3778
 2911WAT     H212351   5.278   6.804  -0.030 -0.5679 -0.8773  0.1415
 2911WAT    EPW12352   5.255   6.847   0.031  0.1588  0.0797 -0.2526
 2912WAT      O12353   5.267   1.126   0.025  0.0110  0.1150  0.7253
 2912WAT     H112354   5.203   1.185   0.034 -0.5322 -0.6443  2.0039
 2912WAT     H212355   5.333   1.160   0.071  0.8500  1.2731 -1.2193
 2912WAT    EPW12356   5.267   1.140   0.033 -0.0457  0.3042  0.8993
 2913WAT      O12357   5.906   4.109   0.220  0.3284  0.0760  0.4255
 2913WAT     H112358   5.954   4.130   0.150 -0.6400  0.1934 -0.2393
 2913WAT     H212359   5.853   4.178   0.229 -0.6936 -0.6554  0.2219
 2913WAT    EPW12360   5.905   4.122   0.211  0.0692  0.3219  0.6533
 2914WAT      O12361   1.886   0.946   2.999 -0.4493 -0.6668 -0.0714
 2914WAT     H112362   1.906   1.030   3.009 -0.3579 -0.5338 -1.2490
 2914WAT     H212363   1.877   0.937   2.913 -2.6668 -1.3804  0.1853
 2914WAT    EPW12364   1.888   0.957   2.988  0.7774  0.0396  0.2054
 2915WAT      O12365   8.029   5.549   4.500 -0.4474 -0.0676 -0.2289
 2915WAT     H112366   8.050   5.491   4.561 -1.0511 -0.4251 -0.3603
 2915WAT     H212367   8.050   5.626   4.537  0.1708 -0.3489  0.0165
 2915WAT    EPW12368   8.035   5.552   4.515 -0.0294  0.3295  0.1532
 2916WAT      O12369   5.549   0.210   2.749  0.0412  0.0319  0.3786
 2916WAT     H112370   5.557   0.232   2.833  0.7256  0.2408  0.2646
 2916WAT     H212371   5.482   0.155   2.748  1.1678 -1.4159  1.3262
 2916WAT    EPW12372   5.540   0.205   2.761  0.3503 -0.5876  0.0412
 2917WAT      O12373   7.604   2.151   3.172 -0.0680 -0.2145 -0.1705
 2917WAT     H112374   7.528   2.158   3.216 -0.9565 -0.1246 -1.6543
 2917WAT     H212375   7.632   2.233   3.167 -2.9934  0.8472 -4.7599
 2917WAT    EPW12376   7.597   2.164   3.178  0.6486  0.5113  0.2129
 2918WAT      O12377   2.918   0.057   3.036  0.3630 -0.0075  0.1394
 2918WAT     H112378   2.896   0.002   3.100 -0.3753 -1.6774 -1.4477
 2918WAT     H212379   3.005   0.057   3.037  0.4043 -1.7477 -0.1966
 2918WAT    EPW12380   2.927   0.049   3.045  0.1293 -0.3243  0.1538
 2919WAT      O12381   4.808   0.412   3.268  0.3169  0.5731 -0.0750
 2919WAT     H112382   4.807   0.352   3.205 -2.2024  1.0398 -0.5755
 2919WAT     H212383   4.770   0.372   3.336  0.3537  1.0026  0.2037
 2919WAT    EPW12384   4.803   0.397   3.269 -0.2437 -0.0677 -0.4290
 2920WAT      O12385   8.030   1.752   3.600 -0.5887 -0.2940 -0.1390
 2920WAT     H112386   8.080   1.810   3.642  4.0137 -2.7736 -1.4821
 2920WAT     H212387   7.995   1.798   3.535  0.5649  1.5153  0.4490
 2920WAT    EPW12388   8.032   1.767   3.597 -0.0500 -0.7613 -0.1398
 2921WAT      O12389   2.080   7.170   1.709 -0.6128  0.1437  0.0963
 2921WAT     H112390   2.021   7.222   1.747 -0.5310  0.2329  0.1004
 2921WAT     H212391   2.032   7.121   1.655 -0.6011  0.6748 -0.4026
 2921WAT    EPW12392   2.064   7.170   1.707 -0.5425 -0.0492  0.5215
 2922WAT      O12393   6.492   5.039   0.563  0.5762  0.0325 -0.4813
 2922WAT     H112394   6.536   5.114   0.550  2.0017 -0.7854 -0.5723
 2922WAT     H212395   6.451   5.026   0.487  0.9430  0.3278 -0.7365
 2922WAT    EPW12396   6.493   5.048   0.550  0.0422  0.1341  0.1920
 2923WAT      O12397   4.052   7.459   2.044 -0.2946 -0.0658 -0.1035
 2923WAT     H112398   4.014   7.519   1.994 -0.1337  2.0518  2.0818
 2923WAT     H212399   4.136   7.483   2.044  0.0482 -1.2332 -0.3961
 2923WAT    EPW12400   4.059   7.471   2.037  0.1705 -0.6573 -0.5702
 2924WAT      O12401   6.059   7.390   3.400 -0.3821 -0.2677 -0.2590
 2924WAT     H112402   6.094   7.376   3.478  1.8105 -1.5766 -1.3708
 2924WAT     H212403   6.094   7.467   3.376 -0.4806 -0.2218 -0.2575
 2924WAT    EPW12404   6.069   7.399   3.408  0.4566 -0.2545  0.1270
 2925WAT      O12405   5.428   6.794   1.104 -0.2640 -0.0486 -0.0767
 2925WAT     H112406   5.502   6.795   1.149 -0.1131  1.6702 -0.2962
 2925WAT     H212407   5.452   6.815   1.023 -1.0966  2.3296  0.1814
 2925WAT    EPW12408   5.442   6.798   1.099 -0.4546  0.1194  0.5840
 2926WAT      O12409   2.828   5.747   6.623  0.1686  0.5811 -0.7029
 2926WAT     H112410   2.905   5.736   6.661  0.6148 -1.0546 -1.9710
 2926WAT     H212411   2.847   5.788   6.548 -0.2247  0.4405 -0.8859
 2926WAT    EPW12412   2.842   5.751   6.618 -0.1195 -0.6036  0.0116
 2927WAT      O12413   3.027   7.795   0.247 -0.0881 -0.4326 -0.5790
 2927WAT     H112414   3.006   7.742   0.312 -1.5839 -1.3679 -1.7645
 2927WAT     H212415   3.001   7.752   0.176  0.0303  1.2243 -1.6846
 2927WAT    EPW12416   3.020   7.781   0.246 -0.1136  0.2508 -0.0150
 2928WAT      O12417   7.160   3.292   3.184 -0.2412  0.2962 -0.6833
 2928WAT     H112418   7.212   3.248   3.240 -1.3360 -1.6258 -1.0905
 2928WAT     H212419   7.131   3.359   3.232 -0.8572 -1.0961  1.0100
 2928WAT    EPW12420   7.163   3.295   3.200 -0.0123  0.4700 -0.1118
 2929WAT      O12421   1.417   4.829   5.676  0.0384 -0.3319  0.0075
 2929WAT     H112422   1.367   4.784   5.621  0.2543 -1.3639  0.6152
 2929WAT     H212423   1.494   4.831   5.636 -0.3217  0.7602 -0.6682
 2929WAT    EPW12424   1.421   4.823   5.662  0.1958 -0.2518  1.1170
 2930WAT      O12425   2.881   0.735   0.428  0.1507  0.0948 -0.2407
 2930WAT     H112426   2.969   0.735   0.423  0.1916  0.2613  0.3758
 2930WAT     H212427   2.866   0.741   0.513 -0.4519  3.3771 -0.4700
 2930WAT    EPW12428   2.892   0.736   0.440 -0.1190  0.1123  0.4887
 2931WAT      O12429   4.741   4.239   4.210 -0.3197  0.2754 -0.2376
 2931WAT     H112430   4.707   4.162   4.232 -1.0651  0.4210 -0.8119
 2931WAT     H212431   4.737   4.238   4.123  1.7320  0.0616 -0.3780
 2931WAT    EPW12432   4.735   4.228   4.200 -0.0037  0.4847  0.2722
 2932WAT      O12433   7.902   1.287   1.027 -0.0432 -0.1076  0.3581
 2932WAT     H112434   7.982   1.253   1.041 -0.4994 -1.6548 -0.5524
 2932WAT     H212435   7.849   1.219   1.037 -1.1304  0.6196 -0.3168
 2932WAT    EPW12436   7.906   1.272   1.030 -0.1260 -0.2127 -0.1357
 2933WAT      O12437   1.198   0.439   2.079 -0.0267  0.0962  0.0301
 2933WAT     H112438   1.210   0.495   2.013  0.6717 -1.3104 -1.1131
 2933WAT     H212439   1.121   0.403   2.061 -1.7890  2.4502  2.2063
 2933WAT    EPW12440   1.188   0.442   2.066 -0.0859  0.4324 -0.1530
 2934WAT      O12441   1.729   4.739   3.553  0.1056 -0.4740  0.1854
 2934WAT     H112442   1.742   4.824   3.535 -2.8191  0.1039  0.3567
 2934WAT     H212443   1.749   4.733   3.638  0.2194  0.0946  0.2032
 2934WAT    EPW12444   1.734   4.751   3.563  0.4013 -0.4101 -0.6167
 2935WAT      O12445   6.364   0.903   4.499  0.5723 -0.4669  0.2536
 2935WAT     H112446   6.288   0.947   4.497  1.2315  0.6921 -0.7631
 2935WAT     H212447   6.378   0.883   4.415  2.3996  1.1807  0.1122
 2935WAT    EPW12448   6.355   0.906   4.486  0.2798 -0.1523 -0.5791
 2936WAT      O12449   3.449   6.715   4.543 -0.4522  0.1746  0.0622
 2936WAT     H112450   3.445   6.638   4.504 -0.5080  0.3830 -0.3516
 2936WAT     H212451   3.469   6.696   4.626 -0.6381 -0.2900  0.0007
 2936WAT    EPW12452   3.451   6.701   4.550  0.1336 -0.3158 -0.1441
 2937WAT      O12453   4.774   7.004   3.888 -0.5319  0.1899 -0.1262
 2937WAT     H112454   4.695   7.029   3.915 -0.2484  2.9226 -1.4805
 2937WAT     H212455   4.824   7.073   3.904  1.5985 -1.3731  0.4758
 2937WAT    EPW12456   4.770   7.018   3.894  0.0773  0.0073 -0.1422
 2938WAT      O12457   4.161   4.597   4.149  0.3030  0.4189 -0.3062
 2938WAT     H112458   4.134   4.543   4.211 -0.8636  0.1874 -0.9799
 2938WAT     H212459   4.198   4.663   4.193 -2.0581  1.1194  0.7470
 2938WAT    EPW12460   4.163   4.599   4.164  0.2027  0.0669 -0.1223
 2939WAT      O12461   4.675   3.779   1.869  0.1302 -0.1221 -0.0659
 2939WAT     H112462   4.689   3.719   1.807 -0.5900  0.5023 -0.8566
 2939WAT     H212463   4.645   3.848   1.825 -0.0410  0.4717  0.9422
 2939WAT    EPW12464   4.673   3.780   1.853 -0.3895 -0.4046  0.2097
 2940WAT      O12465   0.853   0.304   1.034 -0.1034  0.4078 -0.5209
 2940WAT     H112466   0.826   0.246   0.976 -2.7567  0.2027  0.7935
 2940WAT     H212467   0.780   0.345   1.059  1.3634  2.7499  0.2768
 2940WAT    EPW12468   0.839   0.301   1.029  0.4970 -0.4431  0.1021
 2941WAT      O12469   5.687   6.899   3.645  0.4780  0.5581  0.1542
 2941WAT     H112470   5.692   6.984   3.627  0.1425  0.5526  0.0263
 2941WAT     H212471   5.602   6.887   3.662  0.6356  0.3930  0.8796
 2941WAT    EPW12472   5.675   6.910   3.645  0.4852  0.4176 -0.3534
 2942WAT      O12473   5.486   6.223   3.866  0.1515  0.0664 -0.2319
 2942WAT     H112474   5.555   6.250   3.820  0.7193 -0.3498  0.3606
 2942WAT     H212475   5.418   6.251   3.819  0.7131 -0.3433 -1.3188
 2942WAT    EPW12476   5.486   6.231   3.852  0.0341 -0.3350  0.7280
 2943WAT      O12477   6.320   7.425   7.274 -0.2017 -0.6331 -0.4806
 2943WAT     H112478   6.400   7.400   7.299 -0.1202  0.5803  0.5335
 2943WAT     H212479   6.334   7.499   7.230 -0.6350 -1.2970 -1.8157
 2943WAT    EPW12480   6.334   7.432   7.271 -0.4583 -0.0954  0.2685
 2944WAT      O12481   2.990   3.886   1.852  0.0961  0.3864  0.0758
 2944WAT     H112482   2.914   3.859   1.818  0.6694 -0.9194 -0.2389
 2944WAT     H212483   3.017   3.947   1.796  0.2662 -0.6238 -0.9949
 2944WAT    EPW12484   2.983   3.891   1.839 -0.7965 -0.2322 -0.1250
 2945WAT      O12485   5.987   5.073   0.603  0.4262 -0.0755 -0.0430
 2945WAT     H112486   6.072   5.078   0.624  0.2640 -0.1489  0.6521
 2945WAT     H212487   5.975   4.987   0.590  0.9397  0.1356 -2.2685
 2945WAT    EPW12488   5.998   5.061   0.605 -0.3015  0.0893 -0.1548
 2946WAT      O12489   1.889   4.656   7.863 -0.0599 -0.2969 -0.4227
 2946WAT     H112490   1.936   4.695   7.801  1.0705  0.4866  0.9007
 2946WAT     H212491   1.891   4.712   7.929  0.3428 -1.9230  1.0015
 2946WAT    EPW12492   1.896   4.670   7.863  0.1870  0.3017 -0.3571
 2947WAT      O12493   4.496   8.028   1.703 -0.3482  0.0362 -0.3814
 2947WAT     H112494   4.485   7.958   1.755  2.0657 -0.6574 -0.6736
 2947WAT     H212495   4.512   8.093   1.759  0.3274 -0.2977 -0.1800
 2947WAT    EPW12496   4.497   8.027   1.719  0.0481 -0.1940 -0.2028
 2948WAT      O12497   6.624   3.089   1.781  0.2462 -0.0584 -0.4045
 2948WAT     H112498   6.617   3.111   1.865 -0.9751  0.3887 -0.6143
 2948WAT     H212499   6.711   3.090   1.768  0.4512 -0.0166  0.8072
 2948WAT    EPW12500   6.636   3.092   1.792 -0.4262 -0.1687 -0.2439
 2949WAT      O12501   2.490   5.459   0.179  0.2565  0.2787  0.0565
 2949WAT     H112502   2.488   5.534   0.134  0.4969  1.4204  1.8543
 2949WAT     H212503   2.471   5.483   0.261  2.0522 -1.3733  1.0424
 2949WAT    EPW12504   2.487   5.474   0.184 -0.3912  0.3266  0.4081
 2950WAT      O12505   2.667   5.011   4.972  0.0979  0.3923  0.0577
 2950WAT     H112506   2.741   4.995   5.016  0.5783  0.0123 -0.8641
 2950WAT     H212507   2.652   4.936   4.930 -0.5378  0.6383 -0.1565
 2950WAT    EPW12508   2.676   4.998   4.973  0.6766 -1.1022 -0.0586
 2951WAT      O12509   7.399   0.314   4.482 -0.1379  0.1420  0.2238
 2951WAT     H112510   7.479   0.337   4.455  1.3096 -1.3380  2.9246
 2951WAT     H212511   7.365   0.389   4.512  0.8568  0.4727  0.5313
 2951WAT    EPW12512   7.405   0.329   4.482  0.3192  0.4423  0.6857
 2952WAT      O12513   6.950   3.274   0.801 -0.0292  0.1833 -0.2048
 2952WAT     H112514   6.938   3.214   0.739  0.3442 -0.2329  0.1160
 2952WAT     H212515   6.927   3.349   0.762 -0.5543 -0.1686 -0.5945
 2952WAT    EPW12516   6.945   3.276   0.786 -0.3682 -0.2270  0.4268
 2953WAT      O12517   5.978   4.372   6.939 -0.6870 -0.2434  0.0493
 2953WAT     H112518   5.967   4.456   6.922  0.6089  0.1359  0.9630
 2953WAT     H212519   6.029   4.345   6.873 -1.0676 -0.3154 -0.2204
 2953WAT    EPW12520   5.984   4.380   6.927 -0.0796  0.3057 -0.0088
 2954WAT      O12521   0.684   5.395   2.798  0.3033  0.5334 -0.1637
 2954WAT     H112522   0.684   5.315   2.763 -2.5814  0.5370 -0.4419
 2954WAT     H212523   0.747   5.392   2.858  0.3570 -1.9086 -0.2546
 2954WAT    EPW12524   0.693   5.383   2.802  0.1212 -0.7029 -0.0379
 2955WAT      O12525   7.253   1.766   3.169  0.2678 -0.2874 -0.0876
 2955WAT     H112526   7.206   1.696   3.193  0.2321 -0.5061 -0.7577
 2955WAT     H212527   7.215   1.791   3.094  0.2225  0.5093  0.1925
 2955WAT    EPW12528   7.240   1.759   3.161 -0.4040 -0.3116 -0.3532
 2956WAT      O12529   3.803   4.065   1.897 -0.6050  0.0706 -0.3475
 2956WAT     H112530   3.855   4.044   1.965 -1.9644  0.3413  0.8346
 2956WAT     H212531   3.768   4.141   1.922 -0.5874  0.5423 -1.7179
 2956WAT    EPW12532   3.806   4.073   1.911 -0.5941  0.0479  0.6365
 2957WAT      O12533   0.353   7.287   4.412 -0.5478  0.6352 -0.0944
 2957WAT     H112534   0.295   7.318   4.356 -0.1278  1.7045  0.0352
 2957WAT     H212535   0.399   7.357   4.435  0.4265 -0.0830  0.2406
 2957WAT    EPW12536   0.352   7.302   4.407  0.4012 -0.0488 -0.6281
 2958WAT      O12537   5.599   5.896   2.675 -0.8323  0.3774  0.3062
 2958WAT     H112538   5.547   5.828   2.690  0.4706 -0.6602  0.2622
 2958WAT     H212539   5.620   5.888   2.591  0.2002  0.1894  0.5676
 2958WAT    EPW12540   5.594   5.885   2.665  0.3353 -0.0776  0.1025
 2959WAT      O12541   1.901   0.622   4.737 -0.5797  0.1009  0.5059
 2959WAT     H112542   1.930   0.571   4.802  0.0601 -0.1734  0.0239
 2959WAT     H212543   1.970   0.625   4.683 -0.6369  1.4164  0.4878
 2959WAT    EPW12544   1.916   0.615   4.739  0.2566 -0.4629 -0.2342
 2960WAT      O12545   5.150   7.446   4.831 -0.1297  0.1313  0.3341
 2960WAT     H112546   5.065   7.433   4.813  0.1419  1.9714 -3.0766
 2960WAT     H212547   5.190   7.389   4.779  0.6862  2.5371 -1.8772
 2960WAT    EPW12548   5.143   7.436   4.821  0.0123 -0.3460 -0.6322
 2961WAT      O12549   6.934   2.343   0.131  0.0201  0.4967 -0.0491
 2961WAT     H112550   6.867   2.321   0.080 -0.7687  0.6818  0.8801
 2961WAT     H212551   6.960   2.420   0.099  0.9233 -0.3533 -1.4840
 2961WAT    EPW12552   6.928   2.351   0.119 -0.4593  0.1379 -0.1877
 2962WAT      O12553   2.170   3.564   7.485  0.1680  0.5759  0.6609
 2962WAT     H112554   2.135   3.552   7.406  0.7983  0.2340  0.4195
 2962WAT     H212555   2.102   3.564   7.539 -0.2514  0.6157  0.1327
 2962WAT    EPW12556   2.155   3.562   7.481 -0.1711  0.0187  0.3273
 2963WAT      O12557   6.865   5.095   1.495 -0.1538  0.1155 -0.0268
 2963WAT     H112558   6.797   5.134   1.455 -0.2971 -0.8074 -0.7157
 2963WAT     H212559   6.918   5.075   1.429 -1.2124 -3.0932 -0.0650
 2963WAT    EPW12560   6.863   5.098   1.479 -0.2018  0.3211  0.1640
 2964WAT      O12561   5.873   3.025   2.287  0.2760  0.2040  0.2264
 2964WAT     H112562   5.801   3.026   2.237 -0.1025 -0.0630  0.7575
 2964WAT     H212563   5.923   3.088   2.253 -0.3086  0.5468 -0.0021
 2964WAT    EPW12564   5.870   3.034   2.274  0.5955  0.1431 -0.1754
 2965WAT      O12565   3.342   7.688   4.615  0.1714  0.1266 -0.6087
 2965WAT     H112566   3.267   7.693   4.659  0.3783  0.0910 -0.2502
 2965WAT     H212567   3.333   7.615   4.568 -0.1525  0.3003 -0.8270
 2965WAT    EPW12568   3.329   7.678   4.614 -0.2086 -0.3766 -0.3818
 2966WAT      O12569   6.265   3.437   3.426  0.0425  0.0780 -0.2582
 2966WAT     H112570   6.192   3.421   3.472  0.8054  1.4391  1.5279
 2966WAT     H212571   6.329   3.406   3.476  0.9222  1.7366 -0.2718
 2966WAT    EPW12572   6.264   3.430   3.440  0.3250 -0.2155  0.2742
 2967WAT      O12573   6.863   0.048   1.855 -0.0511 -0.0894 -0.5571
 2967WAT     H112574   6.869   0.074   1.772  0.5634 -0.9512 -0.7950
 2967WAT     H212575   6.777   0.042   1.868 -0.1697  0.9547 -0.8380
 2967WAT    EPW12576   6.851   0.051   1.845  0.2285 -0.3696  0.4575
 2968WAT      O12577   1.600   6.277   4.361  0.3939  0.9488  0.3514
 2968WAT     H112578   1.632   6.340   4.310 -0.3573  0.2155 -1.0988
 2968WAT     H212579   1.668   6.225   4.375  0.6104  1.1513  0.0603
 2968WAT    EPW12580   1.615   6.279   4.356 -0.1507 -0.4674  0.3570
 2969WAT      O12581   7.748   5.187   1.579 -0.5726  0.5485 -0.5120
 2969WAT     H112582   7.736   5.131   1.645 -1.0555  0.2232 -0.8667
 2969WAT     H212583   7.668   5.220   1.566 -0.4168  0.8368 -0.7375
 2969WAT    EPW12584   7.734   5.183   1.587 -0.0615  0.1881 -0.2174
 2970WAT      O12585   3.780   5.489   7.643  0.1730  0.2582  0.1792
 2970WAT     H112586   3.740   5.445   7.707  1.0533  0.8810  1.1943
 2970WAT     H212587   3.808   5.562   7.682  0.6246  0.7171 -0.9471
 2970WAT    EPW12588   3.778   5.493   7.659 -0.1242 -0.2235  0.2866
 2971WAT      O12589   1.510   5.997   5.612 -0.5759 -0.2952  0.0722
 2971WAT     H112590   1.595   6.015   5.622 -0.3178 -0.8329 -0.9774
 2971WAT     H212591   1.470   6.061   5.655  0.3527  0.7092 -0.4934
 2971WAT    EPW12592   1.517   6.009   5.619  0.2333  0.3426 -0.3358
 2972WAT      O12593   5.287   6.920   3.249 -0.0652  0.3098  0.5518
 2972WAT     H112594   5.370   6.946   3.237 -0.6773  1.7944 -1.0859
 2972WAT     H212595   5.288   6.836   3.228  1.2552 -0.0566  1.9191
 2972WAT    EPW12596   5.300   6.912   3.244 -0.3568  0.5855 -0.2614
 2973WAT      O12597   6.754   4.720   3.527  0.0227  0.7495  0.0133
 2973WAT     H112598   6.757   4.726   3.614 -0.2001 -0.5010  0.1228
 2973WAT     H212599   6.838   4.722   3.504  0.1747 -0.3263  0.3914
 2973WAT    EPW12600   6.767   4.721   3.537 -0.5677  0.2777 -0.0902
 2974WAT      O12601   3.176   1.978   6.881 -0.3931  0.0283  0.0366
 2974WAT     H112602   3.098   1.991   6.844 -0.7480 -0.2454  0.6735
 2974WAT     H212603   3.171   1.897   6.912  0.3325 -0.1785 -0.3472
 2974WAT    EPW12604   3.164   1.968   6.880  0.4213 -0.2108 -0.2195
 2975WAT      O12605   4.768   4.911   0.242  0.0223 -0.0777  0.1664
 2975WAT     H112606   4.764   4.854   0.308  1.1883  0.2426  0.5425
 2975WAT     H212607   4.802   4.865   0.177  2.4302  0.5006  0.9133
 2975WAT    EPW12608   4.772   4.896   0.242 -0.1354 -0.6285  0.7423
 2976WAT      O12609   2.068   3.479   3.298  0.0160 -0.0588  0.1137
 2976WAT     H112610   2.107   3.415   3.253 -0.2837  0.4314 -0.8645
 2976WAT     H212611   2.004   3.506   3.245 -0.4367  0.4492  0.8939
 2976WAT    EPW12612   2.064   3.473   3.284 -0.1043  0.1132 -0.1587
 2977WAT      O12613   5.098   4.099   4.036 -0.0127 -0.0900  0.3691
 2977WAT     H112614   5.055   4.166   4.072 -0.5598 -0.5548  0.5911
 2977WAT     H212615   5.084   4.034   4.092 -0.9302 -0.8490 -0.7142
 2977WAT    EPW12616   5.090   4.100   4.050  0.3171 -0.0073 -0.0084
 2978WAT      O12617   7.173   5.945   1.283 -0.2894 -0.2787 -0.1645
 2978WAT     H112618   7.203   5.918   1.361  2.0444  2.9024  0.2421
 2978WAT     H212619   7.238   5.925   1.229 -0.5202  0.3110 -0.6672
 2978WAT    EPW12620   7.187   5.938   1.287  0.3855 -0.3898 -0.2376
 2979WAT      O12621   4.641   5.094   3.930 -0.1074  0.0388 -0.0855
 2979WAT     H112622   4.638   5.139   4.005 -0.9146 -0.7187  0.3638
 2979WAT     H212623   4.602   5.019   3.950  2.0171 -1.2752 -0.5632
 2979WAT    EPW12624   4.635   5.090   3.944 -0.7941 -0.1137  0.3173
 2980WAT      O12625   6.139   5.935   7.800  0.4561  0.3156  0.1374
 2980WAT     H112626   6.170   5.855   7.787 -0.3641 -0.1640  0.9913
 2980WAT     H212627   6.211   5.982   7.816  0.8405 -0.5574  1.0801
 2980WAT    EPW12628   6.154   5.931   7.801  0.1067  0.5253  0.0423
 2981WAT      O12629   3.624   7.335   7.867  0.1641 -0.4290  0.0197
 2981WAT     H112630   3.675   7.296   7.808 -0.3865 -0.5023 -0.4148
 2981WAT     H212631   3.615   7.416   7.837 -2.1790 -1.1196 -1.4096
 2981WAT    EPW12632   3.630   7.341   7.854  0.6593  0.2601 -0.1740
 2982WAT      O12633   4.827   7.082   3.603 -0.0699  0.2817  0.0656
 2982WAT     H112634   4.779   7.046   3.667 -1.1449 -0.3190 -1.0326
 2982WAT     H212635   4.892   7.024   3.592  0.9034  1.0459  1.4890
 2982WAT    EPW12636   4.830   7.068   3.611 -0.6256 -0.2616  0.5746
 2983WAT      O12637   4.186   7.392   4.814  0.1541  0.3708 -0.3637
 2983WAT     H112638   4.210   7.308   4.812  2.3764  0.9477 -1.4768
 2983WAT     H212639   4.202   7.416   4.896  3.5558  0.6556 -0.9696
 2983WAT    EPW12640   4.192   7.383   4.826  0.1364 -0.2541 -0.3926
 2984WAT      O12641   7.974   6.238   3.368 -0.2691  0.3045 -0.3439
 2984WAT     H112642   7.890   6.236   3.391  0.3197  1.3824  2.1971
 2984WAT     H212643   7.995   6.154   3.360 -1.4915  0.0069 -0.7324
 2984WAT    EPW12644   7.965   6.225   3.370 -0.1342 -0.4868 -0.0859
 2985WAT      O12645   7.023   1.605   3.224 -0.5268 -0.4238  0.2301
 2985WAT     H112646   7.027   1.564   3.301  2.8070  0.7902  0.8583
 2985WAT     H212647   6.959   1.663   3.235  0.6212  0.5082  2.5624
 2985WAT    EPW12648   7.014   1.607   3.237 -0.2686  0.3542  0.5358
 2986WAT      O12649   0.146   6.621   4.542 -0.3282  0.0284  0.4012
 2986WAT     H112650   0.231   6.603   4.536  0.5919  3.7236  0.3058
 2986WAT     H212651   0.111   6.567   4.483  2.2630 -0.0720 -1.2381
 2986WAT    EPW12652   0.153   6.610   4.532 -0.1940  0.2383 -0.0076
 2987WAT      O12653   3.344   4.675   1.898  0.3620  0.0192 -0.2489
 2987WAT     H112654   3.285   4.737   1.915 -0.4143 -0.6486 -0.4627
 2987WAT     H212655   3.396   4.713   1.840 -1.1103 -0.0846 -1.7095
 2987WAT    EPW12656   3.343   4.690   1.892  0.6442  0.5638 -0.1973
 2988WAT      O12657   6.315   7.759   1.293 -0.1709 -0.2864 -0.0693
 2988WAT     H112658   6.261   7.728   1.232 -0.2923 -1.4287  0.5838
 2988WAT     H212659   6.297   7.709   1.363  3.6852 -2.8104 -0.5501
 2988WAT    EPW12660   6.305   7.747   1.295 -0.6584 -0.0455 -0.2065
 2989WAT      O12661   2.122   6.727   6.586  0.2200  0.0222  0.4871
 2989WAT     H112662   2.136   6.705   6.669  1.2643 -2.6155 -0.2600
 2989WAT     H212663   2.066   6.667   6.558 -1.8219  2.1338 -0.2568
 2989WAT    EPW12664   2.116   6.715   6.594 -0.5241 -0.0046  0.6720
 2990WAT      O12665   1.637   4.905   6.499  0.5510 -0.8094 -0.5111
 2990WAT     H112666   1.589   4.855   6.551 -0.1321 -2.0021 -2.1717
 2990WAT     H212667   1.709   4.857   6.485  0.3975 -0.8531 -1.2137
 2990WAT    EPW12668   1.640   4.890   6.504 -0.6111  0.2090 -1.0998
 2991WAT      O12669   5.569   7.887   5.208  0.4199 -0.3065  0.0131
 2991WAT     H112670   5.514   7.937   5.254 -2.1315 -0.7805 -2.2523
 2991WAT     H212671   5.617   7.945   5.164 -1.5992  0.2847 -1.5709
 2991WAT    EPW12672   5.568   7.903   5.208 -0.5236 -0.2764  0.2476
 2992WAT      O12673   5.792   2.273   2.233 -0.4191  0.1067 -0.6932
 2992WAT     H112674   5.763   2.355   2.223 -0.2750  0.4329  1.2194
 2992WAT     H212675   5.868   2.283   2.273 -0.5011 -0.9792 -0.2388
 2992WAT    EPW12676   5.799   2.287   2.237  0.0056  0.0715  0.7228
 2993WAT      O12677   3.305   7.400   5.945  0.2464 -0.4454 -0.1809
 2993WAT     H112678   3.255   7.343   5.902 -0.6095 -0.0286  0.2452
 2993WAT     H212679   3.281   7.391   6.028 -0.2841  0.8741 -0.1567
 2993WAT    EPW12680   3.294   7.390   5.951 -0.0032  0.0435  0.0264
 2994WAT      O12681   6.068   6.795   1.927 -0.8200 -0.2241  0.5627
 2994WAT     H112682   6.114   6.733   1.968  1.5626 -1.1366 -2.9850
 2994WAT     H212683   6.113   6.868   1.941 -0.8806 -0.2364  0.8139
 2994WAT    EPW12684   6.081   6.797   1.935  0.1240 -0.0726 -0.6943
 2995WAT      O12685   3.395   8.007   6.918 -0.0693  0.1397  0.4493
 2995WAT     H112686   3.352   7.935   6.894  0.2766  0.3271 -0.7912
 2995WAT     H212687   3.356   8.030   6.993 -1.1884 -0.4928  0.0851
 2995WAT    EPW12688   3.383   8.000   6.926 -0.4865  0.6104 -0.1265
 2996WAT      O12689   0.560   7.468   2.145  0.4158  0.5808 -0.1538
 2996WAT     H112690   0.522   7.400   2.185  1.2748  1.0162  1.4991
 2996WAT     H212691   0.499   7.530   2.148 -0.2941 -0.0094 -1.4795
 2996WAT    EPW12692   0.545   7.467   2.151 -0.5033 -0.2714  0.3993
 2997WAT      O12693   4.960   2.405   6.761 -0.4351  0.4490 -0.1724
 2997WAT     H112694   4.891   2.356   6.739  0.2669 -0.7922  0.2673
 2997WAT     H212695   4.953   2.411   6.848 -0.2451  0.7060 -0.1740
 2997WAT    EPW12696   4.949   2.399   6.771  0.1185 -0.6722  0.0942
 2998WAT      O12697   6.895   6.205   4.055  0.1154 -0.0170  0.4095
 2998WAT     H112698   6.832   6.246   4.099 -0.2953  1.2012 -1.1876
 2998WAT     H212699   6.967   6.249   4.077  0.1014 -0.1562  0.7384
 2998WAT    EPW12700   6.896   6.218   4.065 -0.5628  0.8131  0.3329
 2999WAT      O12701   3.101   4.033   6.795 -0.1903  0.4448 -0.0511
 2999WAT     H112702   3.184   4.020   6.820 -0.3466 -0.1741  0.1516
 2999WAT     H212703   3.101   4.009   6.711 -0.6269 -1.6459  0.4805
 2999WAT    EPW12704   3.114   4.028   6.786 -0.2210 -0.3482  0.2278
 3000WAT      O12705   3.653   4.877   2.181  0.5724 -0.1011 -0.4325
 3000WAT     H112706   3.731   4.846   2.204  0.2042 -1.0770 -0.4657
 3000WAT     H212707   3.630   4.927   2.249 -0.0383 -2.1149  0.9352
 3000WAT    EPW12708   3.661   4.880   2.195  0.4760 -0.4679 -0.3972
 3001WAT      O12709   4.357   3.863   5.072  1.0132 -0.2312 -0.4160
 3001WAT     H112710   4.279   3.833   5.047  0.5041  1.8015 -1.4593
 3001WAT     H212711   4.409   3.792   5.067 -0.9805 -2.0133  1.7819
 3001WAT    EPW12712   4.353   3.848   5.067 -0.2481  0.2259  0.5187
 3002WAT      O12713   5.075   0.790   1.210 -0.3365 -0.0192 -0.1505
 3002WAT     H112714   5.134   0.773   1.271  0.5159  1.0559 -0.6446
 3002WAT     H212715   5.112   0.761   1.137 -1.1165 -0.7987 -0.2541
 3002WAT    EPW12716   5.089   0.784   1.208  0.1290  0.0682 -0.3630
 3003WAT      O12717   6.555   5.855   4.655  0.2253  0.0213  0.2157
 3003WAT     H112718   6.521   5.818   4.584  0.1135 -1.1993  0.8807
 3003WAT     H212719   6.622   5.901   4.624  0.8979 -1.4245 -0.5608
 3003WAT    EPW12720   6.560   5.856   4.640 -0.0429 -0.3956  0.0653
 3004WAT      O12721   4.264   5.754   2.267 -0.4612 -0.2051 -0.1301
 3004WAT     H112722   4.215   5.689   2.297 -3.0380  1.0577 -1.2605
 3004WAT     H212723   4.286   5.728   2.187 -0.1100 -0.3654  0.0187
 3004WAT    EPW12724   4.260   5.741   2.259  0.2624  0.3451  0.2058
 3005WAT      O12725   2.255   4.094   4.727 -0.8590 -0.7921  0.6995
 3005WAT     H112726   2.292   4.021   4.698 -0.6607 -0.5948  0.4536
 3005WAT     H212727   2.270   4.152   4.664 -1.0282 -0.5410  0.8849
 3005WAT    EPW12728   2.262   4.092   4.713 -0.1849 -0.6836  0.8794
 3006WAT      O12729   3.946   7.555   5.837 -0.3902 -0.0900  0.1341
 3006WAT     H112730   3.963   7.602   5.908  1.9350 -0.7314  0.0639
 3006WAT     H212731   3.960   7.610   5.771  0.0572 -0.2348  0.1081
 3006WAT    EPW12732   3.950   7.570   5.837 -0.2222  0.0460 -0.9659
 3007WAT      O12733   1.515   3.938   4.776  0.1086  0.2981  0.3952
 3007WAT     H112734   1.515   3.855   4.804 -1.1816  0.0360 -0.2726
 3007WAT     H212735   1.430   3.957   4.769  0.3636  1.0324 -1.2587
 3007WAT    EPW12736   1.503   3.928   4.779 -0.0666  0.2102  0.1200
 3008WAT      O12737   4.196   7.956   0.406  0.3897  0.1516 -0.6994
 3008WAT     H112738   4.124   7.983   0.448  0.6203  0.8286 -0.7321
 3008WAT     H212739   4.227   7.893   0.458  2.2175  2.7850  1.7299
 3008WAT    EPW12740   4.190   7.950   0.420 -0.2239  0.4263 -0.3805
 3009WAT      O12741   6.042   1.077   3.956 -0.0547 -0.6697  0.3521
 3009WAT     H112742   6.031   1.120   4.032 -1.8234 -2.5013  1.2103
 3009WAT     H212743   5.962   1.077   3.921 -0.3910 -4.0066  0.8591
 3009WAT    EPW12744   6.029   1.084   3.962  0.4654  0.3787  0.3455
 3010WAT      O12745   6.385   7.497   2.735 -0.6051  0.7145 -0.3982
 3010WAT     H112746   6.461   7.539   2.742 -0.9247  1.2752 -0.2427
 3010WAT     H212747   6.400   7.422   2.776  0.0004  0.6286 -0.7547
 3010WAT    EPW12748   6.398   7.492   2.742 -0.1781  0.0648  0.3694
 3011WAT      O12749   4.076   4.263   1.704 -0.5903  0.5863 -0.3453
 3011WAT     H112750   4.125   4.214   1.757 -1.1590  0.3274 -0.0496
 3011WAT     H212751   4.123   4.268   1.631 -0.8279 -1.0252 -0.6556
 3011WAT    EPW12752   4.090   4.256   1.701  0.1571  0.3372  0.1405
 3012WAT      O12753   6.108   6.313   3.837  0.0061  0.1486  0.4872
 3012WAT     H112754   6.057   6.298   3.767  0.4038 -1.7471  0.5592
 3012WAT     H212755   6.147   6.388   3.817 -0.6983  0.1948 -0.8545
 3012WAT    EPW12756   6.106   6.322   3.824 -0.0105  0.3797  0.2079
 3013WAT      O12757   5.059   5.654   1.917 -0.2974  0.3035  0.2613
 3013WAT     H112758   5.091   5.732   1.894  0.0786  0.5875  1.6063
 3013WAT     H212759   5.124   5.620   1.965 -0.3358 -0.9793 -0.5581
 3013WAT    EPW12760   5.073   5.661   1.921  0.0437 -0.9528  0.3576
 3014WAT      O12761   6.120   5.454   1.191 -0.2976 -0.5372 -0.1598
 3014WAT     H112762   6.123   5.386   1.136  2.8142 -1.7410  1.2560
 3014WAT     H212763   6.161   5.518   1.146  0.0667 -0.7627 -0.1543
 3014WAT    EPW12764   6.127   5.454   1.176 -0.5955 -0.0024  0.1079
 3015WAT      O12765   5.711   2.007   2.094 -0.3681  0.7054 -0.6235
 3015WAT     H112766   5.730   2.067   2.154 -0.8590  1.1936 -0.9501
 3015WAT     H212767   5.624   2.005   2.092 -0.3682 -0.4481 -0.1973
 3015WAT    EPW12768   5.701   2.015   2.102  0.2161  0.0426  0.2010
 3016WAT      O12769   1.595   3.565   4.582 -0.3256  0.3841 -0.6276
 3016WAT     H112770   1.589   3.572   4.495  1.9540 -2.8347 -1.2206
 3016WAT     H212771   1.548   3.494   4.600  0.3625  0.1960  0.5375
 3016WAT    EPW12772   1.587   3.556   4.572 -0.6149 -0.1718 -0.1827
 3017WAT      O12773   0.633   5.636   3.301  0.0191 -0.0914  0.0971
 3017WAT     H112774   0.568   5.605   3.251 -0.1667 -0.5888  0.6257
 3017WAT     H212775   0.593   5.653   3.377  0.7764 -2.0074  0.9966
 3017WAT    EPW12776   0.617   5.634   3.305 -0.2302  0.0972  0.0900
 3018WAT      O12777   3.498   5.701   1.543  0.2886 -0.4188 -0.0075
 3018WAT     H112778   3.567   5.680   1.592  1.9661 -2.6481 -2.9474
 3018WAT     H212779   3.523   5.774   1.503  1.0658 -1.1811 -1.0086
 3018WAT    EPW12780   3.512   5.708   1.544 -0.0130  0.6855 -0.1224
 3019WAT      O12781   6.142   5.775   1.628 -0.2651 -0.4578 -0.0773
 3019WAT     H112782   6.150   5.855   1.661 -1.7548  0.5317 -1.9230
 3019WAT     H212783   6.209   5.731   1.664 -1.6977  0.4089  4.1482
 3019WAT    EPW12784   6.153   5.780   1.638  0.0113  0.4501 -0.1081
 3020WAT      O12785   5.544   1.949   0.237  0.2696  0.0936  0.1933
 3020WAT     H112786   5.491   1.929   0.303 -0.4348 -0.1810 -0.4428
 3020WAT     H212787   5.541   2.036   0.235  0.9857  0.1523  1.0663
 3020WAT    EPW12788   5.536   1.959   0.246  0.3854  0.3346  0.3466
 3021WAT      O12789   0.087   4.019   4.560 -0.2589 -0.1600  0.2316
 3021WAT     H112790   0.170   4.040   4.545 -0.1646  1.0899  2.1361
 3021WAT     H212791   0.081   4.020   4.647 -2.3974  0.3983  0.1374
 3021WAT    EPW12792   0.098   4.023   4.570 -0.0848  0.1723 -0.2418
 3022WAT      O12793   7.301   7.130   1.878  1.1178  0.3325 -0.0374
 3022WAT     H112794   7.300   7.058   1.829 -1.7048 -0.0661  0.4488
 3022WAT     H212795   7.386   7.144   1.893  1.8381 -1.7625 -1.7487
 3022WAT    EPW12796   7.313   7.122   1.873  0.5629 -0.3013  0.9262
 3023WAT      O12797   5.152   6.546   5.853  0.3988 -0.1662  0.0802
 3023WAT     H112798   5.211   6.544   5.917  2.5894  0.7536 -1.7657
 3023WAT     H212799   5.096   6.483   5.874  0.6456  0.4715  3.1614
 3023WAT    EPW12800   5.152   6.536   5.865  0.1393 -0.3568  0.5328
 3024WAT      O12801   3.998   0.157   1.995 -0.0782  0.6027  0.5686
 3024WAT     H112802   4.005   0.078   1.957 -0.9784  0.7947 -0.0443
 3024WAT     H212803   3.987   0.138   2.079  2.0074  0.1690  0.7885
 3024WAT    EPW12804   3.997   0.142   2.002  0.3739  0.0497 -0.1648
 3025WAT      O12805   5.464   3.721   4.725 -0.1850 -0.0103  0.1151
 3025WAT     H112806   5.546   3.738   4.699 -0.8322 -0.5450 -2.5670
 3025WAT     H212807   5.419   3.790   4.697 -0.7241  0.1828  1.3992
 3025WAT    EPW12808   5.470   3.734   4.717  0.0401 -0.7717 -0.0773
 3026WAT      O12809   6.638   3.642   0.769 -0.1243  0.2890  0.2954
 3026WAT     H112810   6.652   3.701   0.707  1.7044 -1.3046 -0.9465
 3026WAT     H212811   6.716   3.631   0.806 -0.5630 -0.7919  0.9784
 3026WAT    EPW12812   6.651   3.649   0.765 -0.3287 -0.1092  0.4896
 3027WAT      O12813   0.267   5.343   0.711  0.1063 -0.0247  0.0962
 3027WAT     H112814   0.181   5.352   0.695 -0.0006 -1.4431 -0.2336
 3027WAT     H212815   0.298   5.310   0.636  1.1731  1.5654 -0.2134
 3027WAT    EPW12816   0.259   5.339   0.697 -0.8517  0.7288  1.1865
 3028WAT      O12817   5.901   3.347   0.269 -0.3467  0.7394  0.0787
 3028WAT     H112818   5.968   3.402   0.277 -0.7871  1.4610 -0.9801
 3028WAT     H212819   5.940   3.271   0.252  0.2429  1.6458 -3.3371
 3028WAT    EPW12820   5.917   3.344   0.268 -0.4609  0.1553  0.0611
 3029WAT      O12821   8.056   6.312   3.931  0.2284  0.2885  0.0679
 3029WAT     H112822   8.056   6.333   3.847 -1.0974 -0.6202 -0.1965
 3029WAT     H212823   8.004   6.242   3.935  1.0468 -0.3052  1.4995
 3029WAT    EPW12824   8.048   6.305   3.919 -0.1709 -0.0511  0.0740
 3030WAT      O12825   2.140   5.651   6.192 -0.3141  0.1112 -0.0624
 3030WAT     H112826   2.057   5.643   6.166  0.2366 -0.7494 -1.6472
 3030WAT     H212827   2.144   5.733   6.222 -1.8350  0.0166  0.4847
 3030WAT    EPW12828   2.128   5.662   6.193  0.0162  0.1930 -0.5074
 3031WAT      O12829   4.409   0.058   7.375  0.0695  0.1792 -0.4274
 3031WAT     H112830   4.443   0.136   7.360 -2.0816  1.2591 -0.0769
 3031WAT     H212831   4.464   0.003   7.335  1.0875  1.9367 -1.5426
 3031WAT    EPW12832   4.422   0.061   7.367 -0.8144 -0.5170  0.6117
 3032WAT      O12833   4.990   1.608   1.818 -0.2762  0.2510 -0.0939
 3032WAT     H112834   5.072   1.579   1.832  0.0496  1.3902  0.5081
 3032WAT     H212835   4.996   1.693   1.836 -2.0154  0.0454  1.7501
 3032WAT    EPW12836   5.003   1.616   1.823 -0.4367 -0.2528 -0.0055
 3033WAT      O12837   3.395   3.058   1.367 -0.4637 -0.5122 -0.0550
 3033WAT     H112838   3.322   3.011   1.359  0.2804 -2.2696  2.4433
 3033WAT     H212839   3.406   3.066   1.453  0.9369  2.0175 -0.3601
 3033WAT    EPW12840   3.386   3.052   1.378 -0.0064  0.0099 -0.3965
 3034WAT      O12841   7.451   0.196   3.521  0.0768 -0.5695 -0.5120
 3034WAT     H112842   7.432   0.241   3.593  0.1553 -0.1822 -0.7257
 3034WAT     H212843   7.385   0.140   3.513 -0.4625  0.0761 -0.6954
 3034WAT    EPW12844   7.439   0.195   3.530 -0.1564  0.3322  0.3346
 3035WAT      O12845   2.040   7.513   4.407  0.0661  0.5039 -0.1572
 3035WAT     H112846   1.964   7.471   4.392  0.1033  0.9782 -1.9961
 3035WAT     H212847   2.050   7.507   4.493 -2.0154  0.3358  0.1330
 3035WAT    EPW12848   2.030   7.506   4.417 -0.5928  0.0829 -0.3423
 3036WAT      O12849   5.381   0.099   3.308  0.2199 -0.0222  0.0388
 3036WAT     H112850   5.429   0.035   3.344 -1.3791 -0.0678  2.2827
 3036WAT     H212851   5.303   0.089   3.344 -0.4758  2.3307 -0.6434
 3036WAT    EPW12852   5.377   0.088   3.319 -0.6307 -0.0430 -0.4490
 3037WAT      O12853   4.499   2.777   6.420  0.0867 -0.4739 -0.0975
 3037WAT     H112854   4.576   2.762   6.460  1.4318 -0.2309 -2.4065
 3037WAT     H212855   4.467   2.697   6.407  0.4856 -0.6318 -0.1191
 3037WAT    EPW12856   4.506   2.763   6.424  0.0508 -0.1591  0.0947
 3038WAT      O12857   7.084   1.102   4.677 -1.1769 -0.4061  0.3982
 3038WAT     H112858   6.999   1.083   4.683 -1.8280  2.1510  0.1769
 3038WAT     H212859   7.093   1.172   4.728  0.1211  1.2205 -1.9000
 3038WAT    EPW12860   7.072   1.109   4.685 -0.4462 -0.4409  0.9985
 3039WAT      O12861   3.964   3.962   6.267 -0.0904  0.4957  0.1916
 3039WAT     H112862   4.005   4.021   6.317 -0.7040 -0.6805  2.1696
 3039WAT     H212863   4.022   3.945   6.204  0.1501  3.0916 -0.4081
 3039WAT    EPW12864   3.979   3.968   6.265  0.7391 -0.4735 -0.1092
 3040WAT      O12865   3.805   0.355   6.921  0.4439  0.2534 -0.0023
 3040WAT     H112866   3.822   0.420   6.978 -1.5477  0.7389  0.1183
 3040WAT     H212867   3.731   0.380   6.884  1.2428 -0.5029 -2.2341
 3040WAT    EPW12868   3.797   0.368   6.924 -0.0852  0.4317  0.6024
 3041WAT      O12869   6.328   6.424   2.772  0.3548 -0.5844  0.4068
 3041WAT     H112870   6.262   6.379   2.807  0.0334  0.4309  1.1538
 3041WAT     H212871   6.297   6.446   2.693  0.5922 -1.8162 -0.0397
 3041WAT    EPW12872   6.313   6.421   2.766  0.4716  0.0797 -0.3077
 3042WAT      O12873   2.552   7.011   5.261 -0.2224  0.3999 -0.0830
 3042WAT     H112874   2.633   6.983   5.244 -0.3276 -1.0065  1.5465
 3042WAT     H212875   2.525   6.959   5.325 -2.7769  0.2652 -1.1706
 3042WAT    EPW12876   2.560   6.999   5.268  0.4549  0.4512  0.6604
 3043WAT      O12877   6.011   4.206   5.300 -0.1818  0.1773 -0.7398
 3043WAT     H112878   5.969   4.205   5.377 -0.6754 -2.1448 -0.9587
 3043WAT     H212879   5.947   4.220   5.243 -0.1990 -0.4441 -0.8764
 3043WAT    EPW12880   5.995   4.208   5.303  0.2008  0.1128  0.1215
 3044WAT      O12881   5.107   6.638   2.176 -0.3793  0.2395 -0.0898
 3044WAT     H112882   5.060   6.565   2.168  2.0348 -1.2394 -2.0506
 3044WAT     H212883   5.102   6.656   2.262 -1.8290 -1.6549  0.2933
 3044WAT    EPW12884   5.099   6.630   2.188  0.1567  0.2657  0.2067
 3045WAT      O12885   6.268   4.967   2.910  0.5049  0.3875 -0.1119
 3045WAT     H112886   6.289   5.051   2.920 -0.5210  0.4125  2.9909
 3045WAT     H212887   6.336   4.934   2.866  0.9615  2.7829 -1.3461
 3045WAT    EPW12888   6.281   4.974   2.905  0.2866  0.6765 -0.4173
 3046WAT      O12889   5.179   3.894   3.642 -0.2982  0.1833  0.1859
 3046WAT     H112890   5.140   3.913   3.718 -0.1299  1.7366 -0.0715
 3046WAT     H212891   5.113   3.876   3.588 -0.6815  2.1392 -0.0703
 3046WAT    EPW12892   5.164   3.894   3.645 -0.3020  0.0697  0.1478
 3047WAT      O12893   0.122   6.981   2.402 -0.8160 -0.1920  0.3644
 3047WAT     H112894   0.135   6.992   2.316 -2.1011  0.9824  0.2764
 3047WAT     H212895   0.202   6.989   2.436 -0.3017 -0.5413 -0.6967
 3047WAT    EPW12896   0.136   6.984   2.394  0.3924 -0.7382  0.5659
 3048WAT      O12897   5.319   6.242   2.615 -0.4806 -0.2362 -0.2526
 3048WAT     H112898   5.306   6.210   2.535  0.1450 -0.6026 -0.2176
 3048WAT     H212899   5.332   6.171   2.663  1.2003  0.0527 -0.2205
 3048WAT    EPW12900   5.319   6.227   2.610  0.0976 -0.0528 -0.5143
 3049WAT      O12901   5.909   3.509   7.751  0.6350  0.1032  0.0778
 3049WAT     H112902   5.960   3.457   7.703  1.3493 -0.3029  1.2313
 3049WAT     H212903   5.922   3.481   7.833 -1.4712 -0.0432  0.4341
 3049WAT    EPW12904   5.918   3.497   7.756 -0.5387 -0.2973 -0.1117
 3050WAT      O12905   1.764   4.941   0.977 -0.2759  0.0152  0.1271
 3050WAT     H112906   1.806   4.923   0.903 -0.2865 -0.7578  0.3020
 3050WAT     H212907   1.783   5.025   0.992  0.4619 -0.0742 -0.2735
 3050WAT    EPW12908   1.773   4.951   0.969 -0.1616 -0.1960  0.1246
 3051WAT      O12909   6.357   5.684   8.028  0.4697 -0.7220 -0.5183
 3051WAT     H112910   6.285   5.696   8.075  0.0787 -0.3917 -1.1771
 3051WAT     H212911   6.328   5.690   7.946  1.3928  0.3352 -0.7866
 3051WAT    EPW12912   6.342   5.686   8.023 -0.0424 -0.0564  0.0813
 3052WAT      O12913   4.606   5.643   6.119  0.1560  0.1606  0.3648
 3052WAT     H112914   4.647   5.672   6.190 -2.1761  0.1346  1.8191
 3052WAT     H212915   4.522   5.659   6.136 -0.4474  0.9666 -2.7982
 3052WAT    EPW12916   4.600   5.650   6.132 -0.2264 -0.3830 -0.4600
 3053WAT      O12917   3.888   5.014   7.138 -0.7160 -0.0473  0.4029
 3053WAT     H112918   3.893   5.095   7.169 -0.7546 -0.1281  0.6235
 3053WAT     H212919   3.911   5.022   7.054  0.9724 -0.0699  0.8265
 3053WAT    EPW12920   3.892   5.027   7.130 -0.7538  0.0267 -0.3586
 3054WAT      O12921   4.133   1.356   6.835  0.1421  0.1634  0.1870
 3054WAT     H112922   4.191   1.421   6.828 -0.3408  0.6346  0.4902
 3054WAT     H212923   4.179   1.292   6.874  0.2224  0.8577  1.2802
 3054WAT    EPW12924   4.148   1.356   6.840 -0.1185  0.1264 -0.0769
 3055WAT      O12925   3.366   6.517   3.152  0.1000  0.4690  0.5412
 3055WAT     H112926   3.350   6.446   3.201  0.0214 -0.4956 -0.8052
 3055WAT     H212927   3.354   6.583   3.207  0.6904 -0.5728  1.9939
 3055WAT    EPW12928   3.362   6.516   3.167 -0.0346  0.5029  0.7535
 3056WAT      O12929   7.720   0.263   1.365  0.3835 -0.0562 -0.6105
 3056WAT     H112930   7.728   0.198   1.308  1.1267  0.5227 -1.1817
 3056WAT     H212931   7.636   0.260   1.388 -0.0952  0.1472 -2.2518
 3056WAT    EPW12932   7.709   0.253   1.360 -0.0512  0.7841  0.5535
 3057WAT      O12933   5.430   4.640   7.073  0.1869  0.6215 -0.5405
 3057WAT     H112934   5.491   4.634   7.011 -0.4530  0.6547 -1.1907
 3057WAT     H212935   5.432   4.561   7.111 -0.0189  0.2868 -1.2005
 3057WAT    EPW12936   5.439   4.627   7.070 -0.2034 -0.1807  0.1053
 3058WAT      O12937   5.566   0.704   6.524 -0.1487 -0.0262  0.3973
 3058WAT     H112938   5.490   0.743   6.543  1.0475  2.4532  0.5043
 3058WAT     H212939   5.619   0.732   6.587  1.2339 -0.4386 -0.5473
 3058WAT    EPW12940   5.563   0.714   6.536  0.1068 -0.3790  0.0242
 3059WAT      O12941   6.131   5.785   3.526  0.2957  0.2633 -0.0908
 3059WAT     H112942   6.157   5.863   3.556  0.6941  0.9860 -2.2042
 3059WAT     H212943   6.046   5.797   3.510  0.5035  0.4937 -1.0621
 3059WAT    EPW12944   6.122   5.799   3.528 -0.1960  0.4822 -0.3031
 3060WAT      O12945   2.163   0.858   4.951  0.0778 -0.0987 -0.3838
 3060WAT     H112946   2.240   0.898   4.959  0.0043  0.7621 -2.9658
 3060WAT     H212947   2.183   0.782   4.913 -0.2096 -0.6289  0.5006
 3060WAT    EPW12948   2.177   0.853   4.946 -0.4781 -0.0434  0.5943
 3061WAT      O12949   3.332   7.335   3.546  0.3011 -0.3460  0.6406
 3061WAT     H112950   3.390   7.393   3.578 -1.4357  0.8674  1.7848
 3061WAT     H212951   3.280   7.319   3.614 -1.9350  0.2374 -0.8200
 3061WAT    EPW12952   3.333   7.341   3.561 -0.0043  0.2160 -0.4146
 3062WAT      O12953   5.985   0.813   4.104  0.5170 -0.2403  0.1142
 3062WAT     H112954   6.061   0.776   4.082  0.0513 -0.7425 -0.6800
 3062WAT     H212955   5.994   0.896   4.079  1.1918 -0.0334  0.9890
 3062WAT    EPW12956   5.998   0.820   4.097 -0.3275  0.0396 -0.9110
 3063WAT      O12957   2.643   7.542   1.102  0.6632  0.5764 -0.1827
 3063WAT     H112958   2.593   7.505   1.164  0.8467  1.8260  0.7375
 3063WAT     H212959   2.695   7.596   1.146  0.3001  2.0697 -1.4923
 3063WAT    EPW12960   2.643   7.544   1.118  0.2437 -0.1237 -0.6617
 3064WAT      O12961   1.654   2.635   0.098 -0.5500  0.0045  0.3526
 3064WAT     H112962   1.671   2.717   0.123 -0.6065  0.1793 -0.1781
 3064WAT     H212963   1.731   2.607   0.068 -0.8592  0.3309 -0.7594
 3064WAT    EPW12964   1.668   2.643   0.098  0.5488  0.1915  0.1523
 3065WAT      O12965   6.654   7.024   0.518  0.4833  0.1051  0.6924
 3065WAT     H112966   6.633   7.042   0.435 -2.1940  0.0322  1.2919
 3065WAT     H212967   6.718   6.965   0.509 -0.2254 -0.4648 -1.3453
 3065WAT    EPW12968   6.661   7.018   0.504 -0.0304 -0.0421 -0.4484
 3066WAT      O12969   1.811   7.686   0.361  0.5985  0.0138  0.0733
 3066WAT     H112970   1.790   7.678   0.445 -1.1105 -1.7888 -0.4192
 3066WAT     H212971   1.862   7.617   0.346 -0.0056 -0.3117 -0.5720
 3066WAT    EPW12972   1.815   7.674   0.371 -0.2380  0.4501 -0.1330
 3067WAT      O12973   2.289   1.299   0.940  0.1067 -0.2607  0.2546
 3067WAT     H112974   2.207   1.307   0.971  1.4416 -0.9908  4.5872
 3067WAT     H212975   2.296   1.214   0.923  0.6843 -0.7476  2.6202
 3067WAT    EPW12976   2.278   1.288   0.942  0.7523 -0.0686 -0.0192
 3068WAT      O12977   2.478   4.659   1.277 -0.1051  0.4089 -0.4525
 3068WAT     H112978   2.497   4.624   1.199  2.2694 -0.1140  0.2587
 3068WAT     H212979   2.493   4.594   1.332  2.0708  1.7854  0.7150
 3068WAT    EPW12980   2.483   4.644   1.273 -0.0180  0.2349  0.2008
 3069WAT      O12981   4.271   4.716   7.840  0.0896  0.1080  0.1073
 3069WAT     H112982   4.244   4.688   7.762  1.7008 -1.3945  0.0306
 3069WAT     H212983   4.336   4.771   7.821  0.2512  0.0149  0.3839
 3069WAT    EPW12984   4.276   4.720   7.826  0.0118  0.0284  0.2636
 3070WAT      O12985   8.076   0.999   0.510 -0.5322  0.1643 -0.1071
 3070WAT     H112986   8.010   0.956   0.473  0.7451 -3.7657  1.7019
 3070WAT     H212987   8.145   0.980   0.459  0.0514  0.1948  0.6433
 3070WAT    EPW12988   8.077   0.990   0.497 -0.1264  0.3576  0.4563
 3071WAT      O12989   5.177   6.394   4.262  0.1114  0.0731 -0.1966
 3071WAT     H112990   5.187   6.468   4.307  0.3465 -1.0435  1.6984
 3071WAT     H212991   5.212   6.412   4.185  1.6351  1.4572  0.7588
 3071WAT    EPW12992   5.183   6.408   4.257  0.7434  0.0665  0.4244
 3072WAT      O12993   4.292   2.754   1.878 -0.4871  0.0414 -0.2702
 3072WAT     H112994   4.366   2.737   1.834  0.0033  0.4050  0.3832
 3072WAT     H212995   4.259   2.823   1.837 -1.8630 -1.6464 -2.1958
 3072WAT    EPW12996   4.298   2.762   1.866  0.2392 -0.6504  0.5111
 3073WAT      O12997   3.509   4.529   7.629  0.5241 -0.0162 -0.2938
 3073WAT     H112998   3.596   4.527   7.618  0.6328 -1.2690  0.5943
 3073WAT     H212999   3.496   4.600   7.679  1.1056 -0.1792  0.0950
 3073WAT    EPW13000   3.520   4.540   7.634 -0.0877  0.2544 -0.8968
 3074WAT      O13001   6.916   2.188   1.301 -0.3819 -0.5181 -0.6876
 3074WAT     H113002   6.851   2.135   1.277 -0.9541 -0.5237  0.7819
 3074WAT     H213003   6.985   2.156   1.258 -1.1890 -0.9494 -1.7141
 3074WAT    EPW13004   6.917   2.175   1.291 -0.5886  0.2945  0.8176
 3075WAT      O13005   3.979   5.423   3.227  0.4580 -0.2838 -0.5507
 3075WAT     H113006   3.900   5.425   3.264  0.6858 -0.0694 -0.0776
 3075WAT     H213007   3.960   5.411   3.142 -0.0247 -1.9534 -0.2571
 3075WAT    EPW13008   3.964   5.421   3.220 -0.6310  0.0492  1.0749
 3076WAT      O13009   7.616   3.352   1.743 -0.1584 -0.5903 -0.1965
 3076WAT     H113010   7.660   3.388   1.809 -1.3742  1.8860 -0.6441
 3076WAT     H213011   7.534   3.347   1.772 -0.4973 -0.5291 -1.0996
 3076WAT    EPW13012   7.610   3.356   1.757  0.0331 -0.2405 -0.7835
 3077WAT      O13013   3.213   5.288   2.963  0.5528  0.2598 -0.2082
 3077WAT     H113014   3.190   5.265   3.044  2.3147  2.5400  1.0656
 3077WAT     H213015   3.296   5.260   2.957  0.5875  0.5231 -1.0464
 3077WAT    EPW13016   3.222   5.280   2.974 -0.0811  0.0264  0.7603
 3078WAT      O13017   4.239   7.578   5.351  0.0611 -0.6069 -0.0553
 3078WAT     H113018   4.207   7.504   5.385  0.2207 -1.4816 -1.7077
 3078WAT     H213019   4.168   7.622   5.326 -0.0737  0.1765  1.5779
 3078WAT    EPW13020   4.224   7.573   5.353 -0.2232  0.0164 -0.2581
 3079WAT      O13021   3.091   0.421   7.055  0.0992 -0.3217 -0.2731
 3079WAT     H113022   3.045   0.347   7.043  0.6843 -0.7352 -0.0406
 3079WAT     H213023   3.174   0.394   7.048  0.3292  0.2327  0.2648
 3079WAT    EPW13024   3.096   0.406   7.052  0.3692 -0.5913 -0.0197
 3080WAT      O13025   1.485   5.406   1.673 -0.3426  0.3371 -0.0748
 3080WAT     H113026   1.417   5.358   1.647 -1.8962  1.7483  1.1591
 3080WAT     H213027   1.515   5.362   1.743  0.5427 -0.6835 -1.0560
 3080WAT    EPW13028   1.479   5.392   1.680  0.1306 -0.0551 -0.0870
 3081WAT      O13029   6.500   0.266   0.873  0.3592  0.0744 -0.0456
 3081WAT     H113030   6.552   0.196   0.873 -0.9866 -0.9767  0.1750
 3081WAT     H213031   6.434   0.243   0.821 -0.2141  1.1137  0.1786
 3081WAT    EPW13032   6.498   0.252   0.865 -0.3471  0.2336 -0.0063
 3082WAT      O13033   7.450   5.812   2.434 -0.2918  0.0734  0.0589
 3082WAT     H113034   7.529   5.808   2.398 -0.0423 -0.4142  0.6388
 3082WAT     H213035   7.407   5.746   2.396  0.0653 -0.6346  0.8438
 3082WAT    EPW13036   7.455   5.802   2.423  0.3018  0.0158 -0.4474
 3083WAT      O13037   5.061   6.708   7.378 -0.3589  0.2878  0.3854
 3083WAT     H113038   4.987   6.670   7.403  0.1717 -1.3833 -0.4524
 3083WAT     H213039   5.110   6.641   7.351 -0.1411  1.7251 -3.2094
 3083WAT    EPW13040   5.057   6.693   7.378  0.4954  0.4776  0.5980
 3084WAT      O13041   5.782   0.461   1.460  0.9833 -0.1716  0.3622
 3084WAT     H113042   5.784   0.535   1.505  2.7514  0.6270 -0.8951
 3084WAT     H213043   5.725   0.477   1.396  0.3530 -0.4118  0.8502
 3084WAT    EPW13044   5.774   0.474   1.457  0.2217  0.1401  0.2089
 3085WAT      O13045   3.431   2.477   2.385 -0.2120 -0.3631 -0.1000
 3085WAT     H113046   3.398   2.401   2.413 -1.5444  0.1591 -0.1792
 3085WAT     H213047   3.360   2.526   2.370  0.6191  1.6657  1.9577
 3085WAT    EPW13048   3.416   2.473   2.387 -0.1625 -0.8657 -0.8608
 3086WAT      O13049   6.421   5.709   3.558 -0.0654  0.0729 -0.2963
 3086WAT     H113050   6.407   5.778   3.610 -2.4133 -0.9996  0.6176
 3086WAT     H213051   6.491   5.671   3.595 -0.5525  0.3536  0.9931
 3086WAT    EPW13052   6.429   5.714   3.571  0.0838  0.6191 -0.4326
 3087WAT      O13053   6.223   0.703   4.004 -0.3696  0.3386 -0.7100
 3087WAT     H113054   6.234   0.754   3.934  1.7497  0.7755 -0.1172
 3087WAT     H213055   6.240   0.623   3.974 -0.0175  0.4534 -0.8168
 3087WAT    EPW13056   6.227   0.699   3.989  0.2448 -0.0037 -0.5829
 3088WAT      O13057   4.010   7.487   0.750 -0.2726  0.3837  0.0544
 3088WAT     H113058   3.993   7.417   0.799 -0.0159  0.1929 -0.1250
 3088WAT     H213059   3.949   7.545   0.774 -0.3025  0.2024  0.4130
 3088WAT    EPW13060   3.998   7.486   0.761  0.0705  0.1288  0.5631
 3089WAT      O13061   5.839   6.509   2.376 -0.1977 -0.3944 -0.2382
 3089WAT     H113062   5.834   6.500   2.463 -0.3949  0.2092 -0.1853
 3089WAT     H213063   5.793   6.581   2.359  2.3267  1.3098 -0.4802
 3089WAT    EPW13064   5.832   6.518   2.386 -0.3446  0.2780  0.2888
 3090WAT      O13065   5.869   6.220   2.334  0.1303  0.0256 -0.3231
 3090WAT     H113066   5.931   6.190   2.388 -0.2678  0.4248  0.3687
 3090WAT     H213067   5.864   6.305   2.353 -1.2723 -0.1657  0.3036
 3090WAT    EPW13068   5.878   6.228   2.345 -1.5544  0.0298  0.0310
 3091WAT      O13069   6.201   1.025   0.348 -0.3307  0.4090 -0.2221
 3091WAT     H113070   6.211   1.028   0.435  0.6017  0.2484 -0.3129
 3091WAT     H213071   6.208   1.108   0.324  0.8841  0.3018 -0.2817
 3091WAT    EPW13072   6.203   1.038   0.358  0.0113  0.6938  0.5636
 3092WAT      O13073   7.857   4.942   3.385  0.3404  0.0180 -0.0951
 3092WAT     H113074   7.805   4.901   3.442  0.3818 -0.5178 -0.4363
 3092WAT     H213075   7.843   4.899   3.311  0.9489  0.1529 -0.2869
 3092WAT    EPW13076   7.847   4.930   3.383 -0.1417 -0.0958  0.7155
 3093WAT      O13077   7.967   0.764   0.659  0.0962 -0.0142  0.0534
 3093WAT     H113078   8.033   0.711   0.638  0.5691  0.1585  1.0149
 3093WAT     H213079   8.007   0.839   0.678 -0.1110 -0.4463  2.5696
 3093WAT    EPW13080   7.983   0.767   0.659  0.1191 -0.0050  0.1723
 3094WAT      O13081   0.781   0.694   1.211  0.4363  0.6838 -0.8785
 3094WAT     H113082   0.805   0.682   1.128 -1.5234 -3.0845 -1.1149
 3094WAT     H213083   0.829   0.635   1.255 -0.6104  0.5626  0.1719
 3094WAT    EPW13084   0.792   0.683   1.205 -0.8179 -0.1149  0.0208
 3095WAT      O13085   5.183   4.817   5.992 -0.3422  0.0416 -0.5046
 3095WAT     H113086   5.249   4.793   5.940  0.7683 -0.1238  0.9157
 3095WAT     H213087   5.154   4.742   6.025 -0.2608  0.2301 -0.0001
 3095WAT    EPW13088   5.188   4.803   5.989 -0.7181 -0.0977 -0.0949
 3096WAT      O13089   5.484   4.361   4.455  0.3611  0.2726  0.0968
 3096WAT     H113090   5.567   4.389   4.459  1.4328 -1.9741 -2.8360
 3096WAT     H213091   5.456   4.390   4.378 -1.8030  1.3475  1.2168
 3096WAT    EPW13092   5.492   4.369   4.444 -0.0542 -0.2073  0.1056
 3097WAT      O13093   0.040   4.154   2.071 -0.1703 -0.4870 -0.3224
 3097WAT     H113094  -0.030   4.103   2.063 -0.2984 -0.3189 -0.2631
 3097WAT     H213095   0.042   4.197   1.995 -1.3214  1.0293  0.4611
 3097WAT    EPW13096   0.030   4.153   2.058  0.4954  0.1493 -0.4666
 3098WAT      O13097   8.004   3.004   4.981  0.6874  0.5304  0.3264
 3098WAT     H113098   7.966   3.073   4.943  0.7401 -0.4632 -1.6846
 3098WAT     H213099   8.005   2.944   4.918  1.4449 -1.0294  1.7375
 3098WAT    EPW13100   7.999   3.006   4.966 -0.0611 -0.1771 -0.1136
 3099WAT      O13101   2.665   5.358   2.757 -0.0118 -0.3147 -0.1966
 3099WAT     H113102   2.742   5.349   2.718 -0.0525 -1.4265 -0.0517
 3099WAT     H213103   2.644   5.441   2.743  2.4608  0.8528  2.0231
 3099WAT    EPW13104   2.673   5.369   2.749  0.2821 -0.0734 -0.0976
 3100WAT      O13105   7.083   6.392   1.160  0.4182 -0.1373  0.5705
 3100WAT     H113106   7.089   6.353   1.081  0.7503  0.0869  0.4840
 3100WAT     H213107   7.069   6.325   1.214  0.1935 -0.2951  0.3199
 3100WAT    EPW13108   7.082   6.376   1.156  0.1849 -0.1430  0.3794
 3101WAT      O13109   0.220   1.890   3.371  0.0276  0.7067 -0.0031
 3101WAT     H113110   0.249   1.870   3.291 -0.4790  2.2185 -0.6057
 3101WAT     H213111   0.134   1.880   3.364 -0.1176  1.8295  0.0299
 3101WAT    EPW13112   0.211   1.886   3.358 -0.0270  0.0890  0.2931
 3102WAT      O13113   5.908   3.281   1.679 -0.7432  0.3806  0.3508
 3102WAT     H113114   5.994   3.289   1.664 -0.4438 -0.2587  1.5641
 3102WAT     H213115   5.878   3.363   1.674 -0.1449  0.5648 -0.4688
 3102WAT    EPW13116   5.916   3.294   1.676 -0.1239  0.7626 -0.0765
 3103WAT      O13117   7.475   4.880   3.291 -0.4257 -0.0854  0.0640
 3103WAT     H113118   7.500   4.948   3.243 -0.5639  0.0738  0.2161
 3103WAT     H213119   7.455   4.915   3.368 -1.6097 -0.1356 -0.2027
 3103WAT    EPW13120   7.476   4.895   3.295  0.4034 -0.2827 -0.2318
 3104WAT      O13121   0.316   1.475   4.298 -0.0586 -0.2681 -0.0544
 3104WAT     H113122   0.268   1.404   4.283 -0.6926  0.1510 -0.0040
 3104WAT     H213123   0.363   1.453   4.368 -1.7430  0.0840  1.2315
 3104WAT    EPW13124   0.316   1.461   4.306  0.0155  0.2479 -0.0558
 3105WAT      O13125   6.425   6.767   4.049 -0.0228 -0.3619  0.4105
 3105WAT     H113126   6.477   6.719   4.100  1.3303  0.8509  0.2318
 3105WAT     H213127   6.380   6.816   4.106  0.8916  0.3988  0.5072
 3105WAT    EPW13128   6.426   6.767   4.065  0.4477 -0.1480 -0.1375
 3106WAT      O13129   7.747   4.508   3.374  0.1269 -0.1546  0.1963
 3106WAT     H113130   7.835   4.511   3.374  0.2223 -0.0387  2.8021
 3106WAT     H213131   7.729   4.441   3.322  1.8090 -0.5696  0.0701
 3106WAT    EPW13132   7.757   4.499   3.366  0.0418  0.3599  0.4421
 3107WAT      O13133   6.102   6.886   3.738  0.6427  0.7084 -0.6723
 3107WAT     H113134   6.152   6.956   3.728  0.2963  1.4815  2.1071
 3107WAT     H213135   6.038   6.898   3.680  2.8236  0.3897 -3.3020
 3107WAT    EPW13136   6.100   6.898   3.728  0.5742  0.1530  0.3805
 3108WAT      O13137   0.906   4.133   1.616 -0.6554 -0.0378 -0.5713
 3108WAT     H113138   0.964   4.165   1.672 -0.2717 -1.0744 -0.3559
 3108WAT     H213139   0.926   4.171   1.541 -1.0949  1.2723 -0.0474
 3108WAT    EPW13140   0.917   4.143   1.613 -0.1268 -0.1553 -0.5313
 3109WAT      O13141   1.893   7.158   7.111 -0.6130 -0.0813 -0.4671
 3109WAT     H113142   1.864   7.132   7.189  0.9021 -1.3270 -0.2541
 3109WAT     H213143   1.852   7.233   7.097 -0.8330  0.2381  1.5978
 3109WAT    EPW13144   1.883   7.165   7.120  0.0117  0.4091 -0.2143
 3110WAT      O13145   1.524   5.298   5.721 -0.1388 -0.2084  0.1849
 3110WAT     H113146   1.464   5.236   5.731  1.2586 -1.7821 -0.7335
 3110WAT     H213147   1.596   5.254   5.700  0.7219  1.7667 -1.3809
 3110WAT    EPW13148   1.526   5.282   5.719  0.3091  0.0597  0.0142
 3111WAT      O13149   0.640   7.860   2.546  0.4039 -0.2525  0.4631
 3111WAT     H113150   0.682   7.804   2.494 -0.1354  0.3069 -0.5920
 3111WAT     H213151   0.565   7.818   2.563  0.2747 -0.1253  0.2036
 3111WAT    EPW13152   0.635   7.845   2.541 -0.4369 -0.0603 -0.0784
 3112WAT      O13153   4.356   5.714   0.491 -0.1701 -0.5602 -0.1510
 3112WAT     H113154   4.442   5.723   0.479 -0.2992  1.5429  0.0954
 3112WAT     H213155   4.322   5.728   0.411 -0.3696  0.9872  0.1727
 3112WAT    EPW13156   4.363   5.717   0.477  0.0006 -0.8165 -0.6693
 3113WAT      O13157   3.310   5.790   1.244 -0.3280 -0.2521  0.5327
 3113WAT     H113158   3.274   5.733   1.300  0.7232  0.1516  1.6454
 3113WAT     H213159   3.372   5.744   1.204 -0.7240 -0.3872  0.0492
 3113WAT    EPW13160   3.314   5.775   1.246 -0.1268 -0.2048  0.4485
 3114WAT      O13161   7.652   5.771   2.942 -0.6358 -0.1234  0.2741
 3114WAT     H113162   7.602   5.810   2.881 -0.2284  1.1390  0.7176
 3114WAT     H213163   7.657   5.689   2.914 -3.3003 -0.4347  0.3968
 3114WAT    EPW13164   7.645   5.765   2.929  0.2351  0.2060  0.0639
 3115WAT      O13165   3.404   0.094   7.362 -0.0088  0.5096  0.0235
 3115WAT     H113166   3.482   0.054   7.370 -0.8388 -0.9379  1.7555
 3115WAT     H213167   3.349   0.038   7.401 -2.5832 -0.2714 -4.1241
 3115WAT    EPW13168   3.408   0.080   7.369  0.6209 -0.0929 -0.5497
 3116WAT      O13169   7.300   7.492   0.864 -0.6797  0.6633  0.0047
 3116WAT     H113170   7.306   7.411   0.832 -0.4542  0.4010  0.7052
 3116WAT     H213171   7.349   7.539   0.809  1.6139 -0.1545  1.2211
 3116WAT    EPW13172   7.308   7.487   0.851 -0.3255 -0.0788 -0.5891
 3117WAT      O13173   1.362   5.821   3.457  0.1178 -0.2804 -0.8656
 3117WAT     H113174   1.339   5.813   3.374 -0.8529  0.4897 -0.6880
 3117WAT     H213175   1.356   5.907   3.472 -1.0179 -0.5269  0.3349
 3117WAT    EPW13176   1.358   5.833   3.447 -0.6050  0.2607 -0.1415
 3118WAT      O13177   7.355   3.546   0.504 -0.6946 -0.3296  0.0056
 3118WAT     H113178   7.334   3.504   0.431 -0.9989  0.5700 -0.4303
 3118WAT     H213179   7.388   3.622   0.476 -0.2232 -0.2320  0.7872
 3118WAT    EPW13180   7.357   3.551   0.489  0.2975  0.1319  0.1647
 3119WAT      O13181   7.780   2.708   3.806 -0.2223  0.1198  0.4734
 3119WAT     H113182   7.847   2.722   3.861 -0.5302 -0.1822  0.9371
 3119WAT     H213183   7.731   2.649   3.849 -0.7974  0.3573  0.1501
 3119WAT    EPW13184   7.783   2.701   3.820 -0.2155 -0.0622 -0.3966
 3120WAT      O13185   1.018   2.645   1.734  0.4386 -0.1270 -0.4698
 3120WAT     H113186   1.072   2.710   1.754 -0.4324  0.5321 -0.1660
 3120WAT     H213187   0.976   2.629   1.809  0.6751 -1.0750 -0.5308
 3120WAT    EPW13188   1.020   2.652   1.748  0.0169 -0.4711  0.3330
 3121WAT      O13189   3.701   4.820   7.106  0.2206 -0.0750  0.5678
 3121WAT     H113190   3.747   4.891   7.086  1.4326 -0.6350  1.2318
 3121WAT     H213191   3.702   4.819   7.193  1.8057 -1.8480  0.5986
 3121WAT    EPW13192   3.708   4.830   7.116 -0.5601  0.5609 -0.1731
 3122WAT      O13193   4.693   1.357   1.571 -0.2263 -0.3417 -0.4772
 3122WAT     H113194   4.635   1.366   1.636  0.4776 -2.2473  0.4823
 3122WAT     H213195   4.648   1.312   1.511 -0.1721 -0.5351 -0.3696
 3122WAT    EPW13196   4.678   1.352   1.572 -0.1869 -0.2687  0.2450
 3123WAT      O13197   5.038   0.181   7.638  0.7117 -0.7192  0.5081
 3123WAT     H113198   4.985   0.111   7.645  0.9967 -1.0763 -0.7468
 3123WAT     H213199   5.086   0.178   7.711 -2.3003  0.7758  2.7843
 3123WAT    EPW13200   5.037   0.170   7.650  0.0992  0.9636  0.2644
 3124WAT      O13201   5.066   6.542   6.487 -0.0727  0.5875  0.3128
 3124WAT     H113202   5.072   6.505   6.566  0.6985 -1.0135 -0.4626
 3124WAT     H213203   5.140   6.519   6.447 -2.1992 -2.4412 -2.3919
 3124WAT    EPW13204   5.077   6.534   6.493  0.3415 -0.3237 -0.0220
 3125WAT      O13205   4.834   2.566   2.828  0.6161 -0.0631 -0.5026
 3125WAT     H113206   4.900   2.592   2.779  0.7098  0.5440 -0.0659
 3125WAT     H213207   4.802   2.640   2.861  1.2560 -0.4931  1.2398
 3125WAT    EPW13208   4.839   2.580   2.826 -0.2009 -0.3372 -0.5183
 3126WAT      O13209   1.053   6.961   2.421 -0.2860  0.1670 -0.1377
 3126WAT     H113210   1.099   7.023   2.463  1.8268 -1.0723 -0.4893
 3126WAT     H213211   1.068   6.978   2.337 -2.5502  1.1878 -0.4072
 3126WAT    EPW13212   1.062   6.973   2.415 -0.1029 -0.0046 -0.2231
 3127WAT      O13213   7.070   6.665   2.209  0.7736  0.4005  0.5882
 3127WAT     H113214   6.987   6.637   2.207  1.0823 -0.4917 -0.1958
 3127WAT     H213215   7.063   6.747   2.237 -0.3702  0.3117  0.6011
 3127WAT    EPW13216   7.057   6.673   2.213 -0.2706 -0.3856 -0.3214
 3128WAT      O13217   6.586   4.052   3.838  0.2569 -0.0546  0.2682
 3128WAT     H113218   6.595   4.133   3.806  0.3090  0.1781  0.8686
 3128WAT     H213219   6.607   4.002   3.770  0.9788  0.4444  0.1056
 3128WAT    EPW13220   6.590   4.057   3.823 -0.4803  0.5506  0.0479
 3129WAT      O13221   6.333   5.691   2.421  0.7362  0.2647 -0.7277
 3129WAT     H113222   6.253   5.658   2.425 -0.1986  2.5005  1.3005
 3129WAT     H213223   6.384   5.620   2.428 -1.0624 -1.0177  0.3504
 3129WAT    EPW13224   6.329   5.675   2.422 -0.2296  0.6011  0.2830
 3130WAT      O13225   1.224   7.467   1.205 -0.3643 -0.2986 -0.1111
 3130WAT     H113226   1.148   7.495   1.173 -0.3141 -0.2756 -0.2105
 3130WAT     H213227   1.213   7.474   1.291 -1.1357 -1.9819 -0.0269
 3130WAT    EPW13228   1.211   7.472   1.213 -0.1487 -0.3785 -0.0144
 3131WAT      O13229   7.034   1.424   1.156 -0.0470 -0.2551  0.5898
 3131WAT     H113230   7.102   1.372   1.169 -0.3050 -1.0973 -1.1321
 3131WAT     H213231   6.987   1.416   1.229  1.3504 -0.1282  1.5518
 3131WAT    EPW13232   7.037   1.415   1.169 -0.2469  0.3334  0.3553
 3132WAT      O13233   2.604   6.307   7.146  0.2593  0.1594 -0.0678
 3132WAT     H113234   2.597   6.261   7.220  0.0766  0.3759  0.0471
 3132WAT     H213235   2.563   6.256   7.087  1.8263 -0.8181 -0.3910
 3132WAT    EPW13236   2.596   6.292   7.148 -0.6353 -0.6680  0.0319
 3133WAT      O13237   6.082   4.458   4.890 -0.1792 -0.0405 -0.0108
 3133WAT     H113238   6.143   4.496   4.840 -0.2542 -0.5351 -0.4897
 3133WAT     H213239   6.127   4.400   4.936 -0.1352  0.3039  0.3852
 3133WAT    EPW13240   6.097   4.455   4.889 -0.1265  0.9409 -0.3215
 3134WAT      O13241   0.537   0.280   4.707 -0.2966  0.0357 -0.5665
 3134WAT     H113242   0.591   0.348   4.704 -1.6735  1.1699 -1.1907
 3134WAT     H213243   0.584   0.217   4.745  2.1301  0.2532 -2.9280
 3134WAT    EPW13244   0.552   0.281   4.713  0.0453  0.4805  0.4905
 3135WAT      O13245   8.043   7.933   2.303 -0.0584 -0.1672 -0.1759
 3135WAT     H113246   7.962   7.962   2.290  0.0045 -0.8898 -2.8244
 3135WAT     H213247   8.092   8.005   2.294 -0.3587  0.3199  1.7086
 3135WAT    EPW13248   8.038   7.948   2.300  0.5256 -0.1257  0.8219
 3136WAT      O13249   7.233   4.884   2.290  0.2781 -0.0059  0.4020
 3136WAT     H113250   7.293   4.916   2.236 -0.6565  1.1911  0.0290
 3136WAT     H213251   7.266   4.901   2.369  0.5216  0.4749  0.2019
 3136WAT    EPW13252   7.246   4.892   2.294 -0.0214 -0.3614  0.2102
 3137WAT      O13253   7.017   1.870   1.601 -0.1294  0.2786 -0.0134
 3137WAT     H113254   7.082   1.927   1.589 -0.6715  1.0776  0.7242
 3137WAT     H213255   7.025   1.849   1.686 -0.6525  0.1607  0.0067
 3137WAT    EPW13256   7.028   1.875   1.612 -0.0942  0.3637 -0.3565
 3138WAT      O13257   3.036   1.968   0.514  0.8377  0.1024  0.2405
 3138WAT     H113258   2.968   2.003   0.556 -1.5982 -1.3624 -2.1159
 3138WAT     H213259   3.063   2.032   0.461 -2.0784 -0.5746 -2.3681
 3138WAT    EPW13260   3.030   1.982   0.512 -0.0441  0.4370 -0.2354
 3139WAT      O13261   5.304   6.462   0.828  0.0627  0.3416  0.1665
 3139WAT     H113262   5.324   6.462   0.913 -0.2492  0.9375  0.2422
 3139WAT     H213263   5.230   6.508   0.824  1.4498  2.6147 -0.7632
 3139WAT    EPW13264   5.296   6.469   0.840 -0.3175  0.4821 -0.1060
 3140WAT      O13265   5.937   5.626   1.758  0.5268 -0.0842  0.3847
 3140WAT     H113266   5.969   5.602   1.836 -0.5229  0.7596  1.1159
 3140WAT     H213267   6.005   5.662   1.718  1.4405 -1.7788  0.3355
 3140WAT    EPW13268   5.952   5.628   1.764  0.3022 -0.0497 -0.2164
 3141WAT      O13269   4.910   4.041   2.125 -0.1854 -0.7008  0.5701
 3141WAT     H113270   4.907   4.033   2.038  1.7649  1.7237  0.1855
 3141WAT     H213271   4.843   4.094   2.142  0.3771  0.1095  0.3149
 3141WAT    EPW13272   4.899   4.048   2.115 -0.3340 -0.2651 -0.3538
 3142WAT      O13273   0.398   4.623   1.444  0.2500 -0.4471  0.0817
 3142WAT     H113274   0.350   4.687   1.410 -0.2486 -0.3809  0.8810
 3142WAT     H213275   0.346   4.554   1.443  1.1944 -1.1891 -1.9086
 3142WAT    EPW13276   0.383   4.622   1.439  0.3266  0.4374 -0.1128
 3143WAT      O13277   0.382   7.672   2.134 -0.0637  0.1039  0.7966
 3143WAT     H113278   0.320   7.646   2.189 -0.2310 -1.7111 -0.1818
 3143WAT     H213279   0.339   7.709   2.068 -0.0760 -0.5767  0.4179
 3143WAT    EPW13280   0.367   7.674   2.133  0.5726  0.0671 -0.0912
 3144WAT      O13281   0.146   2.723   2.310 -0.1809  0.1759 -0.0475
 3144WAT     H113282   0.115   2.800   2.337  1.0688  0.7352 -0.1174
 3144WAT     H213283   0.229   2.741   2.291 -0.0029 -1.0942 -0.5261
 3144WAT    EPW13284   0.154   2.737   2.312  0.2043 -0.2516 -0.5333
 3145WAT      O13285   3.072   3.459   7.055  0.2198 -0.1024 -0.1324
 3145WAT     H113286   3.150   3.419   7.047  0.2590  0.1778 -1.2273
 3145WAT     H213287   3.026   3.429   6.987 -0.4941  0.0594  0.2693
 3145WAT    EPW13288   3.077   3.449   7.044 -0.4170  0.3670 -0.2589
 3146WAT      O13289   2.685   4.430   2.937 -0.3729 -0.0396 -0.1778
 3146WAT     H113290   2.715   4.511   2.922 -0.2870  0.1644  0.9830
 3146WAT     H213291   2.652   4.405   2.860  2.0179  0.0449 -1.3049
 3146WAT    EPW13292   2.684   4.438   2.924 -1.0423 -0.4597 -0.0405
 3147WAT      O13293   5.828   6.284   7.993  0.4653  0.4495 -0.1291
 3147WAT     H113294   5.850   6.363   7.964  0.5520 -0.6916 -3.7254
 3147WAT     H213295   5.905   6.249   8.018  0.4157  1.4122  1.5279
 3147WAT    EPW13296   5.843   6.290   7.993 -1.3591 -0.5693  0.1058
 3148WAT      O13297   0.423   7.808   3.577  0.1497 -0.2501 -0.1045
 3148WAT     H113298   0.506   7.800   3.549 -0.2866 -1.1107 -1.2478
 3148WAT     H213299   0.403   7.891   3.559  0.4615 -0.3050 -0.7511
 3148WAT    EPW13300   0.433   7.819   3.570  0.4411  0.5030  0.2852
 3149WAT      O13301   5.803   1.619   6.184 -0.1352  0.2977 -0.2160
 3149WAT     H113302   5.792   1.533   6.195 -0.5921  0.4064  0.2042
 3149WAT     H213303   5.798   1.628   6.097 -0.6872 -0.0286 -0.2289
 3149WAT    EPW13304   5.801   1.607   6.173 -0.8782  0.6101 -0.3105
 3150WAT      O13305   0.022   7.031   0.598  0.5900 -0.0284 -0.9304
 3150WAT     H113306  -0.033   7.053   0.533 -1.1318 -1.9780 -0.2751
 3150WAT     H213307   0.022   6.944   0.595  1.2888 -0.1324  1.0433
 3150WAT    EPW13308   0.014   7.021   0.588  0.1192 -0.0921  0.2247
 3151WAT      O13309   3.377   0.776   2.986  0.1134  0.1462  0.7812
 3151WAT     H113310   3.321   0.833   2.951  1.3266  0.0344 -1.5018
 3151WAT     H213311   3.372   0.707   2.934  1.5040 -0.3198  1.2085
 3151WAT    EPW13312   3.368   0.774   2.973  0.0323  0.6708 -0.1100
 3152WAT      O13313   6.384   0.064   2.842 -0.4310  0.0031  0.0054
 3152WAT     H113314   6.321   0.123   2.859 -0.6366 -0.0683 -0.4830
 3152WAT     H213315   6.444   0.110   2.800 -0.9798 -0.3018 -1.1555
 3152WAT    EPW13316   6.383   0.080   2.838 -0.3065 -0.1432  0.1265
 3153WAT      O13317   3.101   6.016   1.328  0.2094  0.1478  0.7022
 3153WAT     H113318   3.140   5.970   1.266 -0.6537 -0.3579  0.5128
 3153WAT     H213319   3.025   5.975   1.339 -0.6580  1.6160  0.4224
 3153WAT    EPW13320   3.095   6.003   1.321 -0.2600  0.1035  0.0434
 3154WAT      O13321   0.980   0.313   3.793 -0.1376 -0.3518 -0.3138
 3154WAT     H113322   0.981   0.353   3.870  0.0498 -0.8379 -0.0589
 3154WAT     H213323   1.015   0.372   3.739 -0.7415  0.1830 -0.1274
 3154WAT    EPW13324   0.985   0.328   3.796 -0.5404  0.0114 -0.3770
 3155WAT      O13325   6.765   4.255   0.919  0.5267  0.2935  0.0061
 3155WAT     H113326   6.726   4.265   0.997 -0.2976  1.0348 -0.4784
 3155WAT     H213327   6.829   4.313   0.921 -0.2237  1.1479 -0.3084
 3155WAT    EPW13328   6.769   4.265   0.931 -0.3321  0.5285 -0.1680
 3156WAT      O13329   6.423   7.688   0.825  0.2570  0.3988  0.6440
 3156WAT     H113330   6.502   7.707   0.792  0.9790  1.1126  2.6279
 3156WAT     H213331   6.441   7.664   0.908 -1.3909 -1.7234  0.4752
 3156WAT    EPW13332   6.438   7.687   0.833  0.1024  0.1166 -0.0871
 3157WAT      O13333   6.695   4.068   4.088 -0.0576 -0.0518  0.1120
 3157WAT     H113334   6.657   4.070   4.009 -0.0173 -0.7877  0.0667
 3157WAT     H213335   6.778   4.048   4.070  0.2326  0.9904  0.2547
 3157WAT    EPW13336   6.701   4.065   4.073  0.3332  0.0186 -0.1394
 3158WAT      O13337   4.559   7.987   7.622  0.5301 -0.1393 -0.3000
 3158WAT     H113338   4.542   7.903   7.633  0.3758 -0.1571 -0.6576
 3158WAT     H213339   4.482   8.026   7.633  0.8351  0.1099  1.2653
 3158WAT    EPW13340   4.545   7.980   7.625 -0.0728  0.2482 -0.1119
 3159WAT      O13341   7.359   1.437   4.487  0.1483 -0.3417  0.3655
 3159WAT     H113342   7.278   1.455   4.512  0.3426  0.4270  0.4944
 3159WAT     H213343   7.398   1.516   4.486  0.8376 -0.6728  0.1371
 3159WAT    EPW13344   7.353   1.452   4.491 -0.2207  0.0660  0.8637
 3160WAT      O13345   5.770   2.609   0.272 -0.1377  0.2323  0.5318
 3160WAT     H113346   5.793   2.624   0.189 -0.1421  0.3866  0.5589
 3160WAT     H213347   5.688   2.637   0.277  0.2070  1.2422  0.8653
 3160WAT    EPW13348   5.761   2.615   0.261  0.1565  0.1808  0.7144
 3161WAT      O13349   7.800   3.679   2.449 -0.1776 -0.3687  0.0110
 3161WAT     H113350   7.737   3.740   2.457 -0.1049 -0.4029  0.9178
 3161WAT     H213351   7.853   3.713   2.388 -0.7280 -0.0409 -0.2977
 3161WAT    EPW13352   7.799   3.693   2.441  0.1479 -0.3956 -0.4699
 3162WAT      O13353   6.672   3.426   0.481  0.3996  0.7111 -0.4989
 3162WAT     H113354   6.667   3.395   0.400 -1.2294  0.3106 -0.2791
 3162WAT     H213355   6.692   3.355   0.529  0.4855  0.7698 -0.4475
 3162WAT    EPW13356   6.675   3.411   0.476 -0.8088 -0.3991 -0.8024
 3163WAT      O13357   6.617   5.448   1.127 -0.3933  0.2374  0.3412
 3163WAT     H113358   6.599   5.477   1.207  1.2362  1.3352  0.3601
 3163WAT     H213359   6.589   5.366   1.128 -1.3357  0.5444  1.6933
 3163WAT    EPW13360   6.610   5.440   1.139 -0.5013 -0.2967 -0.6064
 3164WAT      O13361   3.085   6.722   6.765 -0.3838  0.1567 -0.0506
 3164WAT     H113362   3.009   6.729   6.722  0.4541  0.3800 -1.5577
 3164WAT     H213363   3.142   6.702   6.703  0.6286 -1.1283  1.2338
 3164WAT    EPW13364   3.082   6.720   6.750 -0.2915  0.1934 -0.0105
 3165WAT      O13365   5.096   1.774   6.492 -0.4091  0.0124  0.5393
 3165WAT     H113366   5.031   1.829   6.510 -0.9508 -0.2384 -0.5656
 3165WAT     H213367   5.062   1.722   6.431  1.2408  0.7342 -1.0915
 3165WAT    EPW13368   5.081   1.774   6.485 -0.3813 -0.4726  0.1032
 3166WAT      O13369   3.992   2.507   0.372  0.1348 -0.1170 -0.0039
 3166WAT     H113370   4.030   2.470   0.441 -1.0823  1.4997  1.6352
 3166WAT     H213371   4.013   2.591   0.380 -0.1499  0.1385 -1.5625
 3166WAT    EPW13372   4.001   2.514   0.383 -0.4173  0.1297 -0.1832
 3167WAT      O13373   6.409   3.808   0.826  0.1545 -0.6849  0.0357
 3167WAT     H113374   6.443   3.887   0.816 -0.9276 -0.4140 -2.5361
 3167WAT     H213375   6.474   3.754   0.805  0.4437 -0.4027  0.2169
 3167WAT    EPW13376   6.423   3.812   0.821  0.6718 -0.0149 -0.2048
 3168WAT      O13377   1.162   2.284   3.557 -0.1637  0.2242  0.4146
 3168WAT     H113378   1.242   2.268   3.525 -0.6042  0.8829 -1.0854
 3168WAT     H213379   1.109   2.251   3.497 -1.0399  1.0342  0.7221
 3168WAT    EPW13380   1.166   2.277   3.544  0.4982  0.0740  0.7568
 3169WAT      O13381   6.991   2.884   4.584 -0.4697  0.4436 -0.1408
 3169WAT     H113382   6.930   2.837   4.543  0.6374  0.4798 -1.9164
 3169WAT     H213383   7.047   2.906   4.521  0.7241  1.4906  1.2002
 3169WAT    EPW13384   6.991   2.880   4.569 -0.1785  0.0341  0.0505
 3170WAT      O13385   4.497  -0.014   6.246 -0.6097 -0.5459 -0.6985
 3170WAT     H113386   4.411  -0.016   6.232 -0.7703  0.3255  0.0512
 3170WAT     H213387   4.512   0.069   6.266  0.2418 -0.8849  0.1486
 3170WAT    EPW13388   4.486  -0.002   6.247 -0.3567 -0.3016 -0.3095
 3171WAT      O13389   5.048   7.182   4.612  0.1885 -0.1692  0.1232
 3171WAT     H113390   4.988   7.228   4.654  0.5005 -1.3129  1.9303
 3171WAT     H213391   5.081   7.129   4.674  2.2476 -0.3795 -1.0389
 3171WAT    EPW13392   5.044   7.181   4.627  0.3705  0.3730 -0.3384
 3172WAT      O13393   6.175   6.503   3.495  0.1898  0.2507 -0.3970
 3172WAT     H113394   6.089   6.516   3.500  0.4700  1.9736  1.4801
 3172WAT     H213395   6.203   6.526   3.574  2.4746  0.5777 -1.2448
 3172WAT    EPW13396   6.166   6.508   3.507  0.1587  0.2822 -0.0810
 3173WAT      O13397   6.797   1.350   2.391 -0.1295  0.4522 -0.3179
 3173WAT     H113398   6.797   1.287   2.452  0.5990 -0.7980 -1.5650
 3173WAT     H213399   6.870   1.394   2.409 -0.6538  0.9938  0.5755
 3173WAT    EPW13400   6.808   1.347   2.403  0.1278 -0.2663  0.2838
 3174WAT      O13401   3.789   0.938   1.100  0.1065 -0.4161  0.0938
 3174WAT     H113402   3.857   0.992   1.105 -0.7775  0.9140 -1.3534
 3174WAT     H213403   3.728   0.976   1.149 -0.6586  0.1967 -1.2595
 3174WAT    EPW13404   3.790   0.951   1.108 -0.5779 -0.1550  0.5889
 3175WAT      O13405   6.319   6.174   7.912  0.4286 -0.0168 -0.3481
 3175WAT     H113406   6.255   6.156   7.968  1.5133 -2.2892  0.2841
 3175WAT     H213407   6.391   6.155   7.956  1.3584 -1.1686 -2.2293
 3175WAT    EPW13408   6.320   6.168   7.926  0.1933  0.5893 -0.4005
 3176WAT      O13409   3.133   2.456   0.117 -0.5144 -0.0020 -0.0851
 3176WAT     H113410   3.121   2.410   0.044  0.1140  0.1041 -0.2667
 3176WAT     H213411   3.067   2.513   0.117 -2.7400 -2.3739  1.3756
 3176WAT    EPW13412   3.121   2.458   0.106  0.0846 -0.3756 -0.1537
 3177WAT      O13413   2.019   0.342   0.355 -0.2950  0.1905  0.0367
 3177WAT     H113414   1.995   0.299   0.283  0.0964  0.7299 -0.4252
 3177WAT     H213415   2.049   0.279   0.407 -1.5013 -0.3333  0.1307
 3177WAT    EPW13416   2.020   0.326   0.352  0.7736  0.4917  0.9942
 3178WAT      O13417   5.452   4.836   7.515  0.1244  0.2774 -0.9513
 3178WAT     H113418   5.398   4.770   7.530  0.1624  0.3502 -0.4673
 3178WAT     H213419   5.398   4.903   7.497 -0.1592  1.0703  2.2004
 3178WAT    EPW13420   5.436   4.836   7.515  0.0007  0.2285  0.1535
 3179WAT      O13421   6.090   6.879   3.045 -0.0821 -0.0677 -0.5541
 3179WAT     H113422   6.083   6.827   2.976 -0.4231 -0.0096 -0.5675
 3179WAT     H213423   6.014   6.923   3.045  0.1991  0.4265 -0.5454
 3179WAT    EPW13424   6.078   6.878   3.035 -0.7150 -0.0141  0.5200
 3180WAT      O13425   3.285   6.132   2.218 -0.2417  0.1706  0.0119
 3180WAT     H113426   3.303   6.215   2.238 -2.9458  0.5175  1.4335
 3180WAT     H213427   3.322   6.121   2.139  0.1428  2.7337 -0.2309
 3180WAT    EPW13428   3.293   6.142   2.209 -0.2745 -0.1000  0.0347
 3181WAT      O13429   4.927   7.526   7.787 -0.4390  0.3794  0.3939
 3181WAT     H113430   4.933   7.603   7.828 -1.8914 -0.1691  1.7307
 3181WAT     H213431   4.931   7.467   7.852  2.0009 -0.8098 -0.7031
 3181WAT    EPW13432   4.929   7.529   7.803  0.0865  0.2039  0.0540
 3182WAT      O13433   5.208   4.761   2.394 -0.6080 -0.1554  0.4315
 3182WAT     H113434   5.172   4.833   2.427  0.0306  1.1170 -1.4802
 3182WAT     H213435   5.254   4.728   2.461 -1.2662  0.9555  1.4618
 3182WAT    EPW13436   5.210   4.767   2.409  0.1899  0.0253 -0.4306
 3183WAT      O13437   0.854   5.787   8.035 -0.3205 -0.5832 -0.1456
 3183WAT     H113438   0.891   5.865   8.052 -2.4127  0.9891 -2.1019
 3183WAT     H213439   0.921   5.736   8.014  1.2384  0.3426  2.1290
 3183WAT    EPW13440   0.869   5.791   8.035 -0.5016 -0.0786  0.5031
 3184WAT      O13441   3.115   7.645   2.184  0.3922  0.0507 -0.4671
 3184WAT     H113442   3.174   7.673   2.242 -0.5309  1.4244 -0.1500
 3184WAT     H213443   3.039   7.667   2.219 -0.3731 -1.8231 -0.7942
 3184WAT    EPW13444   3.113   7.652   2.198  0.1024  0.3402 -0.0774
 3185WAT      O13445   5.443   4.439   2.404  0.0866  0.4397  0.2931
 3185WAT     H113446   5.427   4.486   2.476  2.6647 -0.3941  1.5271
 3185WAT     H213447   5.492   4.373   2.433  0.4605 -0.4242 -2.1017
 3185WAT    EPW13448   5.448   4.436   2.419  0.5198 -0.3660  0.0748
 3186WAT      O13449   0.211   5.964   1.455  0.5364  0.1887 -0.0469
 3186WAT     H113450   0.181   6.040   1.425 -0.6925  0.1307  0.9484
 3186WAT     H213451   0.150   5.939   1.512  0.9788 -1.4844 -0.2522
 3186WAT    EPW13452   0.198   5.972   1.459 -0.7713  0.1498  0.7661
 3187WAT      O13453   6.712   2.316   0.885  0.3840 -0.4925 -0.5900
 3187WAT     H113454   6.730   2.332   0.802 -0.7925 -1.3563 -1.0407
 3187WAT     H213455   6.742   2.387   0.927  0.0494  0.4290 -1.8633
 3187WAT    EPW13456   6.719   2.329   0.879  0.5544  0.3904 -0.3990
 3188WAT      O13457   0.151   4.057   4.820 -0.0847 -0.6444  0.1966
 3188WAT     H113458   0.198   3.983   4.827  0.7806 -0.1737 -0.4126
 3188WAT     H213459   0.099   4.055   4.890 -0.9199 -2.4090 -0.3956
 3188WAT    EPW13460   0.150   4.046   4.831  0.0770 -0.1584 -0.3598
 3189WAT      O13461   3.813   2.380   3.471  0.0860  0.0383 -0.2734
 3189WAT     H113462   3.863   2.314   3.500  0.0908 -0.6507 -1.7543
 3189WAT     H213463   3.830   2.445   3.526  2.4107 -0.2722 -0.5423
 3189WAT    EPW13464   3.823   2.380   3.483  0.2085 -0.0958 -0.1267
 3190WAT      O13465   5.211   7.471   8.035 -0.3089 -0.2281  0.0133
 3190WAT     H113466   5.133   7.509   8.032  0.2155  1.0745  1.2452
 3190WAT     H213467   5.198   7.402   8.087 -1.5927 -2.7734 -3.3369
 3190WAT    EPW13468   5.198   7.467   8.042 -0.2865  0.3104 -0.3723
 3191WAT      O13469   7.580   2.511   2.664 -0.3620  0.2681  0.1581
 3191WAT     H113470   7.592   2.465   2.737  0.3386  2.1715  1.2874
 3191WAT     H213471   7.624   2.465   2.604  0.5541 -0.3957  1.3007
 3191WAT    EPW13472   7.589   2.497   2.666 -0.1346 -0.1419 -0.8116
 3192WAT      O13473   4.164   0.641   2.754 -0.0871  0.4627  0.5988
 3192WAT     H113474   4.219   0.691   2.709  0.3301 -1.0533 -0.6542
 3192WAT     H213475   4.092   0.690   2.759  0.9219  1.9586  1.1563
 3192WAT    EPW13476   4.161   0.656   2.748  0.0569 -0.0487 -0.0429
 3193WAT      O13477   5.185   5.210   6.502  0.0006 -0.5964 -0.3328
 3193WAT     H113478   5.245   5.242   6.446  0.3394 -1.5941 -0.5512
 3193WAT     H213479   5.119   5.267   6.496  0.4182 -0.1735 -1.0398
 3193WAT    EPW13480   5.184   5.223   6.493 -0.3692  0.1455 -0.8125
 3194WAT      O13481   5.945   7.865   4.800 -0.0803  0.2327  0.0043
 3194WAT     H113482   5.859   7.876   4.796 -0.4835 -2.4430 -0.5815
 3194WAT     H213483   5.955   7.794   4.849  1.7325 -0.2069 -0.8961
 3194WAT    EPW13484   5.934   7.856   4.807  0.0335 -0.1719 -0.1481
 3195WAT      O13485   6.915   5.936   1.142  0.3374 -0.2433 -0.0669
 3195WAT     H113486   6.977   5.992   1.164 -0.2243  0.5229 -0.3911
 3195WAT     H213487   6.948   5.858   1.164  0.9510  0.2451  0.7745
 3195WAT    EPW13488   6.929   5.933   1.148  0.6839 -0.0413 -0.2953
 3196WAT      O13489   4.053   6.952   1.033 -0.3322  0.3973 -0.4229
 3196WAT     H113490   4.086   7.006   0.973  3.6870 -1.0486  0.1143
 3196WAT     H213491   4.003   6.898   0.987  1.2019  0.4175 -2.2543
 3196WAT    EPW13492   4.051   6.952   1.017  0.0885 -0.3692  0.3290
 3197WAT      O13493   3.417   0.089   1.987 -0.3472  0.2611 -0.2181
 3197WAT     H113494   3.439   0.164   1.948 -1.1448  1.0488  0.7922
 3197WAT     H213495   3.492   0.061   2.021 -0.2700  1.2409  0.4358
 3197WAT    EPW13496   3.432   0.096   1.986 -0.5629 -0.8252 -0.2530
 3198WAT      O13497   5.752   5.235   6.146 -0.4674  0.4230 -0.0255
 3198WAT     H113498   5.733   5.166   6.196  0.1084  0.2751 -0.0112
 3198WAT     H213499   5.784   5.293   6.202 -1.1313  0.7831 -0.0065
 3198WAT    EPW13500   5.754   5.233   6.162  0.0263  0.2482  0.0166
 3199WAT      O13501   4.314   3.545   1.768  0.3564  0.3732  0.0904
 3199WAT     H113502   4.348   3.608   1.720  1.2249  0.4852  0.8397
 3199WAT     H213503   4.350   3.556   1.846  0.5965 -1.1006  0.2155
 3199WAT    EPW13504   4.324   3.556   1.772 -0.6070  0.0548 -0.1986
 3200WAT      O13505   4.705   4.138   7.468  0.1093 -0.3624  0.1622
 3200WAT     H113506   4.627   4.145   7.508  0.1631 -1.7878  0.5604
 3200WAT     H213507   4.693   4.181   7.393 -0.4789  1.0129  1.0015
 3200WAT    EPW13508   4.691   4.146   7.463 -0.1706 -0.6023 -0.3717
 3201WAT      O13509   1.288   3.521   2.675  0.0860 -0.3468 -0.5713
 3201WAT     H113510   1.352   3.478   2.636  0.0501 -2.3745  1.3745
 3201WAT     H213511   1.217   3.499   2.629  0.2726 -1.2933 -0.4240
 3201WAT    EPW13512   1.287   3.511   2.663 -0.1096 -0.0923 -0.3856
 3202WAT      O13513   6.915   2.924   1.955  0.6881 -0.2415  0.3442
 3202WAT     H113514   6.846   2.896   2.001 -0.2825  0.0729 -0.8681
 3202WAT     H213515   6.904   3.010   1.951  0.4300 -0.3174 -0.9476
 3202WAT    EPW13516   6.903   2.933   1.962 -0.4180 -0.1202  0.5176
 3203WAT      O13517   6.235   2.814   2.624 -0.2810 -0.1996 -0.1857
 3203WAT     H113518   6.183   2.769   2.678  0.4202  0.1204  0.7918
 3203WAT     H213519   6.257   2.756   2.563  0.3081 -1.1069  0.8437
 3203WAT    EPW13520   6.231   2.799   2.623 -0.0062 -0.0929  0.3883
 3204WAT      O13521   0.182   3.192   1.561  0.4290 -0.2450  0.5271
 3204WAT     H113522   0.187   3.231   1.483  2.1626  1.4564  1.3961
 3204WAT     H213523   0.169   3.108   1.542 -1.2964  0.3971 -1.5101
 3204WAT    EPW13524   0.181   3.186   1.547 -0.0866  0.4917  0.3106
 3205WAT      O13525   7.087   2.632   0.776 -0.0168 -0.0711 -0.1983
 3205WAT     H113526   7.104   2.565   0.829  1.0532 -1.7699 -2.5288
 3205WAT     H213527   7.159   2.639   0.728 -1.1795  0.8975 -1.9190
 3205WAT    EPW13528   7.100   2.623   0.777 -0.0370  0.2474 -0.0150
 3206WAT      O13529   6.757   7.268   1.701  0.3096 -0.2217  0.8866
 3206WAT     H113530   6.819   7.329   1.706 -1.1234  1.3537  0.0611
 3206WAT     H213531   6.754   7.248   1.617 -0.8301  0.2867  0.7960
 3206WAT    EPW13532   6.766   7.274   1.690  0.2304  0.5355 -0.5040
 3207WAT      O13533   2.399   0.248   0.435  0.3092 -0.4498  0.4885
 3207WAT     H113534   2.398   0.168   0.469  3.2538 -1.4479 -1.3265
 3207WAT     H213535   2.434   0.236   0.356  0.3087  2.5639 -0.0885
 3207WAT    EPW13536   2.404   0.235   0.428  0.2101  0.0715  0.3092
 3208WAT      O13537   0.635   5.509   2.098  0.0250 -0.4599 -0.1432
 3208WAT     H113538   0.719   5.527   2.081 -0.2508  1.3838  0.2959
 3208WAT     H213539   0.591   5.551   2.035 -0.7091  1.8784  1.7876
 3208WAT    EPW13540   0.641   5.518   2.086 -0.7711 -0.5665  0.0095
 3209WAT      O13541   2.129   3.821   1.935 -0.2470  0.4695  0.1956
 3209WAT     H113542   2.122   3.769   2.005 -1.2580  0.8875  0.4351
 3209WAT     H213543   2.206   3.801   1.901 -0.9416 -1.8058 -0.2043
 3209WAT    EPW13544   2.139   3.811   1.940  0.0710  0.1002 -0.3071
 3210WAT      O13545   1.220   5.748   4.273  0.1371 -0.0638  0.0392
 3210WAT     H113546   1.174   5.728   4.344  1.8555  0.0811  1.2415
 3210WAT     H213547   1.182   5.820   4.243  1.2725  1.7410  2.6641
 3210WAT    EPW13548   1.207   5.755   4.279  0.1295 -0.1125 -0.2794
 3211WAT      O13549   0.477   1.945   0.995 -0.6504 -0.2214  1.0523
 3211WAT     H113550   0.454   2.029   1.004  0.7473  0.6582 -1.9966
 3211WAT     H213551   0.406   1.909   0.960 -0.2688  0.5298 -0.6172
 3211WAT    EPW13552   0.463   1.952   0.991 -0.0678  0.1423  0.1005
 3212WAT      O13553   7.172   5.155   3.420  0.0038 -0.6019  0.2191
 3212WAT     H113554   7.185   5.165   3.334 -2.3296  0.9761 -0.0227
 3212WAT     H213555   7.212   5.224   3.455 -1.5450  0.4234  0.0736
 3212WAT    EPW13556   7.180   5.166   3.413  0.5453  0.1316 -0.0256
 3213WAT      O13557   7.114   2.177   3.509  0.6184 -0.2835 -0.0479
 3213WAT     H113558   7.164   2.191   3.580  0.3709 -1.2662  0.3359
 3213WAT     H213559   7.159   2.116   3.465 -0.1700 -1.0861  0.2387
 3213WAT    EPW13560   7.128   2.170   3.513 -0.0435 -0.4650  0.5853
 3214WAT      O13561   8.016   2.024   4.679  0.3574  0.7639  0.1468
 3214WAT     H113562   8.059   2.050   4.607 -1.0976  0.8430 -0.7363
 3214WAT     H213563   8.076   1.979   4.723  0.9556 -0.4241 -1.7607
 3214WAT    EPW13564   8.031   2.021   4.675 -0.4760 -0.3345 -0.0292
 3215WAT      O13565   5.694   7.152   1.040  0.1971  0.1763 -0.3300
 3215WAT     H113566   5.618   7.126   1.074 -0.0363  1.4132  0.1725
 3215WAT     H213567   5.670   7.213   0.982  0.8141  1.1121  0.3569
 3215WAT    EPW13568   5.679   7.157   1.036  0.1565  0.1202 -0.5533
 3216WAT      O13569   0.678   4.480   7.952 -0.0940 -0.2420 -0.0316
 3216WAT     H113570   0.763   4.468   7.971 -0.5280 -0.6548  1.8954
 3216WAT     H213571   0.667   4.565   7.963  0.2213 -0.0523 -1.0787
 3216WAT    EPW13572   0.689   4.491   7.956  0.1354 -0.1128 -0.5555
 3217WAT      O13573   2.835   3.303   2.236  0.8898 -0.1717 -0.4389
 3217WAT     H113574   2.834   3.345   2.312 -0.9908  0.6233 -0.8400
 3217WAT     H213575   2.902   3.247   2.244  2.6991  1.9839  0.6040
 3217WAT    EPW13576   2.845   3.301   2.248  0.5367  0.3511  0.3316
 3218WAT      O13577   7.850   4.967   0.561 -0.0499 -0.8479  0.0368
 3218WAT     H113578   7.780   5.013   0.537  0.5121 -0.4091 -0.8229
 3218WAT     H213579   7.818   4.907   0.614 -1.1408 -0.8952 -0.6435
 3218WAT    EPW13580   7.835   4.965   0.565 -0.6487  0.1522 -0.4310
 3219WAT      O13581   2.075   2.560   4.739 -0.3307  0.4067 -0.2220
 3219WAT     H113582   2.086   2.560   4.826 -0.6674  1.2065 -0.1683
 3219WAT     H213583   2.156   2.574   4.709  0.2608 -2.3366 -0.1571
 3219WAT    EPW13584   2.089   2.562   4.748  0.6473  0.2190  0.5265
 3220WAT      O13585   5.710   4.540   7.408 -0.1717 -0.1597 -0.5353
 3220WAT     H113586   5.694   4.524   7.493 -0.7933 -2.2374 -0.9859
 3220WAT     H213587   5.673   4.618   7.396 -1.3786 -0.4646  0.7917
 3220WAT    EPW13588   5.702   4.549   7.419 -0.4945  0.3309  0.0842
 3221WAT      O13589   6.844   4.752   3.823 -0.0938 -0.0756  0.0447
 3221WAT     H113590   6.924   4.719   3.835  0.6477  1.4347 -0.4472
 3221WAT     H213591   6.812   4.758   3.904  0.4730 -0.2671  0.2854
 3221WAT    EPW13592   6.851   4.748   3.837  0.0441  0.9269 -0.3335
 3222WAT      O13593   6.329   0.437   3.952 -0.1463  0.1558  0.0531
 3222WAT     H113594   6.263   0.387   3.927 -2.1706  1.9547  1.4192
 3222WAT     H213595   6.348   0.409   4.032 -0.9586  1.1764  0.6290
 3222WAT    EPW13596   6.322   0.426   3.960 -0.2313  0.7641 -0.2542
 3223WAT      O13597   1.962   6.215   6.743  0.2716 -0.0924  0.2175
 3223WAT     H113598   1.888   6.260   6.733  0.4280  0.9103  2.8081
 3223WAT     H213599   2.012   6.244   6.678 -1.1386  0.2066 -0.7753
 3223WAT    EPW13600   1.958   6.226   6.732 -0.0458 -0.9013 -0.1414
 3224WAT      O13601   7.473   5.568   2.241 -0.2031 -0.2821 -0.3419
 3224WAT     H113602   7.447   5.609   2.169 -0.1276  1.0248  0.3403
 3224WAT     H213603   7.416   5.502   2.249 -0.4460 -0.2084 -1.3780
 3224WAT    EPW13604   7.460   5.564   2.232  0.3105  0.4469  0.2825
 3225WAT      O13605   5.383   6.677   1.485 -0.4387 -0.1220  0.2129
 3225WAT     H113606   5.368   6.591   1.481  0.8347 -0.3643  0.1289
 3225WAT     H213607   5.310   6.709   1.520 -1.5090 -1.0610 -1.0483
 3225WAT    EPW13608   5.370   6.669   1.489 -0.1203 -0.6226 -1.4452
 3226WAT      O13609   4.922   6.674   3.485 -0.1910 -0.2893  0.2067
 3226WAT     H113610   4.927   6.646   3.568  0.2826 -0.4626  0.1253
 3226WAT     H213611   4.837   6.689   3.474 -0.4496 -1.5584  0.3054
 3226WAT    EPW13612   4.910   6.672   3.496 -0.3607 -0.5282  0.1109
 3227WAT      O13613   3.141   2.405   7.687 -0.6180  0.4077 -0.7735
 3227WAT     H113614   3.196   2.343   7.660  0.8446  1.9881 -1.6806
 3227WAT     H213615   3.073   2.397   7.632  0.5708  1.0097 -2.4352
 3227WAT    EPW13616   3.139   2.395   7.675  0.2341  0.2098  0.0161
 3228WAT      O13617   4.510   6.554   7.743  0.0521 -0.3528 -0.0471
 3228WAT     H113618   4.515   6.491   7.683  0.8852 -1.0715  0.7526
 3228WAT     H213619   4.473   6.515   7.811 -1.5706  0.6522 -0.3059
 3228WAT    EPW13620   4.505   6.539   7.744  0.5009  0.1579 -0.2329
 3229WAT      O13621   6.691   4.276   0.655  0.0739 -0.5430 -0.2828
 3229WAT     H113622   6.732   4.273   0.732  0.0790 -2.5144 -0.3126
 3229WAT     H213623   6.715   4.353   0.622  1.4009 -0.3853  0.9618
 3229WAT    EPW13624   6.700   4.287   0.661 -0.2823 -0.3742 -0.8887
 3230WAT      O13625   3.329   5.398   1.837  0.0008 -0.4021 -0.1079
 3230WAT     H113626   3.273   5.380   1.901  1.9548  0.0508  1.8658
 3230WAT     H213627   3.329   5.485   1.834  0.3175 -0.4092 -0.3661
 3230WAT    EPW13628   3.321   5.408   1.846 -0.2794 -0.6510 -0.1558
 3231WAT      O13629   0.039   4.919   3.443  0.4289 -0.6332 -0.7614
 3231WAT     H113630  -0.042   4.946   3.424 -0.1313 -2.4021 -1.0688
 3231WAT     H213631   0.085   4.941   3.372  0.8340  2.4845  0.3110
 3231WAT    EPW13632   0.034   4.926   3.430 -0.0798 -0.1702  0.0758
 3232WAT      O13633   4.583   0.261   7.711 -0.0062 -0.1292  0.1575
 3232WAT     H113634   4.521   0.323   7.702  1.3719  1.4540  1.0146
 3232WAT     H213635   4.641   0.282   7.649  1.7034  1.0594  2.0434
 3232WAT    EPW13636   4.582   0.273   7.701  0.1108  0.3754  0.1273
 3233WAT      O13637   5.894   3.574   3.922  0.2762  0.5161 -0.6205
 3233WAT     H113638   5.941   3.639   3.957 -0.7308  0.6517  0.5523
 3233WAT     H213639   5.812   3.603   3.928 -0.2795 -1.1652  0.6716
 3233WAT    EPW13640   5.889   3.588   3.928  0.3380 -0.1906  0.1622
 3234WAT      O13641   7.657   7.586   4.018  0.6554 -0.0646 -0.0547
 3234WAT     H113642   7.724   7.612   4.067  2.8280 -3.3969 -0.9391
 3234WAT     H213643   7.607   7.541   4.073 -0.4987  1.6664  0.4002
 3234WAT    EPW13644   7.660   7.583   4.033  0.6834 -0.6998  0.3197
 3235WAT      O13645   4.719   6.402   5.816  0.9320 -0.2572 -0.1803
 3235WAT     H113646   4.695   6.338   5.762 -0.7644  0.6672 -0.6026
 3235WAT     H213647   4.806   6.399   5.814  0.9118 -2.2868 -0.4599
 3235WAT    EPW13648   4.729   6.392   5.807  0.2906 -0.1583 -0.0982
 3236WAT      O13649   6.954   4.060   0.721  0.4096  0.1978 -0.8747
 3236WAT     H113650   6.905   4.072   0.650 -1.8178 -0.7619  0.4195
 3236WAT     H213651   6.973   4.141   0.747  0.1692  0.5721 -1.8320
 3236WAT    EPW13652   6.950   4.074   0.714  0.2682  0.2634  0.1736
 3237WAT      O13653   4.805   6.883   1.515 -0.6661  0.3144  0.2339
 3237WAT     H113654   4.762   6.820   1.558 -0.9458  1.9149  2.4081
 3237WAT     H213655   4.761   6.888   1.439 -2.2942 -0.3070  1.0787
 3237WAT    EPW13656   4.792   6.874   1.510 -0.8674 -0.2917  0.2333
 3238WAT      O13657   4.866   0.539   1.552  0.7273  0.0996  0.6436
 3238WAT     H113658   4.831   0.530   1.472  1.6586 -0.0393  0.2418
 3238WAT     H213659   4.899   0.620   1.551  2.0134 -0.4025  0.3577
 3238WAT    EPW13660   4.866   0.550   1.540  0.6456  0.2103 -0.2291
 3239WAT      O13661   4.157   7.361   5.490  0.7283 -0.3543 -0.1404
 3239WAT     H113662   4.170   7.383   5.573 -3.2041  0.4227  0.4461
 3239WAT     H213663   4.135   7.277   5.494 -1.0659  0.0829 -0.1056
 3239WAT    EPW13664   4.156   7.352   5.503 -0.3633 -0.1805 -0.0586
 3240WAT      O13665   5.630   4.946   4.239  0.0341 -0.5250  0.2086
 3240WAT     H113666   5.637   5.016   4.290 -0.4381 -0.0761 -0.3297
 3240WAT     H213667   5.560   4.963   4.190  0.0488 -1.2696 -0.0855
 3240WAT    EPW13668   5.621   4.959   4.239 -0.1904  0.3104 -0.1137
 3241WAT      O13669   7.835   6.513   3.529 -0.6874 -0.4028  0.0929
 3241WAT     H113670   7.834   6.495   3.443  1.0194  1.1875 -0.3118
 3241WAT     H213671   7.773   6.461   3.561 -1.3388 -1.0834 -2.0962
 3241WAT    EPW13672   7.826   6.503   3.521 -0.3171 -0.0135  0.2403
 3242WAT      O13673   7.082   5.069   4.220  0.1218  0.3739 -0.2144
 3242WAT     H113674   7.065   5.042   4.139  0.5764  0.4054 -0.3196
 3242WAT     H213675   7.002   5.081   4.254 -0.0682  1.0285 -0.8732
 3242WAT    EPW13676   7.068   5.066   4.213  0.2773  0.2375 -0.5860
 3243WAT      O13677   0.218   6.934   4.241 -0.6792  0.2136  0.2872
 3243WAT     H113678   0.190   6.906   4.318 -1.7305 -1.3080 -0.5879
 3243WAT     H213679   0.215   6.863   4.191  0.5384  1.0215 -1.0135
 3243WAT    EPW13680   0.213   6.920   4.245  1.0482 -0.1932 -0.4913
 3244WAT      O13681   5.695   5.923   6.437 -0.0988 -0.6512  0.0502
 3244WAT     H113682   5.774   5.905   6.405 -0.7287 -1.8764 -0.8788
 3244WAT     H213683   5.704   5.909   6.523  1.0965  0.8267  0.2203
 3244WAT    EPW13684   5.708   5.918   6.445 -0.3757  0.1275  0.2508
 3245WAT      O13685   0.864   0.653   2.803 -0.1366 -0.3892 -0.3995
 3245WAT     H113686   0.897   0.701   2.738 -1.4602 -1.5346 -2.0053
 3245WAT     H213687   0.926   0.594   2.818 -0.0619 -0.5135 -1.1212
 3245WAT    EPW13688   0.878   0.652   2.795 -0.1557  0.6226 -0.4642
 3246WAT      O13689   5.343   5.813   2.249  0.0809 -0.0359 -0.0936
 3246WAT     H113690   5.309   5.761   2.310 -0.0654  2.0536  1.7130
 3246WAT     H213691   5.429   5.807   2.263  0.0210  0.9576  0.8303
 3246WAT    EPW13692   5.351   5.804   2.260  0.2096  0.1111  0.1042
 3247WAT      O13693   3.813   6.514   1.520 -0.3857 -0.1451 -0.3336
 3247WAT     H113694   3.892   6.485   1.497  0.0688  1.0079 -0.2644
 3247WAT     H213695   3.763   6.443   1.514  1.0023 -1.3641  1.4622
 3247WAT    EPW13696   3.817   6.499   1.515 -0.3364  0.3495 -0.6263
 3248WAT      O13697   3.029   4.904   1.685  0.2014  0.6081  0.3549
 3248WAT     H113698   2.987   4.918   1.610  0.6093 -2.4949 -0.5856
 3248WAT     H213699   3.055   4.984   1.709  0.3189  1.7305 -2.9651
 3248WAT    EPW13700   3.027   4.918   1.677 -0.0183 -0.0273 -0.4848
 3249WAT      O13701   6.531   0.342   1.731  0.2325 -0.0593 -0.9671
 3249WAT     H113702   6.475   0.399   1.695 -0.9721 -0.3487  0.3453
 3249WAT     H213703   6.595   0.391   1.762  0.1220  0.4017 -1.4605
 3249WAT    EPW13704   6.532   0.358   1.730 -0.0140  0.5997 -0.1718
 3250WAT      O13705   4.277   4.304   6.739  0.1611  0.1937 -0.2015
 3250WAT     H113706   4.299   4.282   6.657 -0.9848 -3.9579  0.3815
 3250WAT     H213707   4.202   4.261   6.752  1.3530 -1.1017  3.6521
 3250WAT    EPW13708   4.269   4.294   6.728 -0.0772 -0.0638 -0.0386
 3251WAT      O13709   0.193   4.094   3.422  0.6216 -0.0832  0.6007
 3251WAT     H113710   0.122   4.138   3.446  0.1164 -0.1117 -0.7834
 3251WAT     H213711   0.175   4.011   3.443  0.5290  0.0069  0.8742
 3251WAT    EPW13712   0.180   4.088   3.429  0.0470  0.2043  0.3516
 3252WAT      O13713   4.201   5.946   6.105  0.0597  0.0152 -0.1127
 3252WAT     H113714   4.265   6.005   6.112 -1.8171  2.2287 -0.6243
 3252WAT     H213715   4.183   5.926   6.188 -0.5583  1.7167  0.2152
 3252WAT    EPW13716   4.208   5.952   6.118 -0.0658 -0.2266  0.3987
 3253WAT      O13717   7.468   6.671   1.264 -0.1707  0.1789 -0.0124
 3253WAT     H113718   7.532   6.614   1.285  0.4038  1.2348  1.2904
 3253WAT     H213719   7.410   6.660   1.328  0.7567  2.2087  1.2727
 3253WAT    EPW13720   7.469   6.661   1.277 -0.6136  0.1715 -0.3438
 3254WAT      O13721   7.311   1.007   2.308  0.4811  0.1468  0.8213
 3254WAT     H113722   7.325   0.922   2.317 -2.2004 -0.2828  2.0427
 3254WAT     H213723   7.347   1.041   2.380  0.8716 -0.0443  0.7197
 3254WAT    EPW13724   7.318   1.000   2.320 -0.0799  0.1945  0.4147
 3255WAT      O13725   4.688   0.761   3.833 -0.1812  0.2847 -0.3363
 3255WAT     H113726   4.622   0.716   3.796 -0.9724  2.1822 -1.3731
 3255WAT     H213727   4.752   0.755   3.774 -0.0397 -0.0042 -0.1612
 3255WAT    EPW13728   4.688   0.753   3.819  0.0013 -0.1876  0.1740
 3256WAT      O13729   4.887   7.939   5.391 -0.0060 -0.6352  0.0016
 3256WAT     H113730   4.966   7.955   5.426 -0.1660  0.1474  0.0251
 3256WAT     H213731   4.838   7.918   5.461 -0.3856  1.1623  0.3245
 3256WAT    EPW13732   4.892   7.938   5.407 -0.0824  0.0170 -0.0484
 3257WAT      O13733   0.478   4.890   0.537  0.0233  0.5820 -0.1950
 3257WAT     H113734   0.466   4.898   0.623 -0.7028 -0.4540 -0.1854
 3257WAT     H213735   0.500   4.971   0.512  1.9789  0.5659  1.2227
 3257WAT    EPW13736   0.480   4.903   0.546 -0.0976 -0.1640  0.3411
 3258WAT      O13737   7.290   4.382   1.304 -0.0615  0.1108  0.1335
 3258WAT     H113738   7.304   4.415   1.384 -1.1229  0.0695  0.3486
 3258WAT     H213739   7.313   4.298   1.313 -0.4661  0.0341  0.4869
 3258WAT    EPW13740   7.296   4.374   1.317 -0.2801  0.2827 -0.1912
 3259WAT      O13741   7.636   1.499   0.187  0.0616 -0.1008  0.5427
 3259WAT     H113742   7.690   1.493   0.119 -0.5723 -1.2728  0.1286
 3259WAT     H213743   7.590   1.571   0.170 -0.0304 -0.3328 -0.2307
 3259WAT    EPW13744   7.637   1.509   0.175  0.3208  0.4951  0.8549
 3260WAT      O13745   4.728   7.844   0.750  0.8599 -0.7740 -0.0137
 3260WAT     H113746   4.669   7.908   0.754  0.7204 -0.9057  0.0040
 3260WAT     H213747   4.689   7.782   0.703  0.6145 -1.2586  0.8197
 3260WAT    EPW13748   4.714   7.845   0.744  0.1460 -0.1127 -0.2725
 3261WAT      O13749   3.182   1.675   1.223 -0.2497 -0.1635 -0.0208
 3261WAT     H113750   3.156   1.734   1.282 -1.6088 -0.7541 -0.0066
 3261WAT     H213751   3.228   1.618   1.270 -1.1000 -0.4883  0.4390
 3261WAT    EPW13752   3.185   1.675   1.238 -0.6957 -0.3030  0.2238
 3262WAT      O13753   6.739   0.982   0.550  0.0513  0.2378 -0.2250
 3262WAT     H113754   6.734   0.911   0.599 -2.8168  0.3377 -0.1777
 3262WAT     H213755   6.768   1.044   0.605  0.1567 -0.3639  0.4018
 3262WAT    EPW13756   6.743   0.981   0.565  0.0624  0.6020  0.0882
 3263WAT      O13757   7.565   4.826   4.017  0.9319  0.2132 -0.4298
 3263WAT     H113758   7.572   4.876   3.946  0.5156 -1.1057 -1.4418
 3263WAT     H213759   7.532   4.880   4.077  1.0737  1.2990 -1.3046
 3263WAT    EPW13760   7.561   4.841   4.015  0.3943 -0.0556  0.3749
 3264WAT      O13761   6.653   4.168   4.711  0.2085 -0.1722 -0.0335
 3264WAT     H113762   6.655   4.082   4.700  0.6934 -0.2078  0.3016
 3264WAT     H213763   6.655   4.199   4.629 -0.1130 -0.4722 -0.1610
 3264WAT    EPW13764   6.653   4.160   4.697 -0.1198  0.4361 -0.2657
 3265WAT      O13765   3.214   4.135   2.907  0.1276  0.4010  1.0269
 3265WAT     H113766   3.182   4.179   2.974 -1.7878 -0.8052  0.9895
 3265WAT     H213767   3.246   4.062   2.943 -1.5557 -0.5894  0.6433
 3265WAT    EPW13768   3.214   4.131   2.922  0.1015 -0.0749  0.1596
 3266WAT      O13769   6.014   5.210   7.930 -0.1038 -0.6514  1.0006
 3266WAT     H113770   5.927   5.208   7.930 -0.1827  0.5338 -0.1774
 3266WAT     H213771   6.035   5.156   7.864 -0.0218 -0.1307  0.5892
 3266WAT    EPW13772   6.004   5.202   7.920  0.0637 -0.2582  0.1675
 3267WAT      O13773   3.078   6.977   1.078 -0.3679 -0.0558  0.3933
 3267WAT     H113774   3.005   6.962   1.123 -0.0768  1.6019  1.4971
 3267WAT     H213775   3.141   6.953   1.133 -0.0369  0.8980  0.4472
 3267WAT    EPW13776   3.077   6.971   1.093 -0.2360 -0.3040 -0.1780
 3268WAT      O13777   1.268   2.537   1.641 -0.2098  0.0093  0.1680
 3268WAT     H113778   1.188   2.561   1.666 -1.0064 -0.8647 -1.4076
 3268WAT     H213779   1.259   2.518   1.557  0.6088 -4.5110  0.8736
 3268WAT    EPW13780   1.255   2.538   1.632  0.0956 -0.4400  0.3956
 3269WAT      O13781   7.817   1.062   3.334 -0.1790  0.4018 -0.1264
 3269WAT     H113782   7.868   0.992   3.347 -0.5860  0.2844  0.9797
 3269WAT     H213783   7.850   1.121   3.389 -1.9409 -0.0743  1.5336
 3269WAT    EPW13784   7.830   1.060   3.344 -0.0726 -0.0767  0.4002
 3270WAT      O13785   3.395   6.968   6.451 -0.1194  0.4067  0.5084
 3270WAT     H113786   3.350   6.901   6.485 -1.4114  1.4465  0.9561
 3270WAT     H213787   3.437   7.001   6.520 -0.2172  0.6134  0.4680
 3270WAT    EPW13788   3.394   6.963   6.466 -0.4346 -0.1295 -1.1092
 3271WAT      O13789   3.649   5.110   6.758  0.2440 -0.2134 -0.0477
 3271WAT     H113790   3.677   5.153   6.829  0.2610 -0.0938 -0.1259
 3271WAT     H213791   3.643   5.173   6.698  1.1614 -0.4695 -0.4264
 3271WAT    EPW13792   3.653   5.126   6.760 -0.2884 -0.5113  0.0579
 3272WAT      O13793   2.624   7.673   0.488  0.5089 -0.5540  0.7013
 3272WAT     H113794   2.672   7.610   0.452 -0.3123 -0.8205  0.0540
 3272WAT     H213795   2.677   7.707   0.549  1.1498 -1.5022  0.6867
 3272WAT    EPW13796   2.639   7.669   0.492 -0.3694 -0.1163 -0.0969
 3273WAT      O13797   4.160   6.696   5.709  0.6275  0.1026  0.3703
 3273WAT     H113798   4.207   6.623   5.713 -0.5305 -0.6220  1.1744
 3273WAT     H213799   4.127   6.695   5.628  1.6997  0.4408 -0.0784
 3273WAT    EPW13800   4.162   6.685   5.698  0.0467 -1.0844 -0.2035
 3274WAT      O13801   4.376   4.987   3.218  0.0569 -0.3674  0.4786
 3274WAT     H113802   4.370   4.942   3.292  0.5113  1.7418  1.8804
 3274WAT     H213803   4.394   4.925   3.158  1.0608 -1.9835  2.3161
 3274WAT    EPW13804   4.378   4.971   3.220  0.2679 -0.3407 -0.9208
 3275WAT      O13805   4.892   2.657   5.744  0.1825 -0.5111  0.5210
 3275WAT     H113806   4.851   2.729   5.718  0.5725 -0.4241  0.1397
 3275WAT     H213807   4.835   2.620   5.800 -0.8802 -0.9421 -0.7949
 3275WAT    EPW13808   4.877   2.662   5.749 -0.1534 -0.8330  0.2661
 3276WAT      O13809   6.615   2.903   0.707  0.1199 -0.1268 -0.3351
 3276WAT     H113810   6.681   2.848   0.723 -0.7785 -1.2008 -0.1809
 3276WAT     H213811   6.618   2.959   0.774  0.3241 -0.7184  0.1573
 3276WAT    EPW13812   6.625   2.903   0.719  0.1934 -0.0323  0.4610
 3277WAT      O13813   6.728   1.760   4.285 -0.5012  0.0709 -0.4215
 3277WAT     H113814   6.790   1.731   4.231 -0.8001 -0.7508 -0.3462
 3277WAT     H213815   6.664   1.786   4.231 -1.0555 -1.3307 -0.4874
 3277WAT    EPW13816   6.728   1.759   4.269  0.3882  0.7137 -0.1932
 3278WAT      O13817   0.871   2.627   4.490  0.1809 -0.0529  0.4602
 3278WAT     H113818   0.810   2.677   4.452  0.8256  2.1553  2.1304
 3278WAT     H213819   0.925   2.607   4.425 -1.1368 -0.2706 -0.6294
 3278WAT    EPW13820   0.870   2.631   4.475  0.1214  0.4797  0.1904
 3279WAT      O13821   3.920   4.240   0.988  0.5304 -0.2772 -0.0003
 3279WAT     H113822   3.841   4.269   1.008  0.6817 -1.0820  1.9455
 3279WAT     H213823   3.908   4.193   0.915 -0.4921  0.7623 -0.5319
 3279WAT    EPW13824   3.907   4.238   0.980 -0.6915 -0.0205 -0.2579
 3280WAT      O13825   5.627   4.807   7.288 -0.5537 -0.3850  0.1276
 3280WAT     H113826   5.578   4.773   7.224 -0.6125 -2.4708  1.2025
 3280WAT     H213827   5.571   4.813   7.355 -0.5680  2.0620 -0.0312
 3280WAT    EPW13828   5.611   4.803   7.288  0.0619 -0.2674 -0.0894
 3281WAT      O13829   5.766   4.806   7.947  0.1299  0.2269 -0.4900
 3281WAT     H113830   5.685   4.829   7.922  0.8811  1.7871 -1.6016
 3281WAT     H213831   5.794   4.875   7.992  0.1519 -1.1128  1.6988
 3281WAT    EPW13832   5.758   4.820   7.950  0.2092  0.7195  0.7281
 3282WAT      O13833   4.690   7.359   4.515  0.4216  0.3310 -0.4911
 3282WAT     H113834   4.703   7.379   4.599 -0.6883  0.6640 -0.3836
 3282WAT     H213835   4.653   7.280   4.517 -0.2514  0.6298 -0.6103
 3282WAT    EPW13836   4.686   7.350   4.527 -0.4681 -0.2795  0.1672
 3283WAT      O13837   6.169   1.362   2.938 -0.0791 -0.1810  0.3458
 3283WAT     H113838   6.213   1.315   2.879  1.8860 -0.1623  1.6734
 3283WAT     H213839   6.103   1.311   2.961  1.0432 -1.6269  0.5256
 3283WAT    EPW13840   6.166   1.348   2.933 -0.1945  0.2567  0.4897
 3284WAT      O13841   1.681   6.028   4.713  0.2944 -0.2300  0.0681
 3284WAT     H113842   1.766   6.007   4.706 -0.0312 -1.1931 -1.5504
 3284WAT     H213843   1.654   5.979   4.780  0.6659 -1.2604 -0.5024
 3284WAT    EPW13844   1.690   6.017   4.722 -0.4242 -0.4360  0.2806
 3285WAT      O13845   6.057   7.423   7.694 -0.0872  0.2365 -0.3116
 3285WAT     H113846   6.080   7.442   7.776  1.9651  0.9996 -0.9819
 3285WAT     H213847   6.026   7.499   7.664  1.1857  0.5824 -0.8282
 3285WAT    EPW13848   6.056   7.437   7.701  0.3524 -0.2757  0.5226
 3286WAT      O13849   1.659   5.991   6.488 -0.7702 -0.0072 -0.6464
 3286WAT     H113850   1.620   5.930   6.536  3.8500 -3.1091 -0.1108
 3286WAT     H213851   1.690   6.047   6.547 -0.4009 -0.3000 -0.5533
 3286WAT    EPW13852   1.658   5.990   6.504 -0.3538 -0.2288  0.1015
 3287WAT      O13853   2.269   3.725   6.331 -0.4056 -0.3360  0.2011
 3287WAT     H113854   2.214   3.793   6.329 -0.9091 -0.7437  0.1090
 3287WAT     H213855   2.299   3.721   6.249 -0.1196 -0.0223  0.2866
 3287WAT    EPW13856   2.265   3.734   6.319  0.9497 -0.4618 -0.1693
 3288WAT      O13857   5.365   5.075   6.991  0.0677 -0.6227  0.3429
 3288WAT     H113858   5.383   5.076   6.905  0.4752 -1.0084  0.4206
 3288WAT     H213859   5.305   5.138   7.000  1.8582  1.2208  0.1896
 3288WAT    EPW13860   5.358   5.085   6.979 -0.2374 -0.3865  0.0973
 3289WAT      O13861   1.585   7.407   1.829 -0.8562  0.4328  0.5399
 3289WAT     H113862   1.532   7.422   1.761  0.4960 -0.8761 -0.8708
 3289WAT     H213863   1.629   7.482   1.838  0.3993 -0.0060 -1.4162
 3289WAT    EPW13864   1.584   7.421   1.820 -0.5022  0.6059  0.2326
 3290WAT      O13865   6.125   0.025   1.777 -0.6133  0.1145  0.5674
 3290WAT     H113866   6.111  -0.053   1.813 -2.8423  0.9929  1.8172
 3290WAT     H213867   6.081   0.021   1.702  1.4026 -0.6263 -0.6587
 3290WAT    EPW13868   6.117   0.013   1.771 -0.3489 -0.3783 -0.3724
 3291WAT      O13869   5.601   5.092   7.731  0.1620 -0.2258  0.1142
 3291WAT     H113870   5.647   5.053   7.668  2.2035  0.3766  1.1456
 3291WAT     H213871   5.534   5.039   7.744  2.7194 -3.4745  1.3867
 3291WAT    EPW13872   5.598   5.079   7.724  0.2316  0.2107 -0.4905
 3292WAT      O13873   3.554   5.859   0.886  0.1954 -0.0266 -0.5488
 3292WAT     H113874   3.551   5.807   0.816  0.2334  0.4969 -0.9423
 3292WAT     H213875   3.470   5.871   0.906  0.1944 -1.4750  0.4849
 3292WAT    EPW13876   3.541   5.853   0.879 -0.4480 -0.3789 -0.3305
 3293WAT      O13877   0.641   7.960   0.870 -0.5295  0.1050 -0.1343
 3293WAT     H113878   0.673   7.959   0.951  1.1728  0.8614 -0.7439
 3293WAT     H213879   0.557   7.939   0.880 -1.2101  3.3005  2.1993
 3293WAT    EPW13880   0.633   7.957   0.883  0.1777 -0.3131  0.7592
 3294WAT      O13881   3.049   2.716   5.893  0.2312 -0.4188 -0.4617
 3294WAT     H113882   2.988   2.756   5.845 -1.3046  0.5697  2.0624
 3294WAT     H213883   3.003   2.665   5.946  1.4951  0.5576  1.7203
 3294WAT    EPW13884   3.033   2.715   5.894  0.0693  0.0739  0.0874
 3295WAT      O13885   7.560   3.883   2.882 -0.2462  0.3167  0.0450
 3295WAT     H113886   7.616   3.909   2.820 -0.3479 -0.3042 -0.3217
 3295WAT     H213887   7.568   3.796   2.880  1.6936  0.2974  2.6809
 3295WAT    EPW13888   7.570   3.874   2.873  0.4766 -0.0941  0.1323
 3296WAT      O13889   1.770   6.532   0.606  0.4282 -0.0823 -0.4200
 3296WAT     H113890   1.776   6.567   0.527 -0.8693  2.3013  0.4202
 3296WAT     H213891   1.710   6.469   0.596  2.7439 -2.2006 -1.9588
 3296WAT    EPW13892   1.762   6.528   0.593 -0.1386 -0.0687 -0.7222
 3297WAT      O13893   5.962   5.385   3.325  0.2514  0.1958  0.3474
 3297WAT     H113894   5.913   5.315   3.340  0.3643  0.1446  0.4765
 3297WAT     H213895   6.001   5.400   3.401 -0.1256  0.6735  0.4563
 3297WAT    EPW13896   5.960   5.377   3.338 -0.3598  0.6579 -0.2627
 3298WAT      O13897   0.162   5.243   4.408 -0.2320 -0.1089  0.4912
 3298WAT     H113898   0.144   5.157   4.413  1.6197 -0.5723 -0.2258
 3298WAT     H213899   0.206   5.259   4.481  0.6515 -0.1064 -0.0288
 3298WAT    EPW13900   0.166   5.233   4.420  1.0386 -0.2403  0.3844
 3299WAT      O13901   3.860   7.934   2.856  0.3150 -0.3149  0.1612
 3299WAT     H113902   3.840   7.904   2.777 -0.9706  1.1265 -0.0871
 3299WAT     H213903   3.908   8.005   2.840 -0.5783  0.4182  0.6335
 3299WAT    EPW13904   3.864   7.940   2.842  0.0834  0.4138 -0.7116
 3300WAT      O13905   2.686   7.644   3.631 -0.3238 -0.6343  0.7086
 3300WAT     H113906   2.681   7.593   3.560  1.0234  1.3098 -0.9304
 3300WAT     H213907   2.617   7.621   3.678 -2.1208 -1.0803 -1.9225
 3300WAT    EPW13908   2.675   7.633   3.627  0.1510 -0.1986 -0.2706
 3301WAT      O13909   7.194   5.299   4.329 -0.3322  0.2030 -0.4187
 3301WAT     H113910   7.125   5.353   4.333 -0.3007  0.4953 -2.5013
 3301WAT     H213911   7.162   5.227   4.292  0.4488  0.3089 -1.3293
 3301WAT    EPW13912   7.179   5.297   4.324 -0.1346  0.0432  0.5421
 3302WAT      O13913   3.987   0.903   1.996  0.8903 -0.1226  0.4219
 3302WAT     H113914   3.990   0.820   1.970 -0.6427  0.3899 -1.5801
 3302WAT     H213915   4.070   0.920   2.020  1.2011 -2.2320  1.0494
 3302WAT    EPW13916   4.000   0.893   1.996 -0.0110  0.1670 -0.2018
 3303WAT      O13917   4.788   7.063   0.041 -0.2194  0.0712 -0.0247
 3303WAT     H113918   4.703   7.064   0.022 -0.5339 -1.2292  1.1777
 3303WAT     H213919   4.827   7.063  -0.038 -1.3944 -1.6847 -0.6641
 3303WAT    EPW13920   4.781   7.063   0.026  0.5078 -0.1878 -0.2222
 3304WAT      O13921   1.144   4.419   2.605  0.1316 -0.3323  0.0753
 3304WAT     H113922   1.197   4.360   2.569  1.2973  0.8827 -0.2717
 3304WAT     H213923   1.165   4.493   2.564 -0.3466  0.5921  1.4283
 3304WAT    EPW13924   1.155   4.421   2.593 -0.1347  0.1625 -1.0975
 3305WAT      O13925   6.942   4.679   2.621  0.2905 -0.3951  0.1053
 3305WAT     H113926   6.891   4.735   2.665  2.4337  1.1131  0.8045
 3305WAT     H213927   6.917   4.691   2.538 -0.7981 -0.0621  0.4543
 3305WAT    EPW13928   6.930   4.689   2.615 -0.1957 -0.2273  0.4565
 3306WAT      O13929   6.620   5.777   0.524  0.2771 -0.0737 -0.0500
 3306WAT     H113930   6.667   5.768   0.451 -0.3787 -0.6601 -0.4147
 3306WAT     H213931   6.668   5.830   0.574  1.3144 -0.6542 -0.4101
 3306WAT    EPW13932   6.634   5.784   0.521  0.3273  0.3088 -0.3423
 3307WAT      O13933   5.927   2.800   1.637 -0.2748  0.2935 -0.1343
 3307WAT     H113934   5.876   2.866   1.610 -0.0355  0.9775  1.0096
 3307WAT     H213935   5.903   2.787   1.719 -0.0885 -0.8511 -0.2390
 3307WAT    EPW13936   5.916   2.808   1.645 -0.0575  0.3576 -0.2086
 3308WAT      O13937   3.596   5.543   0.397  0.4406 -0.0084 -0.0821
 3308WAT     H113938   3.576   5.499   0.470 -0.1998  0.6167  0.1243
 3308WAT     H213939   3.529   5.598   0.386  1.3690  1.1455 -0.1645
 3308WAT    EPW13940   3.583   5.544   0.406 -0.4122  0.0021 -0.3663
 3309WAT      O13941   7.664   7.350   0.286  0.0934  0.1285 -0.4763
 3309WAT     H113942   7.652   7.423   0.332 -1.4111 -0.7524  0.5823
 3309WAT     H213943   7.586   7.312   0.285  0.9752 -1.8245 -0.4119
 3309WAT    EPW13944   7.651   7.355   0.292 -0.4458 -0.1427  0.0686
 3310WAT      O13945   6.395   4.743   1.899  0.4429 -0.1519  0.1870
 3310WAT     H113946   6.450   4.788   1.949  1.3201  0.2833 -1.1043
 3310WAT     H213947   6.424   4.661   1.906 -1.1540 -0.6049  2.5380
 3310WAT    EPW13948   6.408   4.737   1.907 -0.6256 -0.3652  0.8162
 3311WAT      O13949   5.691   7.355   6.905  0.0107  0.2243  0.5449
 3311WAT     H113950   5.778   7.347   6.910 -0.0790 -0.5870  0.9399
 3311WAT     H213951   5.662   7.304   6.969 -0.7449  1.1454  0.9623
 3311WAT    EPW13952   5.699   7.346   6.915  0.3278 -0.3078  0.1774
 3312WAT      O13953   5.718   7.114   2.399 -0.3147 -0.0035 -0.5464
 3312WAT     H113954   5.720   7.113   2.312  1.1742 -1.7725 -0.5617
 3312WAT     H213955   5.767   7.182   2.420  0.3305 -0.2862 -1.1052
 3312WAT    EPW13956   5.725   7.124   2.389  0.0676  0.2127 -0.1257
 3313WAT      O13957   8.081   7.283   3.304 -0.0208  0.0151  1.0236
 3313WAT     H113958   8.055   7.222   3.360 -0.9249  0.5370  1.1839
 3313WAT     H213959   8.110   7.237   3.236 -0.7933 -0.6022  1.0978
 3313WAT    EPW13960   8.082   7.268   3.302 -0.2043 -0.2598 -0.3672
 3314WAT      O13961   5.975   2.299   7.747 -0.3633  0.3058  0.4807
 3314WAT     H113962   6.023   2.351   7.696 -0.5708  1.0028  0.9678
 3314WAT     H213963   5.933   2.356   7.799  0.1563 -0.3908  1.6934
 3314WAT    EPW13964   5.976   2.315   7.747 -0.0756 -0.1099  0.3535
 3315WAT      O13965   7.044   6.275   0.439  0.0344  0.5824 -0.2106
 3315WAT     H113966   7.054   6.343   0.385 -0.9307  0.1553 -0.9568
 3315WAT     H213967   6.982   6.301   0.493 -0.4396  0.2599 -0.5862
 3315WAT    EPW13968   7.037   6.289   0.439 -0.0038 -0.3022 -0.2958
 3316WAT      O13969   5.736   4.178   3.762  0.4928  0.7288  0.5429
 3316WAT     H113970   5.697   4.120   3.814 -0.4094 -0.8565 -1.7541
 3316WAT     H213971   5.815   4.189   3.799 -0.1332 -0.2284  2.2607
 3316WAT    EPW13972   5.742   4.171   3.775 -0.4289  0.1576 -0.3551
 3317WAT      O13973   3.792   5.665   0.217  0.2843 -0.0197  0.3359
 3317WAT     H113974   3.824   5.584   0.215  0.7757  0.1587 -1.7282
 3317WAT     H213975   3.724   5.660   0.272 -1.8615 -2.7320 -2.2215
 3317WAT    EPW13976   3.786   5.652   0.225  0.0485 -0.5442 -0.0336
 3318WAT      O13977   5.676   4.979   5.174  0.4153 -0.4611 -0.2903
 3318WAT     H113978   5.589   4.975   5.187  0.4256 -1.6480 -0.4561
 3318WAT     H213979   5.693   5.064   5.176 -0.6552 -0.2410  0.4359
 3318WAT    EPW13980   5.666   4.991   5.177  0.1430  0.2017 -0.5330
 3319WAT      O13981   1.503   6.990   7.075 -0.5735  0.0718  0.0300
 3319WAT     H113982   1.516   7.022   6.995  0.2197  0.9755  0.5008
 3319WAT     H213983   1.460   6.915   7.061 -1.4663  0.7791 -1.1634
 3319WAT    EPW13984   1.498   6.984   7.061  0.5483 -0.2757  0.1889
 3320WAT      O13985   6.261   6.430   0.435  0.1565  0.0215 -0.5109
 3320WAT     H113986   6.291   6.491   0.489  0.1257 -1.1170  0.8310
 3320WAT     H213987   6.175   6.430   0.449 -0.0056  0.5011 -1.4177
 3320WAT    EPW13988   6.253   6.439   0.445  0.5474 -0.7719  0.0515
 3321WAT      O13989   2.315   5.933   7.390 -0.8107 -0.4102 -0.0564
 3321WAT     H113990   2.306   5.849   7.369  1.3353 -1.0260  1.2321
 3321WAT     H213991   2.269   5.940   7.465 -1.6143 -0.2132 -0.5513
 3321WAT    EPW13992   2.307   5.921   7.398 -0.0588 -0.2513 -0.0615
 3322WAT      O13993   5.877   6.078   1.995 -0.4419  0.1410 -0.1870
 3322WAT     H113994   5.852   6.003   1.958  1.5612 -0.6058 -0.1573
 3322WAT     H213995   5.802   6.114   2.021 -1.4754 -1.7898 -0.3044
 3322WAT    EPW13996   5.862   6.072   1.993  0.4428 -0.2274 -0.1594
 3323WAT      O13997   6.429   7.536   4.878 -0.1027 -0.0355 -0.0805
 3323WAT     H113998   6.356   7.559   4.836 -1.5917 -2.6493  0.7728
 3323WAT     H213999   6.442   7.600   4.935 -0.6985  1.3296 -1.4359
 3323WAT    EPW14000   6.420   7.549   4.880 -0.1506  0.4572 -0.1354
 3324WAT      O14001   4.692   3.263   0.361  0.0149  0.3673  0.6623
 3324WAT     H114002   4.708   3.323   0.423  0.3010  0.4407  0.5184
 3324WAT     H214003   4.754   3.204   0.374 -1.2060 -0.7292  1.8348
 3324WAT    EPW14004   4.704   3.263   0.372 -0.2127  0.0452  0.3206
 3325WAT      O14005   4.322   4.204   7.397 -0.1622 -0.2140  0.2472
 3325WAT     H114006   4.337   4.160   7.323  0.5503  0.2507  0.1138
 3325WAT     H214007   4.324   4.288   7.372 -0.6268 -0.0689  0.6693
 3325WAT    EPW14008   4.324   4.210   7.382  0.6879 -0.6352  0.0935
 3326WAT      O14009   0.579   3.387   1.199 -0.0653  0.5574  0.2188
 3326WAT     H114010   0.572   3.408   1.115  3.7887 -1.1041 -0.7305
 3326WAT     H214011   0.586   3.465   1.239 -2.1957  1.3785 -0.8258
 3326WAT    EPW14012   0.579   3.402   1.193  0.0159  0.1703 -0.0311
 3327WAT      O14013   6.703   2.696   2.355 -0.1631 -0.1754  0.0597
 3327WAT     H114014   6.693   2.747   2.285  2.3896 -0.2222 -0.4585
 3327WAT     H214015   6.702   2.752   2.422  1.1519  0.4378 -0.3872
 3327WAT    EPW14016   6.702   2.712   2.355 -0.2415 -0.5409 -0.2303
 3328WAT      O14017   0.659   5.503   1.072 -0.0070  0.8829  0.4483
 3328WAT     H114018   0.597   5.492   1.132  1.0721  0.0229  1.4512
 3328WAT     H214019   0.693   5.423   1.063 -0.2343  0.9548 -1.4390
 3328WAT    EPW14020   0.654   5.490   1.079  0.3106  0.6444 -0.0187
 3329WAT      O14021   5.505   7.500   0.446  0.5568 -0.3453 -0.4120
 3329WAT     H114022   5.581   7.509   0.487 -0.6672 -0.3201  2.0033
 3329WAT     H214023   5.452   7.555   0.487 -1.6357 -2.8412  0.4179
 3329WAT    EPW14024   5.508   7.509   0.458  1.1333  0.3319  0.0853
 3330WAT      O14025   5.568   3.458   1.641  0.5546 -0.2466  0.2015
 3330WAT     H114026   5.530   3.536   1.650  0.0319 -0.0583 -2.8063
 3330WAT     H214027   5.651   3.477   1.626  0.2548 -0.1142 -1.5564
 3330WAT    EPW14028   5.574   3.472   1.640  0.1020 -0.1580 -0.3720
 3331WAT      O14029   8.046   6.385   3.645 -0.1327  0.1896 -0.1383
 3331WAT     H114030   7.977   6.431   3.617  0.8211  1.0184 -1.2239
 3331WAT     H214031   8.064   6.332   3.579 -0.1125 -0.4978  0.4020
 3331WAT    EPW14032   8.038   6.384   3.631  0.5489  0.0541 -0.1081
 3332WAT      O14033   0.755   5.457   1.762  0.1633 -0.4676 -0.0395
 3332WAT     H114034   0.733   5.377   1.789  0.0612 -0.7137 -0.8202
 3332WAT     H214035   0.818   5.442   1.703 -0.9548 -0.0894 -1.3696
 3332WAT    EPW14036   0.761   5.443   1.757  0.0782  0.2566  0.0034
 3333WAT      O14037   3.806   6.224   4.071 -0.2847  0.0968  0.7427
 3333WAT     H114038   3.868   6.275   4.037 -1.5316  0.9580 -0.3377
 3333WAT     H214039   3.762   6.196   4.002 -1.9209  0.5784  1.5396
 3333WAT    EPW14040   3.809   6.227   4.056 -0.0305 -0.0233 -0.1510
 3334WAT      O14041   1.855   2.199   3.014 -0.8543  0.4667  0.0902
 3334WAT     H114042   1.769   2.184   3.018 -0.6065 -0.9776  1.0342
 3334WAT     H214043   1.866   2.234   2.935 -1.9137 -2.7135 -1.6830
 3334WAT    EPW14044   1.844   2.202   3.003 -0.2775 -0.0863  0.3490
 3335WAT      O14045   3.725   0.223   0.647  0.1115 -0.6418 -0.5850
 3335WAT     H114046   3.711   0.145   0.685 -3.1761 -0.0772 -0.3035
 3335WAT     H214047   3.674   0.277   0.693  4.6628  2.5990  1.4190
 3335WAT    EPW14048   3.715   0.219   0.659  0.0772 -0.0838 -0.2740
 3336WAT      O14049   6.383   7.280   0.239 -0.3918  0.0221  0.5966
 3336WAT     H114050   6.301   7.250   0.249 -0.3128  0.0550  1.4631
 3336WAT     H214051   6.396   7.276   0.153 -0.9806 -0.8580  0.5315
 3336WAT    EPW14052   6.373   7.275   0.228  0.6366  0.2425  0.7045
 3337WAT      O14053   6.102   6.870   0.886  0.0979  0.0595  0.3240
 3337WAT     H114054   6.183   6.856   0.857  0.3508 -2.5767  1.9601
 3337WAT     H214055   6.052   6.848   0.818  0.6872  1.6959 -0.6958
 3337WAT    EPW14056   6.106   6.865   0.872  0.3500 -0.3061  0.1517
 3338WAT      O14057   4.439   6.457   7.109 -0.3688  1.1646 -0.4440
 3338WAT     H114058   4.393   6.437   7.038 -1.4488  0.5430  0.3891
 3338WAT     H214059   4.521   6.465   7.080 -0.6665  0.1956 -1.6203
 3338WAT    EPW14060   4.444   6.455   7.094  0.3393 -0.1078 -0.4590
 3339WAT      O14061   5.693   4.633   1.991  0.1974  0.0101 -0.1089
 3339WAT     H114062   5.735   4.571   2.035  0.5271  0.0090 -0.4137
 3339WAT     H214063   5.719   4.621   1.909 -0.4010  0.0142 -0.3061
 3339WAT    EPW14064   5.703   4.622   1.985 -0.5890 -0.4372 -0.6159
 3340WAT      O14065   7.369   5.240   3.827 -0.2020  0.3683  0.4428
 3340WAT     H114066   7.420   5.251   3.897  0.8016 -3.3820  0.5072
 3340WAT     H214067   7.323   5.169   3.846 -0.9566  0.0593 -2.1260
 3340WAT    EPW14068   7.370   5.231   3.840  0.1176 -0.8565  0.0758
 3341WAT      O14069   2.976   1.025   4.752  0.0559  0.1087  0.2720
 3341WAT     H114070   2.932   1.045   4.679  0.4226 -0.1604 -0.0272
 3341WAT     H214071   2.964   1.095   4.803  0.9146  0.9015 -0.5667
 3341WAT    EPW14072   2.968   1.039   4.748  0.0575 -0.3940 -0.4127
 3342WAT      O14073   6.475   6.091   2.495 -0.3235 -0.0317 -0.0280
 3342WAT     H114074   6.533   6.029   2.473 -0.5793 -0.3397  0.1597
 3342WAT     H214075   6.511   6.129   2.565  0.6004  1.0977 -1.0675
 3342WAT    EPW14076   6.489   6.087   2.502  0.3935  0.3867  0.3424
 3343WAT      O14077   5.880   5.691   7.337 -0.9361  0.1305  0.1137
 3343WAT     H114078   5.797   5.671   7.319 -0.6382 -1.2106  0.1643
 3343WAT     H214079   5.923   5.663   7.267 -0.4974  0.7192  0.1412
 3343WAT    EPW14080   5.874   5.684   7.324  0.1954  0.9030 -0.7114
 3344WAT      O14081   1.429   3.996   6.274  0.3292  0.8703  0.3998
 3344WAT     H114082   1.371   3.989   6.339  0.6157 -0.1579  0.5598
 3344WAT     H214083   1.490   4.048   6.306  0.4069  0.4688  0.9207
 3344WAT    EPW14084   1.429   4.003   6.288  0.5258  0.1155  0.7326
 3345WAT      O14085   7.208   6.218   0.908 -0.7965 -0.1753  0.0134
 3345WAT     H114086   7.207   6.235   0.822 -3.2694  0.9020  0.1777
 3345WAT     H214087   7.280   6.258   0.936 -1.9907  2.9680 -0.9953
 3345WAT    EPW14088   7.219   6.226   0.899 -0.2740 -0.0652  0.3005
 3346WAT      O14089   5.981   6.374   4.062  0.3871 -0.1177  0.2278
 3346WAT     H114090   6.012   6.359   3.982  1.7595 -0.5311  0.8090
 3346WAT     H214091   6.040   6.427   4.097 -0.0896 -0.1162  1.0468
 3346WAT    EPW14092   5.994   6.379   4.055 -0.4647 -0.0222  0.1318
 3347WAT      O14093   5.650   4.129   7.928  0.0572 -0.0807 -0.2344
 3347WAT     H114094   5.724   4.116   7.884  0.2268  1.9360 -0.6469
 3347WAT     H214095   5.591   4.147   7.866 -0.9379 -2.0498  0.0540
 3347WAT    EPW14096   5.652   4.130   7.913 -0.1323  0.0227 -0.9712
 3348WAT      O14097   3.803   5.242   1.310 -0.6748 -0.0174 -0.4101
 3348WAT     H114098   3.756   5.270   1.377 -2.1193  1.7295 -2.0193
 3348WAT     H214099   3.797   5.155   1.315 -1.3392  0.0966  1.2782
 3348WAT    EPW14100   3.795   5.233   1.320 -0.1230 -0.0517 -0.3095
 3349WAT      O14101   2.855   7.874   7.644  0.4105 -0.2568 -0.3786
 3349WAT     H114102   2.934   7.883   7.608  1.0047  0.7570  1.0597
 3349WAT     H214103   2.863   7.915   7.720 -1.4798 -0.2689 -0.1293
 3349WAT    EPW14104   2.868   7.881   7.650  0.2220  0.3139 -0.1624
 3350WAT      O14105   4.684   3.838   1.325 -0.2532 -1.1019 -0.0668
 3350WAT     H114106   4.722   3.759   1.321 -0.5218 -1.2063 -0.8104
 3350WAT     H214107   4.609   3.822   1.367  1.5134 -0.4553  3.7381
 3350WAT    EPW14108   4.679   3.824   1.331  0.3404  0.1224  0.1699
 3351WAT      O14109   6.222   2.330   4.013 -0.3873  0.7340 -0.2485
 3351WAT     H114110   6.302   2.294   4.012 -0.8700 -0.4411  1.5044
 3351WAT     H214111   6.183   2.295   3.943 -0.5249 -1.4964  0.8629
 3351WAT    EPW14112   6.228   2.320   4.002 -0.0244 -0.0889  0.0621
 3352WAT      O14113   5.178   5.790   5.880  0.0125  0.7780  0.4035
 3352WAT     H114114   5.165   5.707   5.902  0.2201  0.5164 -0.4418
 3352WAT     H214115   5.119   5.833   5.928 -0.1268  0.1498  0.8139
 3352WAT    EPW14116   5.167   5.784   5.890 -0.5964  0.0834  0.1918
 3353WAT      O14117   1.284   5.362   0.714 -0.4317  0.6411  0.1626
 3353WAT     H114118   1.292   5.345   0.629 -3.8271  0.0611 -0.1998
 3353WAT     H214119   1.334   5.432   0.727 -1.3671  1.9850 -2.7904
 3353WAT    EPW14120   1.292   5.370   0.704  0.0080 -0.1658  0.5478
 3354WAT      O14121   3.223   2.445   1.801  0.7395 -0.1632  0.3277
 3354WAT     H114122   3.219   2.512   1.857  0.2631 -0.1338  0.2666
 3354WAT     H214123   3.176   2.383   1.840 -0.7803  0.3178 -0.6311
 3354WAT    EPW14124   3.215   2.446   1.815 -0.1444 -0.4461 -0.2874
 3355WAT      O14125   5.288   2.596   6.113  0.6593 -0.1439  0.0821
 3355WAT     H114126   5.240   2.641   6.055 -0.6580  0.2557  1.4169
 3355WAT     H214127   5.327   2.658   6.160  0.7374 -0.4445  0.4136
 3355WAT    EPW14128   5.287   2.612   6.111  0.0576 -0.2594  0.6995
 3356WAT      O14129   4.508   3.913   0.732 -0.6929  0.3197  0.1805
 3356WAT     H114130   4.562   3.871   0.678  0.5723  0.7945  1.0206
 3356WAT     H214131   4.469   3.972   0.681  0.0037  0.3368 -0.3553
 3356WAT    EPW14132   4.510   3.915   0.717 -0.8727  0.1346 -0.6646
 3357WAT      O14133   4.711   4.644   6.706 -0.4703 -0.0039  0.5856
 3357WAT     H114134   4.638   4.691   6.706 -1.3231 -1.2930  0.8599
 3357WAT     H214135   4.740   4.651   6.788 -2.0974 -2.1584  1.4251
 3357WAT    EPW14136   4.704   4.652   6.718  0.4395 -1.1002  0.0004
 3358WAT      O14137   6.217   1.794   4.823 -0.6839  0.0963  0.9708
 3358WAT     H114138   6.301   1.774   4.810  0.0130  2.4137  1.3426
 3358WAT     H214139   6.217   1.835   4.900 -1.9179  1.2529  0.4014
 3358WAT    EPW14140   6.230   1.797   4.832  0.3219  0.1833 -0.2785
 3359WAT      O14141   4.866   1.224   5.380  0.3860 -0.0719  0.1507
 3359WAT     H114142   4.888   1.148   5.416  2.8617 -0.9215 -2.7208
 3359WAT     H214143   4.788   1.208   5.344  1.6160 -1.9663 -1.9137
 3359WAT    EPW14144   4.858   1.210   5.380 -0.2158  0.1357 -0.2324
 3360WAT      O14145   3.489   0.818   0.729  0.4610  0.1976 -0.3756
 3360WAT     H114146   3.549   0.850   0.675  2.2294 -1.6595  0.3847
 3360WAT     H214147   3.532   0.803   0.803 -1.3421  0.3834  0.7905
 3360WAT    EPW14148   3.504   0.820   0.732  0.2277  0.4607 -0.5609
 3361WAT      O14149   2.089   6.037   0.592 -0.3554 -0.2674 -0.1763
 3361WAT     H114150   2.097   6.112   0.637  0.3717  1.1326 -2.4166
 3361WAT     H214151   2.014   6.004   0.619 -0.2463  0.7973  1.5641
 3361WAT    EPW14152   2.079   6.043   0.603  0.2718  0.0549  0.0054
 3362WAT      O14153   6.103   3.845   2.628 -0.2131 -0.0725  0.0988
 3362WAT     H114154   6.164   3.783   2.630  1.5654  1.5895  1.7682
 3362WAT     H214155   6.088   3.857   2.543  0.0333 -2.1149 -0.2778
 3362WAT    EPW14156   6.110   3.838   2.616  0.1717  0.1138  0.0671
 3363WAT      O14157   5.892   2.062   0.517 -0.1069  0.1815  0.2621
 3363WAT     H114158   5.890   2.121   0.452  1.7415 -1.6566 -1.6175
 3363WAT     H214159   5.971   2.074   0.553 -1.0434  1.0692  2.2051
 3363WAT    EPW14160   5.903   2.073   0.513 -0.4233  1.0373  0.3332
 3364WAT      O14161   1.785   5.282   7.311 -0.3629  0.9310  0.3932
 3364WAT     H114162   1.861   5.264   7.273  0.4849  1.1641  1.9202
 3364WAT     H214163   1.726   5.261   7.250  0.8571 -0.5843 -0.3256
 3364WAT    EPW14164   1.787   5.276   7.297  0.2573  0.4583  0.2309
 3365WAT      O14165   3.414   1.338   1.280 -0.3036  0.6690 -0.1863
 3365WAT     H114166   3.440   1.395   1.220  0.3139  1.4912  0.8301
 3365WAT     H214167   3.331   1.320   1.257 -0.0674  0.9257 -1.2819
 3365WAT    EPW14168   3.406   1.344   1.268  0.4066  0.2861  0.1679
 3366WAT      O14169   6.034   6.156   4.580 -0.3930  0.4028  0.9160
 3366WAT     H114170   5.994   6.136   4.655 -1.8006 -2.0981 -0.3779
 3366WAT     H214171   5.971   6.192   4.532 -0.3285 -0.6650 -0.0258
 3366WAT    EPW14172   6.019   6.158   4.584 -0.4260 -0.0835 -0.3638
 3367WAT      O14173   5.520   5.469   6.937 -0.3081 -0.0634 -0.1649
 3367WAT     H114174   5.542   5.468   7.021  0.6445  2.0943 -0.3162
 3367WAT     H214175   5.433   5.482   6.938 -0.1825  0.8355  0.5183
 3367WAT    EPW14176   5.510   5.471   6.949 -0.4961 -0.1154 -0.1282
 3368WAT      O14177   1.249   7.044   3.845 -0.9143  0.1167 -0.6492
 3368WAT     H114178   1.281   7.124   3.831  1.6261 -0.3991  1.3592
 3368WAT     H214179   1.168   7.059   3.874 -0.3082  2.0264  0.1877
 3368WAT    EPW14180   1.242   7.058   3.848  0.0738  0.2396  0.3360
 3369WAT      O14181   5.733   7.812   0.461  0.0497  0.7339  0.5457
 3369WAT     H114182   5.685   7.847   0.397  1.4153  3.3898  0.8265
 3369WAT     H214183   5.815   7.820   0.432  0.5375 -0.6448  1.4448
 3369WAT    EPW14184   5.738   7.819   0.448  0.2524 -0.5829  0.4164
 3370WAT      O14185   1.406   7.517   7.287 -0.1853  0.3760  0.2717
 3370WAT     H114186   1.410   7.595   7.247  2.4997  0.1199 -0.1377
 3370WAT     H214187   1.446   7.463   7.232  0.5383 -0.6990  1.7558
 3370WAT    EPW14188   1.413   7.521   7.273  0.1401 -0.0449 -0.2048
 3371WAT      O14189   1.786   7.442   7.064 -0.5442 -0.2419 -0.4646
 3371WAT     H114190   1.712   7.411   7.099 -1.1276 -0.1591 -1.5661
 3371WAT     H214191   1.758   7.508   7.014  0.3083 -0.0558 -0.7014
 3371WAT    EPW14192   1.771   7.447   7.062  0.6704  0.0134 -0.5957
 3372WAT      O14193   3.831   4.654   2.491  0.6226  1.0520  0.0165
 3372WAT     H114194   3.768   4.619   2.443 -1.4123 -0.3722  3.3485
 3372WAT     H214195   3.896   4.595   2.486  0.5611  1.0602 -1.0978
 3372WAT    EPW14196   3.832   4.640   2.484  0.3186 -0.3661 -0.1563
 3373WAT      O14197   5.719   3.039   5.712 -0.5021  0.4320 -0.1610
 3373WAT     H114198   5.775   3.105   5.727 -0.7797  0.3958  1.1745
 3373WAT     H214199   5.641   3.078   5.713 -0.6895  0.0763  0.9307
 3373WAT    EPW14200   5.716   3.055   5.714 -0.7214  0.1291  0.4298
 3374WAT      O14201   4.866   7.817   6.440 -0.0230 -0.0754 -0.2991
 3374WAT     H114202   4.817   7.745   6.435 -2.3110  1.4098 -0.2977
 3374WAT     H214203   4.879   7.828   6.525  0.1090 -0.3140 -0.2870
 3374WAT    EPW14204   4.861   7.808   6.452  0.3699 -0.2981  0.1405
 3375WAT      O14205   3.034   6.087   2.116  0.5226  0.4201 -0.0981
 3375WAT     H114206   3.115   6.110   2.141  0.6694  0.9176 -0.9606
 3375WAT     H214207   2.993   6.164   2.107  0.1254  0.1995 -0.2012
 3375WAT    EPW14208   3.040   6.102   2.118 -0.1373 -0.0901 -0.4852
 3376WAT      O14209   5.666   7.903   4.723  0.1393  0.5261 -0.1526
 3376WAT     H114210   5.642   7.978   4.685 -0.6875 -0.4557 -1.6738
 3376WAT     H214211   5.626   7.905   4.800 -1.1424  0.9848 -0.7949
 3376WAT    EPW14212   5.657   7.915   4.728 -0.1830 -0.0835  0.5220
 3377WAT      O14213   1.711   3.815   6.589  0.5788 -0.0007 -0.3255
 3377WAT     H114214   1.777   3.833   6.535  0.0307 -0.8545 -1.3032
 3377WAT     H214215   1.750   3.771   6.654  0.9997 -0.3381 -0.7991
 3377WAT    EPW14216   1.727   3.812   6.591  0.1951  0.3593  0.3815
 3378WAT      O14217   3.736   0.108   7.078 -0.0489  0.1073  0.1939
 3378WAT     H114218   3.821   0.099   7.065  0.0539  0.3546  0.6765
 3378WAT     H214219   3.716   0.182   7.035  0.0588  0.2671  0.4168
 3378WAT    EPW14220   3.745   0.118   7.070 -0.6624  0.2911  0.2481
 3379WAT      O14221   2.476   2.790   0.941  0.0812 -0.4337  0.0498
 3379WAT     H114222   2.434   2.746   1.004  1.0126 -0.2956  0.7970
 3379WAT     H214223   2.490   2.868   0.977 -1.6301  0.5487 -1.2956
 3379WAT    EPW14224   2.472   2.795   0.956 -0.1068 -0.0798  0.1207
 3380WAT      O14225   4.551   6.671   0.497  0.2706  0.6340  0.4836
 3380WAT     H114226   4.472   6.697   0.471  0.5597  1.3943  0.3426
 3380WAT     H214227   4.555   6.588   0.472 -0.7707  0.3627  1.1557
 3380WAT    EPW14228   4.540   6.662   0.489 -0.2348  0.1417 -0.2047
 3381WAT      O14229   2.956   5.479   7.720  0.0961 -0.3257 -0.1911
 3381WAT     H114230   2.878   5.473   7.682 -0.9911 -4.7341  2.1197
 3381WAT     H214231   3.006   5.422   7.677  0.6768 -0.7870  1.0234
 3381WAT    EPW14232   2.952   5.470   7.708  0.5385 -0.2262  0.6209
 3382WAT      O14233   7.316   3.574   3.973  0.0120  0.1204  0.2523
 3382WAT     H114234   7.258   3.526   3.930 -2.9822  4.0112 -0.6352
 3382WAT     H214235   7.281   3.582   4.053  0.0276  1.3476  0.1552
 3382WAT    EPW14236   7.302   3.568   3.978 -0.7123  0.4303 -0.4511
 3383WAT      O14237   4.449   5.286   5.860  0.3528 -0.1753  0.1905
 3383WAT     H114238   4.462   5.351   5.803 -0.0347 -1.0301 -0.9281
 3383WAT     H214239   4.391   5.318   5.916  1.0487  0.8317  0.3633
 3383WAT    EPW14240   4.443   5.300   5.860 -0.5944  0.0830  0.2652
 3384WAT      O14241   4.758   0.565   7.953 -0.0678  0.5873  0.5034
 3384WAT     H114242   4.751   0.504   8.016  3.3283 -0.2027  0.2663
 3384WAT     H214243   4.747   0.521   7.879 -0.7968  0.9134  0.4043
 3384WAT    EPW14244   4.755   0.550   7.952  0.2662 -0.1606  0.2699
 3385WAT      O14245   4.469   5.796   1.545 -0.2432  0.0528  0.4176
 3385WAT     H114246   4.386   5.815   1.564 -0.2401  0.7845 -0.2321
 3385WAT     H214247   4.497   5.867   1.502  0.5654 -0.3925  0.1846
 3385WAT    EPW14248   4.461   5.810   1.541 -0.0450  0.0865  0.3659
 3386WAT      O14249   3.706   1.881   1.452  0.1164  0.0238 -0.3994
 3386WAT     H114250   3.777   1.899   1.404  0.4256 -1.8346 -0.7155
 3386WAT     H214251   3.733   1.818   1.506 -0.7337  0.8022  0.9869
 3386WAT    EPW14252   3.720   1.875   1.453  0.0915  0.3370  0.3273
 3387WAT      O14253   7.431   7.345   4.689 -0.5498  0.0512  0.3621
 3387WAT     H114254   7.472   7.358   4.765 -0.1142  0.5074  0.0519
 3387WAT     H214255   7.479   7.389   4.631 -0.9163 -0.2330 -0.1724
 3387WAT    EPW14256   7.444   7.353   4.691  0.0578 -0.6990 -0.2011
 3388WAT      O14257   6.526   2.858   8.000 -0.6469 -0.3834 -0.4967
 3388WAT     H114258   6.549   2.913   8.063  1.8790  1.9233 -3.1619
 3388WAT     H214259   6.578   2.789   8.012  0.3897  0.3834 -0.4425
 3388WAT    EPW14260   6.537   2.856   8.011  0.2030 -1.0689  0.4472
 3389WAT      O14261   7.316   2.263   0.745 -0.3909  0.2606 -0.3556
 3389WAT     H114262   7.314   2.284   0.830 -0.2044  0.8251 -0.4873
 3389WAT     H214263   7.291   2.179   0.744  0.7196 -0.1043  0.3597
 3389WAT    EPW14264   7.312   2.253   0.758  0.1838  0.1902  0.0645
 3390WAT      O14265   5.618   5.384   3.953  0.3639  0.0105 -0.3465
 3390WAT     H114266   5.565   5.410   4.018  0.2033 -1.2466  0.0573
 3390WAT     H214267   5.689   5.356   3.995  0.5154 -0.2328 -0.7643
 3390WAT    EPW14268   5.621   5.384   3.969 -0.2821  1.0515 -0.3761
 3391WAT      O14269   0.221   6.882   1.117  0.3170  0.4065 -0.2999
 3391WAT     H114270   0.250   6.800   1.123 -0.1752  0.2871  0.6791
 3391WAT     H214271   0.175   6.883   1.044  0.5844 -0.1040 -0.4760
 3391WAT    EPW14272   0.219   6.870   1.107  0.1636  0.0100 -0.0422
 3392WAT      O14273   0.970   4.212   1.340  0.5617 -0.0002 -0.4288
 3392WAT     H114274   0.933   4.281   1.301  1.3018  0.3297 -0.5681
 3392WAT     H214275   1.044   4.201   1.295  0.2345 -1.1810 -0.7088
 3392WAT    EPW14276   0.975   4.221   1.328  0.0017 -0.5379 -0.3774
 3393WAT      O14277   6.373   6.385   2.072  0.0478 -0.0146 -0.9066
 3393WAT     H114278   6.429   6.319   2.082 -0.3181  0.0299  3.1932
 3393WAT     H214279   6.387   6.412   1.990  3.6885 -2.0362 -1.1473
 3393WAT    EPW14280   6.384   6.379   2.062  0.3366 -0.5493  0.2534
 3394WAT      O14281   0.796   2.562   1.898  0.3405 -0.1801  0.0851
 3394WAT     H114282   0.806   2.482   1.867  0.5678  0.3023 -1.1247
 3394WAT     H214283   0.830   2.558   1.978 -0.0738 -1.3920  0.2117
 3394WAT    EPW14284   0.802   2.550   1.905 -0.0893  0.3653 -0.1398
 3395WAT      O14285   6.297   5.162   1.750 -0.4894  0.5662 -0.6096
 3395WAT     H114286   6.300   5.208   1.675  1.0235  2.7525  0.6521
 3395WAT     H214287   6.381   5.140   1.763 -0.4485  1.6029  1.1748
 3395WAT    EPW14288   6.310   5.166   1.741  0.2362  0.2931  0.1138
 3396WAT      O14289   5.858   6.335   6.879  0.3648  0.3577 -0.3632
 3396WAT     H114290   5.945   6.328   6.878  0.5857  1.6239 -3.7984
 3396WAT     H214291   5.830   6.252   6.890  1.8793  0.0328  1.6147
 3396WAT    EPW14292   5.866   6.321   6.881  0.1786 -0.3293 -0.3158
 3397WAT      O14293   4.665   4.135   3.971 -0.0068  0.0399 -0.4841
 3397WAT     H114294   4.600   4.081   3.949  0.2960  0.0665 -1.5112
 3397WAT     H214295   4.695   4.163   3.894  0.7820  0.5538 -0.0045
 3397WAT    EPW14296   4.660   4.132   3.957  0.4256  0.4298  0.8054
 3398WAT      O14297   5.950   4.658   6.951  0.2885  0.2001 -0.3961
 3398WAT     H114298   6.004   4.700   6.897 -0.0182  0.2289 -0.6904
 3398WAT     H214299   5.964   4.696   7.028  0.2488  0.6233 -0.5952
 3398WAT    EPW14300   5.960   4.670   6.954  0.3820  0.5110 -0.0627
 3399WAT      O14301   4.126   2.382   3.172  0.2084 -0.1726  0.0061
 3399WAT     H114302   4.045   2.413   3.174  0.0980 -0.4830  0.6787
 3399WAT     H214303   4.163   2.418   3.242 -0.7052 -3.5623  2.4917
 3399WAT    EPW14304   4.120   2.392   3.183 -0.4359 -0.2122 -0.8062
 3400WAT      O14305   5.352   6.420   7.964 -0.3645  0.2573  0.3340
 3400WAT     H114306   5.269   6.436   7.984 -0.2792 -1.4190  2.3343
 3400WAT     H214307   5.391   6.416   8.042  1.4688  0.2971 -0.5373
 3400WAT    EPW14308   5.345   6.422   7.979 -0.5171 -0.2059  0.2020
 3401WAT      O14309   5.967   7.255   1.677  0.2663  0.1537 -0.1651
 3401WAT     H114310   5.894   7.240   1.631  0.4469  1.7496 -1.0242
 3401WAT     H214311   6.016   7.185   1.661 -0.8002 -0.6466 -0.0931
 3401WAT    EPW14312   5.963   7.242   1.668 -0.4195 -0.2893 -0.2137
 3402WAT      O14313   3.008   4.226   4.471  0.0596  0.1839 -0.1615
 3402WAT     H114314   2.984   4.149   4.439  1.4517 -0.0819 -0.6492
 3402WAT     H214315   2.983   4.223   4.554 -1.9946  0.1643 -0.7361
 3402WAT    EPW14316   3.001   4.214   4.479 -0.3382  0.3905  0.0643
 3403WAT      O14317   7.694   3.864   1.682 -0.1340  0.2608 -0.5549
 3403WAT     H114318   7.665   3.902   1.755  0.2497 -0.0546 -0.2368
 3403WAT     H214319   7.724   3.931   1.635 -1.3157  0.5938 -0.8729
 3403WAT    EPW14320   7.694   3.880   1.686  0.5591  0.0912  0.1417
 3404WAT      O14321   1.310   0.195   3.250  0.3336  0.5213 -0.8522
 3404WAT     H114322   1.328   0.270   3.210  2.2914  2.3140  2.9432
 3404WAT     H214323   1.261   0.219   3.318  0.3605 -1.7905  0.0646
 3404WAT    EPW14324   1.305   0.209   3.254 -0.1724  0.4610  0.1156
 3405WAT      O14325   5.401   3.658   0.036  0.4708 -0.3244 -0.0494
 3405WAT     H114326   5.468   3.613   0.070  0.8207 -0.1374 -0.4869
 3405WAT     H214327   5.362   3.693   0.105  1.2311  0.1301  0.1546
 3405WAT    EPW14328   5.405   3.656   0.051  0.1135  0.0917 -0.1638
 3406WAT      O14329   5.128   2.071   1.682  0.2490 -0.6310  0.6668
 3406WAT     H114330   5.142   2.034   1.605  2.0876 -2.1741  1.6648
 3406WAT     H214331   5.095   2.006   1.730 -0.5368  0.2106  1.3090
 3406WAT    EPW14332   5.125   2.056   1.678 -0.1915  0.0934  0.6198
 3407WAT      O14333   5.450   3.314   1.087  0.4308  0.0356  0.0836
 3407WAT     H114334   5.459   3.312   1.174  1.8316  0.5172 -0.0204
 3407WAT     H214335   5.524   3.351   1.060  1.4312 -2.8003 -1.5281
 3407WAT    EPW14336   5.462   3.319   1.096  0.1993  0.2680  0.9108
 3408WAT      O14337   6.946   6.159   0.741  0.7285 -0.0925  0.8622
 3408WAT     H114338   6.990   6.115   0.803 -0.0460  0.2398  1.6745
 3408WAT     H214339   6.883   6.103   0.718  0.1427  0.3191  1.4240
 3408WAT    EPW14340   6.943   6.144   0.747  0.0877 -0.4122  0.1545
 3409WAT      O14341   5.851   0.796   1.175 -0.0987 -0.3301 -0.0103
 3409WAT     H114342   5.885   0.862   1.130  0.1153 -0.4801 -0.0756
 3409WAT     H214343   5.775   0.780   1.135  0.1259 -0.5123 -0.3698
 3409WAT    EPW14344   5.845   0.803   1.162  0.1436  0.5726  0.3904
 3410WAT      O14345   6.981   2.636   3.084  0.1806 -0.3064 -0.0271
 3410WAT     H114346   7.023   2.560   3.095  0.5073 -0.2107 -0.5800
 3410WAT     H214347   7.040   2.696   3.104  0.0959 -0.1845 -0.1390
 3410WAT    EPW14348   6.996   2.633   3.089  0.2680 -0.5277  0.4412
 3411WAT      O14349   7.529   5.350   0.307  0.3712 -0.1092 -0.1041
 3411WAT     H114350   7.482   5.321   0.240  0.6887  0.6234 -0.6551
 3411WAT     H214351   7.471   5.354   0.373  0.5682 -3.1978  0.3998
 3411WAT    EPW14352   7.513   5.346   0.307 -0.0290 -0.3545 -0.7879
 3412WAT      O14353   4.130   3.355   1.195  0.0302 -0.4592  0.5855
 3412WAT     H114354   4.181   3.287   1.214  0.4822 -0.3382 -0.1399
 3412WAT     H214355   4.185   3.422   1.193  0.1257 -0.5341 -1.5592
 3412WAT    EPW14356   4.145   3.355   1.198  0.6170  0.1362 -0.0291
 3413WAT      O14357   6.129   4.799   6.795  0.5402  0.2431  0.1548
 3413WAT     H114358   6.118   4.886   6.798  2.2572  0.4667  1.1694
 3413WAT     H214359   6.154   4.785   6.713  1.8870  0.9701  0.4052
 3413WAT    EPW14360   6.131   4.810   6.783  0.3106 -0.6244 -0.3621
 3414WAT      O14361   5.187   2.739   7.646 -0.0771  0.3710  0.2468
 3414WAT     H114362   5.145   2.668   7.677 -0.8547  0.1431 -1.2535
 3414WAT     H214363   5.122   2.796   7.635  0.3705  0.8730  0.2271
 3414WAT    EPW14364   5.171   2.737   7.649 -0.6608  0.3218 -0.4403
 3415WAT      O14365   5.299   7.813   6.714  0.3155  0.2127  0.0249
 3415WAT     H114366   5.266   7.863   6.651 -0.8894 -2.0088 -1.2413
 3415WAT     H214367   5.269   7.849   6.788 -2.5385  0.0457 -0.9341
 3415WAT    EPW14368   5.290   7.825   6.716 -0.7778  0.7619  0.1418
 3416WAT      O14369   4.403   6.449   2.250 -0.2791  0.2772  0.3206
 3416WAT     H114370   4.415   6.494   2.177 -1.3268 -0.0456 -0.0622
 3416WAT     H214371   4.448   6.495   2.310 -0.1005  0.9925 -0.3483
 3416WAT    EPW14372   4.412   6.463   2.248 -0.3525  0.8076  0.6315
 3417WAT      O14373   6.121   3.815   7.677  0.1334 -1.0279 -0.1378
 3417WAT     H114374   6.076   3.871   7.628 -0.5300 -1.9864 -0.6754
 3417WAT     H214375   6.181   3.864   7.715  0.8407 -0.2767 -2.0958
 3417WAT    EPW14376   6.123   3.830   7.675  0.1646 -0.2632  0.0236
 3418WAT      O14377   2.455   5.299   0.635 -0.3685 -0.0512  0.1315
 3418WAT     H114378   2.515   5.236   0.622  0.0257  0.4906 -0.8011
 3418WAT     H214379   2.382   5.262   0.605 -0.5697 -0.7892  1.4580
 3418WAT    EPW14380   2.453   5.284   0.628  0.2843  0.1210 -0.1124
 3419WAT      O14381   5.376   4.523   0.074  0.2702 -0.2153 -0.1709
 3419WAT     H114382   5.436   4.462   0.095  0.9716  0.8230  0.9797
 3419WAT     H214383   5.411   4.597   0.104 -0.3010  0.8766 -2.0646
 3419WAT    EPW14384   5.390   4.525   0.081 -0.2085  0.1679  0.0033
 3420WAT      O14385   4.577   5.928   6.427  0.6674 -0.0359 -0.0118
 3420WAT     H114386   4.578   5.907   6.511 -0.1457 -0.8698 -0.1893
 3420WAT     H214387   4.638   5.875   6.392 -1.0370 -1.8735 -0.3794
 3420WAT    EPW14388   4.586   5.917   6.434  0.1683 -0.1291  0.6836
 3421WAT      O14389   3.584   7.577   7.720 -0.0788 -0.2330 -0.7908
 3421WAT     H114390   3.656   7.610   7.682  0.3814  0.8728  0.9320
 3421WAT     H214391   3.544   7.648   7.752 -1.2432 -0.9801 -0.5546
 3421WAT    EPW14392   3.589   7.593   7.719 -0.2996  0.1875  0.3291
 3422WAT      O14393   1.906   0.390   0.689 -0.4707 -0.2493  0.1638
 3422WAT     H114394   1.886   0.453   0.632  0.2684  0.2141  0.3943
 3422WAT     H214395   1.994   0.388   0.686 -0.4734 -0.9858  0.4647
 3422WAT    EPW14396   1.916   0.399   0.680  0.0047  0.8304  0.2559
 3423WAT      O14397   4.004   1.985   5.002  0.0075 -0.1343  0.2449
 3423WAT     H114398   3.966   2.035   4.942 -0.1118 -0.6197 -0.0974
 3423WAT     H214399   4.067   1.943   4.957 -1.4750 -2.1574 -0.1013
 3423WAT    EPW14400   4.008   1.986   4.986 -0.5876 -0.4824  0.2189
 3424WAT      O14401   6.395   5.045   5.450 -0.1522  0.7079  0.2041
 3424WAT     H114402   6.342   5.107   5.418  0.1153  0.0321 -1.6231
 3424WAT     H214403   6.467   5.053   5.403 -1.0055 -2.6014 -1.9762
 3424WAT    EPW14404   6.398   5.056   5.438  0.2875  0.4475 -0.7807
 3425WAT      O14405   3.872   1.825   5.611  0.2077 -0.1678  0.4000
 3425WAT     H114406   3.857   1.830   5.697  1.1649 -1.4389  0.6668
 3425WAT     H214407   3.944   1.871   5.599 -0.8130  1.3950 -0.0190
 3425WAT    EPW14408   3.880   1.832   5.622  0.3998  0.2840 -0.1100
 3426WAT      O14409   0.064   5.566   0.989  0.6306  0.1022 -0.2384
 3426WAT     H114410   0.117   5.590   0.924 -1.0095 -0.4870 -1.8743
 3426WAT     H214411   0.032   5.642   1.018  2.0163  0.4358  0.5154
 3426WAT    EPW14412   0.067   5.581   0.984 -0.2850 -0.3835  0.5342
 3427WAT      O14413   5.824   6.703   3.770  0.2626  0.1570 -0.0994
 3427WAT     H114414   5.748   6.668   3.794  0.5984 -1.3162 -1.0640
 3427WAT     H214415   5.801   6.772   3.723 -0.4689  0.0696  0.1167
 3427WAT    EPW14416   5.809   6.708   3.767  0.3394 -0.0848 -0.3721
 3428WAT      O14417   3.922   5.283   7.221  0.5891 -0.3460 -0.0199
 3428WAT     H114418   3.921   5.371   7.223 -3.8422 -0.2049  0.0925
 3428WAT     H214419   3.914   5.260   7.304 -1.2025 -0.6743 -0.2433
 3428WAT    EPW14420   3.921   5.293   7.233 -0.0000  0.4524  0.1901
 3429WAT      O14421   6.168   2.420   5.282 -0.0675  0.4759  0.0964
 3429WAT     H114422   6.126   2.457   5.348  0.6377  1.3095  0.0922
 3429WAT     H214423   6.165   2.480   5.219 -0.1005 -0.0192 -0.3918
 3429WAT    EPW14424   6.161   2.434   5.282 -0.2065 -0.1546  0.0880
 3430WAT      O14425   4.747   3.295   6.139 -0.0678  0.6032 -0.1455
 3430WAT     H114426   4.733   3.249   6.211 -0.3614  0.2287 -0.4376
 3430WAT     H214427   4.673   3.287   6.094 -0.2751  1.6914 -0.0271
 3430WAT    EPW14428   4.734   3.287   6.143  0.0582  0.6872 -0.0233
 3431WAT      O14429   6.394   5.140   2.333 -0.0012 -1.0202 -0.6069
 3431WAT     H114430   6.442   5.135   2.406  0.7238  0.7775 -0.9162
 3431WAT     H214431   6.324   5.186   2.359  0.4806  0.0326 -1.1253
 3431WAT    EPW14432   6.391   5.146   2.348 -0.5510 -0.1999 -0.5862
 3432WAT      O14433   1.568   1.351   1.882  0.5407  0.1709 -0.9858
 3432WAT     H114434   1.490   1.330   1.850 -0.0630  1.0511 -0.1669
 3432WAT     H214435   1.599   1.409   1.824  0.7484 -0.4278 -1.4854
 3432WAT    EPW14436   1.561   1.357   1.868  0.6068 -0.7854  1.0619
 3433WAT      O14437   2.100   4.370   7.582  0.2085  0.5520 -0.3239
 3433WAT     H114438   2.043   4.433   7.564 -0.8613 -0.5265 -0.9145
 3433WAT     H214439   2.082   4.309   7.523  0.8321 -0.5331  0.5580
 3433WAT    EPW14440   2.089   4.370   7.571  0.0675 -0.0252 -0.0626
 3434WAT      O14441   3.910   0.172   0.048 -0.6872 -0.4196 -0.4911
 3434WAT     H114442   3.941   0.213   0.119 -2.2440  0.9941 -0.5687
 3434WAT     H214443   3.835   0.213   0.032  0.2693  0.3127 -3.8111
 3434WAT    EPW14444   3.904   0.184   0.056  0.1023 -0.5907  0.0305
 3435WAT      O14445   3.632   2.834   6.388 -0.2957  0.2428  0.0025
 3435WAT     H114446   3.718   2.829   6.377 -0.5193 -2.0721 -1.2141
 3435WAT     H214447   3.609   2.753   6.411 -2.2380  0.6099 -0.4517
 3435WAT    EPW14448   3.641   2.822   6.390  0.0556 -0.7276 -0.0182
 3436WAT      O14449   0.758   6.889   2.472  0.4447  0.4823  0.3304
 3436WAT     H114450   0.840   6.890   2.442  0.4241  0.5189  0.2745
 3436WAT     H214451   0.764   6.927   2.550  0.6730 -0.5483  0.8348
 3436WAT    EPW14452   0.771   6.895   2.479 -0.1459  0.4586  0.1438
 3437WAT      O14453   3.267   1.563   3.212 -0.0852  0.7015  0.4575
 3437WAT     H114454   3.266   1.488   3.167  1.1618  0.9192  0.0256
 3437WAT     H214455   3.311   1.617   3.160 -0.1364  1.4679  1.1905
 3437WAT    EPW14456   3.273   1.560   3.198  0.2398 -0.1801 -0.6374
 3438WAT      O14457   4.428   5.387   7.878 -0.0508 -0.3582  0.3602
 3438WAT     H114458   4.484   5.404   7.943 -1.0164 -0.8117  1.3282
 3438WAT     H214459   4.473   5.333   7.826  0.6795 -0.0988  0.7112
 3438WAT    EPW14460   4.443   5.382   7.880  0.5769 -0.3057 -0.5841
 3439WAT      O14461   4.927   6.238   1.751 -1.1440  0.3705  0.4139
 3439WAT     H114462   4.887   6.262   1.825  1.5321  0.3520  2.0030
 3439WAT     H214463   4.984   6.303   1.737 -0.7201 -0.2586 -0.9302
 3439WAT    EPW14464   4.930   6.251   1.760 -0.0007  0.2981 -0.2340
 3440WAT      O14465   1.781   0.408   0.941  0.0136  0.0711  0.0973
 3440WAT     H114466   1.788   0.495   0.951 -0.6975  0.1818 -0.3111
 3440WAT     H214467   1.821   0.393   0.865 -0.2848  0.1098 -0.0691
 3440WAT    EPW14468   1.788   0.419   0.932 -0.1656 -0.1865 -0.3082
 3441WAT      O14469   4.748   5.558   4.895  0.4621 -0.2528 -0.4651
 3441WAT     H114470   4.790   5.593   4.827 -1.0627 -0.5930 -1.6415
 3441WAT     H214471   4.768   5.473   4.889  0.4155 -0.2675 -0.4114
 3441WAT    EPW14472   4.758   5.551   4.884  0.0202 -0.6242  0.0576
 3442WAT      O14473   6.443   4.845   0.834  0.2529  0.6639  0.3730
 3442WAT     H114474   6.403   4.796   0.774 -0.5192  0.1624  1.2668
 3442WAT     H214475   6.376   4.878   0.881  0.8548 -0.5228  2.1714
 3442WAT    EPW14476   6.427   4.843   0.832 -0.4194  1.2252  0.3033
 3443WAT      O14477   0.540   2.656   2.011  0.7483 -0.6154 -0.2071
 3443WAT     H114478   0.506   2.654   1.931 -0.6820  0.0330  0.3595
 3443WAT     H214479   0.609   2.603   2.005 -1.2876 -3.4252 -0.9828
 3443WAT    EPW14480   0.545   2.648   1.998  0.0277  0.2716 -0.5309
 3444WAT      O14481   4.946   3.996   0.767  0.3739 -0.1130  0.3134
 3444WAT     H114482   4.891   4.053   0.731 -0.7675 -1.6385 -0.4596
 3444WAT     H214483   4.895   3.932   0.795  1.7145 -1.6066 -0.4598
 3444WAT    EPW14484   4.930   3.995   0.766  0.3956 -0.2135 -0.0934
 3445WAT      O14485   4.016   6.522   6.276 -0.0783 -0.2584  0.3796
 3445WAT     H114486   4.021   6.565   6.200  2.3248 -0.6595  0.2330
 3445WAT     H214487   3.969   6.451   6.257 -0.4139  0.1776 -0.4559
 3445WAT    EPW14488   4.009   6.518   6.262 -0.3548  0.0186 -0.4305
 3446WAT      O14489   0.774   6.215   0.487  0.3714 -0.5517 -0.2533
 3446WAT     H114490   0.804   6.297   0.494 -0.7319 -0.1867  0.6226
 3446WAT     H214491   0.780   6.199   0.402 -0.1747  0.7957 -0.5897
 3446WAT    EPW14492   0.779   6.225   0.475 -0.1730  0.1400 -0.0679
 3447WAT      O14493   5.045   0.349   1.344 -0.1661  0.2025 -0.2373
 3447WAT     H114494   4.970   0.306   1.354 -1.2198  2.1736  0.8993
 3447WAT     H214495   5.098   0.290   1.308 -2.8566 -0.6563 -3.2230
 3447WAT    EPW14496   5.042   0.334   1.340 -0.4330 -0.0660 -0.0733
 3448WAT      O14497   0.141   3.114   3.690  0.7338 -0.2569 -0.7001
 3448WAT     H114498   0.097   3.042   3.666  2.1259 -1.1001 -0.8792
 3448WAT     H214499   0.199   3.084   3.748  1.7944  0.5911 -1.2818
 3448WAT    EPW14500   0.143   3.099   3.695 -0.0250  0.3282 -0.0849
 3449WAT      O14501   5.456   3.011   1.197 -0.3699  0.2458 -0.3897
 3449WAT     H114502   5.435   2.967   1.125  0.3077 -0.7936  0.0211
 3449WAT     H214503   5.378   3.035   1.229 -0.7789 -0.7717 -0.5689
 3449WAT    EPW14504   5.441   3.008   1.191 -0.2853  0.5674 -0.5778
 3450WAT      O14505   4.089   3.308   1.724 -0.2151 -0.5086 -0.0952
 3450WAT     H114506   4.155   3.351   1.685 -1.2145  0.4405 -0.7945
 3450WAT     H214507   4.114   3.304   1.807  1.0784 -0.8518 -0.4690
 3450WAT    EPW14508   4.103   3.314   1.730 -0.4829  0.4191  0.5728
 3451WAT      O14509   1.951   2.072   1.423  0.3017  0.1808 -0.1773
 3451WAT     H114510   1.956   2.148   1.380 -0.1363  0.9679  1.1368
 3451WAT     H214511   1.982   2.015   1.365 -0.5893  1.1502 -1.6805
 3451WAT    EPW14512   1.956   2.075   1.408 -0.8773 -0.7042 -0.3597
 3452WAT      O14513   5.844   3.982   6.442 -0.4334 -0.1605 -0.0046
 3452WAT     H114514   5.809   4.061   6.449  0.5698  0.3126 -0.2398
 3452WAT     H214515   5.921   3.996   6.404  2.1331 -0.5150  4.3448
 3452WAT    EPW14516   5.850   3.995   6.438  0.0444  0.3975 -0.0765
 3453WAT      O14517   2.911   1.676   1.848  0.4557 -0.1790  0.1370
 3453WAT     H114518   2.900   1.673   1.761  2.7238  0.1014 -0.2232
 3453WAT     H214519   2.910   1.592   1.871  0.6371 -0.3051 -0.2945
 3453WAT    EPW14520   2.909   1.663   1.838  0.0432 -0.1206  0.0481
 3454WAT      O14521   1.444   4.107   5.253 -0.4706  0.6498 -0.3396
 3454WAT     H114522   1.455   4.163   5.318 -0.5037 -0.4151  0.6177
 3454WAT     H214523   1.435   4.158   5.183  0.5881  1.8009  0.3210
 3454WAT    EPW14524   1.444   4.123   5.252  0.3324 -0.0521  0.4834
 3455WAT      O14525   3.599   3.365   1.188  0.8267  0.1362 -0.3934
 3455WAT     H114526   3.529   3.394   1.147  0.3104 -0.1165  0.2904
 3455WAT     H214527   3.591   3.397   1.269  1.2340 -0.3026 -0.1704
 3455WAT    EPW14528   3.588   3.374   1.194 -0.0726  0.0986  0.6865
 3456WAT      O14529   6.293   2.744   4.021 -0.1192  0.2366  0.1060
 3456WAT     H114530   6.306   2.826   3.994 -0.9084  0.6528  0.9156
 3456WAT     H214531   6.247   2.754   4.095 -0.5694 -0.9456  0.0089
 3456WAT    EPW14532   6.288   2.758   4.028 -0.3363 -0.4060  0.1849
 3457WAT      O14533   5.243   4.786   3.936 -0.7859  0.5339  0.1655
 3457WAT     H114534   5.157   4.777   3.937 -0.8170  0.8663  1.2056
 3457WAT     H214535   5.273   4.704   3.941 -1.0508  0.4975  1.2902
 3457WAT    EPW14536   5.235   4.773   3.937  0.6222 -0.1882 -0.4136
 3458WAT      O14537   6.115   5.418   7.757  0.0063  0.2906 -0.1645
 3458WAT     H114538   6.128   5.367   7.688 -2.4466  0.7169 -1.0337
 3458WAT     H214539   6.092   5.362   7.820  1.0537  0.0072 -0.0278
 3458WAT    EPW14540   6.113   5.402   7.756 -0.2610  0.0011  0.4764
 3459WAT      O14541   6.856   3.122   1.359  0.0056  0.1267  0.3468
 3459WAT     H114542   6.861   3.176   1.291 -1.0079 -0.6666 -0.3872
 3459WAT     H214543   6.922   3.067   1.347 -0.2365 -0.0767 -0.0631
 3459WAT    EPW14544   6.866   3.122   1.347  0.2415 -0.5575  0.0229
 3460WAT      O14545   6.318   3.573   0.215  0.2749  0.2936  0.3831
 3460WAT     H114546   6.260   3.512   0.241  1.5136 -0.1880  2.3059
 3460WAT     H214547   6.309   3.636   0.275  1.7628  0.1583  0.7839
 3460WAT    EPW14548   6.308   3.573   0.228 -0.3993 -0.0271 -0.3401
 3461WAT      O14549   5.841   1.017   1.731  0.2350  0.9356  0.8374
 3461WAT     H114550   5.854   1.056   1.808  0.7390  0.1177  1.1765
 3461WAT     H214551   5.893   0.948   1.734  0.3714  0.9757 -0.3114
 3461WAT    EPW14552   5.850   1.012   1.743  0.2548 -0.0086 -0.5002
 3462WAT      O14553   5.634   4.259   3.304 -0.5764 -0.4091  0.5598
 3462WAT     H114554   5.649   4.301   3.379  1.8054  0.1852 -0.1370
 3462WAT     H214555   5.608   4.323   3.250 -2.1323 -0.8070  0.8005
 3462WAT    EPW14556   5.632   4.275   3.307 -0.1850 -0.0799 -0.4051
 3463WAT      O14557   5.332   6.331   6.117 -0.1310 -0.5000 -0.9273
 3463WAT     H114558   5.321   6.416   6.131 -0.6508 -0.5251 -1.1632
 3463WAT     H214559   5.336   6.297   6.198 -0.1197 -0.2747 -0.8329
 3463WAT    EPW14560   5.331   6.339   6.131  0.5277  0.8075 -0.3262
 3464WAT      O14561   4.806   4.524   0.729  0.0721  0.0967  0.3144
 3464WAT     H114562   4.882   4.484   0.716  0.0779 -0.3707  1.6723
 3464WAT     H214563   4.826   4.609   0.725  0.6887 -0.0211  0.7667
 3464WAT    EPW14564   4.820   4.530   0.726 -0.2760  0.4194 -0.0506
 3465WAT      O14565   5.253   0.206   7.466 -0.1363  0.4317  0.3368
 3465WAT     H114566   5.262   0.292   7.472 -0.6555  0.4434  0.9906
 3465WAT     H214567   5.182   0.189   7.514 -0.5824 -0.2496 -0.5400
 3465WAT    EPW14568   5.244   0.216   7.474  0.6410 -0.1904  0.1332
 3466WAT      O14569   0.031   1.582   0.722  0.7622 -0.0268  0.0495
 3466WAT     H114570   0.067   1.547   0.793  1.4871  1.5630  0.5064
 3466WAT     H214571  -0.036   1.628   0.753  1.2583  0.9125 -0.2527
 3466WAT    EPW14572   0.026   1.583   0.737  0.5560 -0.1168  0.4732
 3467WAT      O14573   5.231   7.392   5.493  0.0558 -0.1977  0.4601
 3467WAT     H114574   5.298   7.374   5.440  0.4235  0.1312  0.8067
 3467WAT     H214575   5.178   7.439   5.443  0.5091  0.3046  0.4430
 3467WAT    EPW14576   5.233   7.396   5.478  0.4832 -0.7787  0.1012
 3468WAT      O14577   5.445   5.097   1.533  0.1903 -0.5451 -0.1076
 3468WAT     H114578   5.453   5.062   1.613 -0.7210  2.1253  1.2418
 3468WAT     H214579   5.518   5.144   1.524 -1.1363  1.8067  0.6380
 3468WAT    EPW14580   5.457   5.099   1.544  0.1046 -0.1098  0.5475
 3469WAT      O14581   4.513   4.753   1.223 -0.2933 -0.3478 -0.0168
 3469WAT     H114582   4.554   4.676   1.229  0.8275  0.1657 -0.6619
 3469WAT     H214583   4.516   4.771   1.137  0.3380  0.8487  0.2351
 3469WAT    EPW14584   4.520   4.744   1.211  0.6294  0.0991 -0.3552
 3470WAT      O14585   4.797   0.276   0.519 -0.0429 -0.7675 -0.4285
 3470WAT     H114586   4.738   0.225   0.479 -0.9526 -1.4770  1.6767
 3470WAT     H214587   4.823   0.227   0.586  2.1113  0.0143 -0.6281
 3470WAT    EPW14588   4.792   0.261   0.523 -0.2319 -0.3494  0.4736
 3471WAT      O14589   6.674   4.926   1.213  0.7441  0.6520  0.2409
 3471WAT     H114590   6.623   4.882   1.269  0.5704  0.3739 -0.1279
 3471WAT     H214591   6.672   4.877   1.141  0.0408  1.5762 -0.4001
 3471WAT    EPW14592   6.666   4.912   1.211  0.1959 -0.1461  0.2852
 3472WAT      O14593   2.376   1.155   6.388  0.3567  0.2339  0.7920
 3472WAT     H114594   2.430   1.118   6.445  0.8995 -0.1683  0.0361
 3472WAT     H214595   2.407   1.236   6.379  0.9628 -0.0530  0.2221
 3472WAT    EPW14596   2.388   1.161   6.395 -0.4525  0.0371  0.1754
 3473WAT      O14597   7.226   5.775   1.525  0.0662  0.2505 -0.2486
 3473WAT     H114598   7.175   5.708   1.548  0.2694  0.9502  2.6451
 3473WAT     H214599   7.305   5.752   1.555  0.7087  0.7650 -1.4455
 3473WAT    EPW14600   7.230   5.761   1.533  0.2983 -0.3398  0.1034
 3474WAT      O14601   4.274   4.726   5.259 -0.2067 -0.5334 -0.8412
 3474WAT     H114602   4.219   4.669   5.222 -0.7086 -0.7058  0.1407
 3474WAT     H214603   4.227   4.762   5.323  0.2766  0.6054 -1.0971
 3474WAT    EPW14604   4.259   4.723   5.263 -0.5416  0.0125 -0.2159
 3475WAT      O14605   4.586   7.225   6.813  0.1826 -0.4234 -0.3515
 3475WAT     H114606   4.560   7.282   6.752 -0.7007 -1.7994 -1.3088
 3475WAT     H214607   4.615   7.158   6.766  2.2030 -0.3837  0.7407
 3475WAT    EPW14608   4.587   7.224   6.797  0.1705  0.1972  0.3182
 3476WAT      O14609   1.891   4.730   1.130 -0.1688 -0.1278  0.1225
 3476WAT     H114610   1.868   4.786   1.068 -1.4314 -0.4719  0.2521
 3476WAT     H214611   1.973   4.754   1.150 -0.9203  2.1839  0.7289
 3476WAT    EPW14612   1.900   4.742   1.124  0.5251 -0.0824 -0.7933
 3477WAT      O14613   1.929   6.285   6.246  0.5038 -0.8126 -0.1450
 3477WAT     H114614   1.944   6.281   6.160  0.1485 -0.8807 -0.2084
 3477WAT     H214615   1.891   6.362   6.256  0.7004 -0.7322 -0.0228
 3477WAT    EPW14616   1.925   6.296   6.235 -0.1416 -0.2455  0.1596
 3478WAT      O14617   1.291   1.749   3.238  0.1332  0.1345 -0.2414
 3478WAT     H114618   1.361   1.717   3.278  0.5007  0.3028 -0.7355
 3478WAT     H214619   1.288   1.833   3.263 -1.2304 -0.4111  1.6079
 3478WAT    EPW14620   1.301   1.757   3.247  0.3971 -0.8879 -0.0082
 3479WAT      O14621   5.272   2.645   3.077 -0.2693 -0.3881  0.3552
 3479WAT     H114622   5.191   2.613   3.065 -0.2235 -0.8800  1.2720
 3479WAT     H214623   5.278   2.709   3.019 -0.5765 -1.6960 -1.2046
 3479WAT    EPW14624   5.261   2.649   3.067 -0.2270  0.4495  0.1429
 3480WAT      O14625   1.948   5.443   1.270 -0.6752  0.5654  0.3693
 3480WAT     H114626   1.872   5.459   1.231 -0.3650  1.0719 -0.0485
 3480WAT     H214627   1.998   5.511   1.246  0.0939 -0.0691  0.1329
 3480WAT    EPW14628   1.944   5.456   1.261  0.0456  0.0289 -0.0797
 3481WAT      O14629   7.940   1.715   1.866  0.5241 -0.3196 -0.6476
 3481WAT     H114630   7.951   1.695   1.782  0.8069 -0.0230 -0.6823
 3481WAT     H214631   7.862   1.680   1.886  0.7422 -0.9260 -0.8664
 3481WAT    EPW14632   7.930   1.707   1.857  0.5163 -0.2431 -0.1387
 3482WAT      O14633   4.479   4.492   6.022  1.0263 -0.3783 -0.1984
 3482WAT     H114634   4.421   4.524   6.079  1.0095  0.4166 -0.6611
 3482WAT     H214635   4.435   4.490   5.947  1.2678 -0.7875 -0.3314
 3482WAT    EPW14636   4.464   4.496   6.019 -0.3096 -0.1670 -0.6634
 3483WAT      O14637   3.063   6.603   1.719 -0.0444 -0.5267  0.0068
 3483WAT     H114638   2.981   6.619   1.695 -0.1303 -0.7591  0.1391
 3483WAT     H214639   3.091   6.681   1.748  0.4799  0.0824 -2.0146
 3483WAT    EPW14640   3.055   6.617   1.720  0.0681  0.3733  0.3244
 3484WAT      O14641   5.539   7.071   0.490  0.2523 -0.5555  0.4229
 3484WAT     H114642   5.551   6.987   0.508  2.1432 -0.3194  0.5405
 3484WAT     H214643   5.520   7.107   0.567  0.3384 -0.7512  0.5348
 3484WAT    EPW14644   5.538   7.064   0.504 -0.3433  0.5072 -0.3966
 3485WAT      O14645   4.485   4.949   5.955 -0.4536 -0.2340  0.7363
 3485WAT     H114646   4.456   4.873   5.922 -1.3224  1.0779 -1.7627
 3485WAT     H214647   4.412   4.997   5.962  0.2642  0.8972  0.7106
 3485WAT    EPW14648   4.470   4.945   5.951 -0.2867 -0.3722  0.0651
 3486WAT      O14649   7.880   4.567   2.707  0.2803  0.3470 -0.1281
 3486WAT     H114650   7.964   4.543   2.706  0.3039  0.4286 -0.0873
 3486WAT     H214651   7.877   4.633   2.650  0.4807  1.1375  0.7517
 3486WAT    EPW14652   7.892   4.573   2.699 -0.2111 -0.4094 -0.9883
 3487WAT      O14653   4.599   3.800   1.054  0.0238 -0.4730 -0.3580
 3487WAT     H114654   4.625   3.790   1.137 -0.4438 -1.3364 -0.3037
 3487WAT     H214655   4.531   3.855   1.061 -1.1193 -1.8658  0.0642
 3487WAT    EPW14656   4.593   3.807   1.068 -0.9292  0.7654 -0.0224
 3488WAT      O14657   4.766   4.342   6.049  0.2439  0.1528  0.2006
 3488WAT     H114658   4.821   4.275   6.040  0.5280  0.1680  1.5433
 3488WAT     H214659   4.696   4.317   6.003  0.2902 -1.1503  0.7692
 3488WAT    EPW14660   4.763   4.328   6.041 -0.0680  0.5707  0.3188
 3489WAT      O14661   5.704   7.333   6.571  0.0630 -0.1145  0.1146
 3489WAT     H114662   5.784   7.313   6.599  0.1923 -0.3013 -0.3908
 3489WAT     H214663   5.706   7.420   6.566  0.2774 -0.1282 -0.0345
 3489WAT    EPW14664   5.716   7.343   6.574  0.1184  0.2721  0.1647
 3490WAT      O14665   6.732   6.836   2.283 -0.2146 -0.0330 -0.0318
 3490WAT     H114666   6.746   6.822   2.368 -0.3536 -0.1240 -0.0242
 3490WAT     H214667   6.700   6.918   2.281  0.8649  0.4079 -0.1024
 3490WAT    EPW14668   6.729   6.846   2.296  0.4057 -0.4152  0.6648
 3491WAT      O14669   3.111   7.440   0.467 -0.1938 -0.1118 -0.9999
 3491WAT     H114670   3.190   7.469   0.445 -0.2154  1.0502  0.3273
 3491WAT     H214671   3.111   7.357   0.440  1.4832 -0.1404 -0.9935
 3491WAT    EPW14672   3.122   7.432   0.459 -0.1548 -0.1110  0.4965
 3492WAT      O14673   2.114   5.105   6.190  0.0801 -0.3975 -0.4384
 3492WAT     H114674   2.192   5.139   6.168  0.2025 -1.5603 -1.9952
 3492WAT     H214675   2.068   5.112   6.116 -1.5040  0.7775  0.6233
 3492WAT    EPW14676   2.119   5.111   6.176 -0.0226 -0.4067  0.0063
 3493WAT      O14677   6.350   5.434   3.754  0.1062  0.3498 -0.3867
 3493WAT     H114678   6.371   5.451   3.671 -0.2644 -0.1154 -0.5829
 3493WAT     H214679   6.277   5.479   3.766  0.3503  0.7005 -0.1980
 3493WAT    EPW14680   6.342   5.443   3.744  0.1360 -0.4518 -0.1890
 3494WAT      O14681   2.845   7.601   7.739  0.0131  0.5864  0.0070
 3494WAT     H114682   2.791   7.555   7.689 -0.2006  0.7212  0.1115
 3494WAT     H214683   2.838   7.682   7.708 -2.1702  1.2331  1.9041
 3494WAT    EPW14684   2.836   7.606   7.727 -0.3553 -0.0168  0.1524
 3495WAT      O14685   4.903   3.342   7.868 -0.0318 -0.0940  0.1079
 3495WAT     H114686   4.949   3.319   7.938  0.0239  0.5252  0.2816
 3495WAT     H214687   4.964   3.358   7.808 -0.0347  0.1844  0.1739
 3495WAT    EPW14688   4.919   3.341   7.869 -0.7032 -0.1211 -0.2714
 3496WAT      O14689   6.588   3.465   3.784 -0.2925  0.0169  0.9900
 3496WAT     H114690   6.553   3.441   3.708  0.8972 -1.1935  0.7835
 3496WAT     H214691   6.554   3.544   3.798  0.7147  1.0471 -1.6558
 3496WAT    EPW14692   6.578   3.474   3.775  0.0994 -0.0429 -0.2336
 3497WAT      O14693   4.743   2.244   5.583 -0.2090  0.0475 -0.6516
 3497WAT     H114694   4.818   2.275   5.616 -0.5714  0.8074 -0.5130
 3497WAT     H214695   4.761   2.234   5.498  0.7689 -2.0491 -0.2693
 3497WAT    EPW14696   4.757   2.247   5.575 -0.8771 -0.1904  0.1192
 3498WAT      O14697   5.453   1.242   5.481 -0.6413 -0.5762  0.3126
 3498WAT     H114698   5.368   1.247   5.503 -1.4595 -0.5125 -2.4684
 3498WAT     H214699   5.462   1.160   5.454 -0.2002 -0.1818 -0.7521
 3498WAT    EPW14700   5.442   1.231   5.481  0.0420 -0.3598  0.0584
 3499WAT      O14701   3.675   4.645   0.513  0.1052 -0.1818  0.0460
 3499WAT     H114702   3.711   4.672   0.438 -0.3526  1.3634  0.3366
 3499WAT     H214703   3.591   4.635   0.493 -0.6258  3.0242  0.9060
 3499WAT    EPW14704   3.668   4.648   0.499  0.3030 -0.1107  0.3161
 3500WAT      O14705   4.189   3.571   4.969  0.0816  0.4660  0.7474
 3500WAT     H114706   4.275   3.568   4.955 -0.3074 -0.3238 -2.3164
 3500WAT     H214707   4.174   3.501   5.019  1.1060 -0.1100  0.2837
 3500WAT    EPW14708   4.200   3.560   4.974 -0.6133  0.1042  0.2040
 3501WAT      O14709   5.294   2.882   7.897 -0.0874  0.4339  0.1350
 3501WAT     H114710   5.257   2.959   7.876 -2.8477 -0.7260  0.4033
 3501WAT     H214711   5.340   2.862   7.825  1.0917  2.4755  0.2136
 3501WAT    EPW14712   5.296   2.891   7.883 -0.0552  0.0535 -0.6072
 3502WAT      O14713   7.540   2.665   1.918 -1.0842 -0.1402 -0.1092
 3502WAT     H114714   7.473   2.669   1.973 -1.8699  2.2501 -1.1257
 3502WAT     H214715   7.591   2.731   1.943  0.7372 -1.6237  0.3545
 3502WAT    EPW14716   7.538   2.675   1.930  0.4250  0.8816  0.0811
 3503WAT      O14717   4.841   2.912   4.492 -0.0257  0.2900  0.1205
 3503WAT     H114718   4.800   2.943   4.562 -1.9483  1.6681 -1.4902
 3503WAT     H214719   4.912   2.962   4.485  0.2988 -0.0069  1.1615
 3503WAT    EPW14720   4.846   2.924   4.501 -0.4570 -0.4678 -0.2610
 3504WAT      O14721   6.966   2.247   4.334 -0.0678 -0.0388 -0.0993
 3504WAT     H114722   6.948   2.249   4.419 -0.6845 -0.8300 -0.2060
 3504WAT     H214723   6.925   2.176   4.305 -0.2019  0.4355 -1.1406
 3504WAT    EPW14724   6.957   2.237   4.342  0.3780  0.1167 -0.3052
 3505WAT      O14725   5.607   1.816   5.463  0.2041 -0.1692  0.0439
 3505WAT     H114726   5.542   1.788   5.412 -1.0620  0.3788  1.2945
 3505WAT     H214727   5.567   1.838   5.537  1.9454 -0.7194  1.2169
 3505WAT    EPW14728   5.591   1.815   5.466  0.3904  0.0806 -0.2682
 3506WAT      O14729   6.704   0.967   2.035  0.3595  0.3444 -0.1465
 3506WAT     H114730   6.646   1.002   2.090  0.1842  0.4771 -0.4157
 3506WAT     H214731   6.773   0.951   2.086  1.2097  2.9094 -0.3798
 3506WAT    EPW14732   6.705   0.969   2.051 -0.1974 -0.3101 -0.8144
 3507WAT      O14733   5.303   5.960   4.845  0.1438  0.5148 -0.4508
 3507WAT     H114734   5.296   6.031   4.895 -0.2378  1.4418 -1.7648
 3507WAT     H214735   5.228   5.918   4.858 -0.5374  1.4395 -1.2231
 3507WAT    EPW14736   5.291   5.964   4.854  0.4987  0.0080 -0.0053
 3508WAT      O14737   5.692   6.187   5.787  0.5969 -0.3948  0.1500
 3508WAT     H114738   5.725   6.262   5.819  1.1315  0.3254 -1.9304
 3508WAT     H214739   5.606   6.201   5.785  0.6941  0.1902 -0.2312
 3508WAT    EPW14740   5.684   6.201   5.792 -0.1122  0.5688  1.4836
 3509WAT      O14741   7.321   3.650   0.760  0.3250 -0.3593 -0.4812
 3509WAT     H114742   7.329   3.630   0.676  0.0716 -0.3858 -0.5006
 3509WAT     H214743   7.303   3.573   0.797 -2.1434 -0.0163 -0.7464
 3509WAT    EPW14744   7.319   3.636   0.753 -0.6905  0.2169 -0.4593
 3510WAT      O14745   3.905   1.290   7.897 -0.6641  0.0168 -0.3492
 3510WAT     H114746   3.881   1.353   7.842 -0.3193 -0.1210 -0.6607
 3510WAT     H214747   3.855   1.222   7.874 -2.7378  0.7852  1.4710
 3510WAT    EPW14748   3.894   1.290   7.886 -0.1005 -0.0687  0.0275
 3511WAT      O14749   2.754   4.755   1.312 -0.1340 -0.2916  0.3010
 3511WAT     H114750   2.675   4.719   1.319 -0.0861 -0.1875  1.4837
 3511WAT     H214751   2.783   4.726   1.234 -2.8514  2.7349 -2.0983
 3511WAT    EPW14752   2.747   4.745   1.301 -0.1990 -0.5209  0.1514
 3512WAT      O14753   2.939   7.994   0.398  0.5104 -0.1037 -0.1449
 3512WAT     H114754   2.962   7.940   0.333  1.1601 -0.8617  0.6959
 3512WAT     H214755   2.851   7.991   0.396  0.5292 -0.4523 -0.7145
 3512WAT    EPW14756   2.929   7.985   0.388 -0.4843 -0.1534 -0.2628
 3513WAT      O14757   4.378   0.684   3.397  0.3546  0.2971 -0.1097
 3513WAT     H114758   4.300   0.679   3.359 -0.2833  1.5311  0.9516
 3513WAT     H214759   4.430   0.715   3.334 -0.4807  1.4851 -0.2431
 3513WAT    EPW14760   4.374   0.688   3.382  0.0773 -0.4842  0.2041
 3514WAT      O14761   5.086   0.172   7.235 -0.0067  0.2955 -0.1087
 3514WAT     H114762   5.122   0.181   7.314 -1.2070  0.0771  0.4935
 3514WAT     H214763   5.038   0.099   7.243  1.0090 -0.5845 -1.5116
 3514WAT    EPW14764   5.084   0.162   7.248 -0.5826  0.0843 -0.2203
 3515WAT      O14765   1.319   0.765   0.247  0.2186 -0.3851  0.0252
 3515WAT     H114766   1.320   0.833   0.192  2.6213  1.3031  1.9144
 3515WAT     H214767   1.373   0.707   0.209 -0.6931 -0.6541 -0.8972
 3515WAT    EPW14768   1.327   0.767   0.233 -0.1338  0.3730  0.3313
 3516WAT      O14769   4.508   6.815   6.965  0.3859 -0.5440 -0.2880
 3516WAT     H114770   4.569   6.754   6.983  1.3459  0.3302 -0.4814
 3516WAT     H214771   4.505   6.816   6.878  0.0651 -0.6017 -0.2798
 3516WAT    EPW14772   4.517   6.806   6.955  0.1818 -0.2036  0.7290
 3517WAT      O14773   5.062   7.457   3.469 -0.6343 -0.1770  0.3293
 3517WAT     H114774   5.017   7.500   3.531 -0.4616 -0.0545  0.3679
 3517WAT     H214775   5.144   7.482   3.482 -0.5167 -0.6281  0.4400
 3517WAT    EPW14776   5.067   7.467   3.480  0.0474  0.3783 -0.1349
 3518WAT      O14777   5.371   2.968   6.317  0.3820  0.2440 -0.4170
 3518WAT     H114778   5.396   3.009   6.390  0.1329  1.3491 -0.9268
 3518WAT     H214779   5.360   2.885   6.342  1.9651  0.2440  0.4077
 3518WAT    EPW14780   5.373   2.962   6.331 -0.0809  0.2763 -0.0692
 3519WAT      O14781   6.901   2.267   4.956  0.3932 -0.6735 -0.4329
 3519WAT     H114782   6.838   2.270   5.016 -0.4372  0.5361 -1.3158
 3519WAT     H214783   6.923   2.351   4.945  2.5023 -1.0758  0.1580
 3519WAT    EPW14784   6.895   2.280   4.964 -0.1896  0.1874  0.3729
 3520WAT      O14785   6.440   7.225   4.591  0.4850 -0.4785 -0.2872
 3520WAT     H114786   6.508   7.243   4.643 -0.1056  0.1919  0.2798
 3520WAT     H214787   6.432   7.297   4.542  0.6068 -0.8345 -0.8403
 3520WAT    EPW14788   6.449   7.238   4.591 -0.1677  0.5969 -0.5484
 3521WAT      O14789   3.584   5.709   5.228  0.3058  0.1021  0.8587
 3521WAT     H114790   3.563   5.782   5.186  1.7029  0.4088  0.6637
 3521WAT     H214791   3.671   5.705   5.221  0.2850 -1.4244  1.1092
 3521WAT    EPW14792   3.594   5.719   5.221  0.2366 -0.4801  0.1739
 3522WAT      O14793   7.311   4.472   0.881 -0.5253 -0.3758 -0.2630
 3522WAT     H114794   7.397   4.488   0.880 -0.8781  1.8973 -0.0472
 3522WAT     H214795   7.285   4.496   0.801 -1.0031 -0.7920 -0.2354
 3522WAT    EPW14796   7.320   4.478   0.869  0.1989 -0.2783 -0.2212
 3523WAT      O14797   6.998   7.611   4.608 -0.3439 -0.3172  0.1216
 3523WAT     H114798   6.974   7.653   4.536 -0.2884  1.1053  0.9007
 3523WAT     H214799   7.052   7.667   4.648 -1.4985 -0.4273  1.9709
 3523WAT    EPW14800   7.002   7.626   4.604 -0.3248  0.1438 -0.1700
 3524WAT      O14801   2.835   6.385   5.167 -0.3002  0.2862  0.8856
 3524WAT     H114802   2.881   6.444   5.214  0.0536  0.3306  0.4843
 3524WAT     H214803   2.891   6.320   5.155 -0.6695 -0.1078  1.2601
 3524WAT    EPW14804   2.850   6.384   5.172 -0.1816  0.0398  0.3680
 3525WAT      O14805   7.353   7.684   1.915 -0.4114  0.2833  0.3991
 3525WAT     H114806   7.312   7.609   1.933  0.9819 -0.5413  0.3484
 3525WAT     H214807   7.437   7.663   1.923  0.0429  1.6198 -0.5086
 3525WAT    EPW14808   7.359   7.670   1.919  0.9823  0.0568  0.2934
 3526WAT      O14809   2.883   6.926   0.841  0.3741  0.1021 -0.2158
 3526WAT     H114810   2.844   6.964   0.909  1.2831 -1.0700  1.0161
 3526WAT     H214811   2.816   6.901   0.791 -0.3399  0.6691  0.4320
 3526WAT    EPW14812   2.867   6.928   0.844  0.6816 -0.0931 -0.3487
 3527WAT      O14813   4.565   2.931   4.872  0.2950  0.2298  0.0138
 3527WAT     H114814   4.479   2.930   4.859  0.3441  0.4694 -0.3441
 3527WAT     H214815   4.575   2.884   4.944 -0.2401  1.0845  0.6707
 3527WAT    EPW14816   4.554   2.924   4.881 -0.2181 -0.1222  0.1728
 3528WAT      O14817   3.530   2.216   0.601 -0.6553  0.5310  0.4410
 3528WAT     H114818   3.539   2.140   0.560 -0.1979  0.6002  0.4064
 3528WAT     H214819   3.447   2.215   0.628 -1.0574  0.6037 -0.7186
 3528WAT    EPW14820   3.519   2.205   0.599  0.0350  0.4968  0.3295
 3529WAT      O14821   6.562   1.071   0.368  0.6492  0.1625 -0.0644
 3529WAT     H114822   6.615   1.047   0.433 -0.4760 -0.7017  0.5475
 3529WAT     H214823   6.482   1.051   0.397  0.1806 -1.2178 -2.1058
 3529WAT    EPW14824   6.558   1.065   0.382  0.4311  0.2628  0.2505
 3530WAT      O14825   7.100   2.685   4.739 -0.1954  0.1342 -0.0583
 3530WAT     H114826   7.080   2.758   4.697 -0.4177  0.7534  1.0758
 3530WAT     H214827   7.023   2.658   4.772 -0.0512 -0.3959 -0.1398
 3530WAT    EPW14828   7.085   2.692   4.738  0.2236  0.1438  0.0005
 3531WAT      O14829   6.425   0.372   7.684  0.1513 -0.3617  0.3010
 3531WAT     H114830   6.448   0.364   7.600  0.3456  0.2278  0.2936
 3531WAT     H214831   6.399   0.291   7.706  0.5488 -0.6287 -0.1880
 3531WAT    EPW14832   6.424   0.359   7.674  0.2898 -0.0966 -0.1414
 3532WAT      O14833   6.347   5.279   5.814  0.2508 -0.3564 -0.2589
 3532WAT     H114834   6.304   5.331   5.870  0.5726 -1.4693  1.0743
 3532WAT     H214835   6.364   5.332   5.746  0.8746  1.3826  1.1600
 3532WAT    EPW14836   6.343   5.295   5.812 -0.2355  0.2263 -0.3706
 3533WAT      O14837   5.793   0.535   5.909  0.0147  0.8458 -0.2590
 3533WAT     H114838   5.836   0.480   5.857 -0.0639 -0.5692  1.1114
 3533WAT     H214839   5.727   0.564   5.859  1.5691  1.7979 -1.8542
 3533WAT    EPW14840   5.789   0.531   5.894  0.4114  0.6771 -0.1467
 3534WAT      O14841   4.451   3.719   7.453  0.0506  0.3223  0.2950
 3534WAT     H114842   4.472   3.713   7.537 -0.7708  0.4412  0.5174
 3534WAT     H214843   4.481   3.645   7.418 -0.8086 -0.3732  0.9713
 3534WAT    EPW14844   4.458   3.707   7.460 -0.4730  0.0838 -0.1799
 3535WAT      O14845   5.678   7.535   1.375 -0.3453 -0.2532  0.0745
 3535WAT     H114846   5.709   7.473   1.322 -1.6445  0.3328 -1.4645
 3535WAT     H214847   5.595   7.513   1.386 -0.5479  0.6062  0.3916
 3535WAT    EPW14848   5.670   7.523   1.369 -0.2526  0.1345 -0.1240
 3536WAT      O14849   5.897   3.488   5.638 -0.2247  0.2231  0.0327
 3536WAT     H114850   5.851   3.562   5.634 -0.5899 -0.0387 -1.2008
 3536WAT     H214851   5.979   3.514   5.626 -0.4273  0.3688 -1.1204
 3536WAT    EPW14852   5.902   3.503   5.636  0.0231 -0.1167  0.0785
 3537WAT      O14853   3.141   1.902   5.150 -0.2080  0.2023  0.2524
 3537WAT     H114854   3.210   1.948   5.177 -1.0374  0.7845  1.4590
 3537WAT     H214855   3.163   1.820   5.168 -0.0813  0.4401  1.2372
 3537WAT    EPW14856   3.155   1.897   5.157 -0.1383  0.6442 -0.0451
 3538WAT      O14857   4.625   3.158   7.214  0.2506  0.1435 -0.0130
 3538WAT     H114858   4.548   3.197   7.203  0.7368  1.3355  0.4975
 3538WAT     H214859   4.623   3.133   7.298 -0.0388 -0.9114 -0.3288
 3538WAT    EPW14860   4.614   3.160   7.225 -0.0629 -0.3577  0.3247
 3539WAT      O14861   3.999   0.869   3.215 -0.3862  0.0603  0.3526
 3539WAT     H114862   4.041   0.944   3.198 -3.8040  2.5381  1.7167
 3539WAT     H214863   3.964   0.847   3.138  0.8917 -0.4261 -0.1277
 3539WAT    EPW14864   4.000   0.877   3.201 -0.5245 -0.3750 -0.6933
 3540WAT      O14865   5.567   3.953   2.615  0.0018 -0.8960 -0.1277
 3540WAT     H114866   5.527   3.917   2.683  1.4502 -2.1124  0.1233
 3540WAT     H214867   5.648   3.922   2.619  1.0245  1.4905 -0.6085
 3540WAT    EPW14868   5.573   3.943   2.625  0.6100  0.0490 -0.0641
 3541WAT      O14869   4.367   0.339   0.637  0.5462 -0.2954 -0.3950
 3541WAT     H114870   4.448   0.369   0.645 -0.4364  2.2517  1.0716
 3541WAT     H214871   4.326   0.401   0.592 -0.6489 -1.4863 -1.0426
 3541WAT    EPW14872   4.373   0.352   0.631 -0.6682  0.0478 -0.2004
 3542WAT      O14873   3.692   2.756   1.212  0.6449  0.1527  0.1498
 3542WAT     H114874   3.706   2.781   1.130 -1.6216  2.8120  0.4141
 3542WAT     H214875   3.681   2.831   1.254 -1.8490 -1.1655  2.1317
 3542WAT    EPW14876   3.692   2.771   1.206  1.1172  0.1283  0.2076
 3543WAT      O14877   4.843   0.243   6.935  0.3162 -0.4034  0.5154
 3543WAT     H114878   4.832   0.329   6.929 -1.7048 -0.6986 -1.2200
 3543WAT     H214879   4.768   0.214   6.968  0.5224 -1.5947  0.0156
 3543WAT    EPW14880   4.830   0.251   6.939  0.1812 -0.0316  0.5844
 3544WAT      O14881   4.386   0.259   4.141 -0.1940  0.1423  0.1011
 3544WAT     H114882   4.463   0.264   4.181 -0.1619 -0.6028  0.1553
 3544WAT     H214883   4.370   0.173   4.139 -0.5085  0.2106 -0.8971
 3544WAT    EPW14884   4.395   0.247   4.147  0.1456 -0.0626  0.2137
 3545WAT      O14885   7.577   2.528   3.880  0.1906  0.5974  0.0482
 3545WAT     H114886   7.510   2.551   3.828 -0.2570  1.1892  0.8624
 3545WAT     H214887   7.578   2.441   3.874  0.2736  0.6566 -1.0927
 3545WAT    EPW14888   7.567   2.518   3.871  0.2380  0.7487  0.6357
 3546WAT      O14889   2.663   5.269   1.052 -0.0181 -0.1827 -0.2186
 3546WAT     H114890   2.740   5.267   1.093  0.2408  0.2742 -0.6669
 3546WAT     H214891   2.637   5.186   1.053 -1.2092  0.0857  3.0728
 3546WAT    EPW14892   2.670   5.257   1.058  0.0575  0.5915  0.1019
 3547WAT      O14893   4.896   5.785   1.449  0.1181  0.1408  0.2606
 3547WAT     H114894   4.891   5.722   1.510 -3.4625  0.2843  0.3425
 3547WAT     H214895   4.910   5.857   1.496 -1.6405  0.1167  0.8862
 3547WAT    EPW14896   4.898   5.786   1.465 -0.4347 -0.0390  0.9864
 3548WAT      O14897   4.198   5.176   6.885  0.4736  0.4015 -0.5589
 3548WAT     H114898   4.115   5.151   6.873  0.5751  0.4581 -1.4502
 3548WAT     H214899   4.190   5.255   6.921  0.0649  1.5742 -2.9722
 3548WAT    EPW14900   4.184   5.184   6.888 -0.5937 -0.0009  0.7457
 3549WAT      O14901   1.794   2.773   5.644  0.1196  0.2783  0.0676
 3549WAT     H114902   1.750   2.731   5.582 -0.5330  1.6997 -0.4579
 3549WAT     H214903   1.854   2.819   5.601 -1.6559  2.9438  0.1680
 3549WAT    EPW14904   1.797   2.774   5.629  0.5746  0.1004  0.1441
 3550WAT      O14905   5.575   1.831   4.143  0.3577 -0.0121  0.0781
 3550WAT     H114906   5.557   1.854   4.061 -0.6705  1.2952  0.6355
 3550WAT     H214907   5.570   1.906   4.187  0.0382 -0.8117  1.4769
 3550WAT    EPW14908   5.571   1.846   4.137 -0.2654 -0.3157  0.0995
 3551WAT      O14909   5.588   5.919   0.085 -0.5262 -0.0171  0.3642
 3551WAT     H114910   5.650   5.864   0.060 -0.4253  0.8634 -1.4885
 3551WAT     H214911   5.544   5.936   0.012 -2.9152 -0.5253  1.5824
 3551WAT    EPW14912   5.590   5.914   0.071 -0.1431 -0.3158  0.1082
 3552WAT      O14913   3.728   0.142   3.662 -0.0737 -0.7032 -0.1197
 3552WAT     H114914   3.780   0.071   3.660  0.4158 -0.3489 -0.4238
 3552WAT     H214915   3.705   0.152   3.578  0.7133  0.0919 -0.2653
 3552WAT    EPW14916   3.733   0.133   3.649 -0.2516  0.8187  0.5126
 3553WAT      O14917   7.752   4.638   4.072  0.0546 -0.4257  0.2043
 3553WAT     H114918   7.751   4.582   4.005  0.6728  0.2044 -0.3490
 3553WAT     H214919   7.704   4.705   4.044  0.2282 -0.2049  0.4285
 3553WAT    EPW14920   7.745   4.639   4.058  0.0087 -0.5308 -0.4963
 3554WAT      O14921   5.719   5.204   4.122  0.5312 -0.4511  0.0190
 3554WAT     H114922   5.743   5.233   4.201 -0.2060 -0.6222  0.3119
 3554WAT     H214923   5.780   5.144   4.103  0.5164 -0.6637  0.6186
 3554WAT    EPW14924   5.732   5.199   4.131 -0.1124  0.5614 -0.4147
 3555WAT      O14925   4.259   5.943   7.463  0.0173 -0.0871 -0.3686
 3555WAT     H114926   4.213   6.016   7.471 -1.0792 -0.8840  1.0476
 3555WAT     H214927   4.321   5.950   7.524 -1.1616 -1.0544  1.0040
 3555WAT    EPW14928   4.261   5.955   7.473 -0.1826  0.0477  0.6265
 3556WAT      O14929   0.148   3.202   8.060 -0.8021  0.2668  0.1064
 3556WAT     H114930   0.142   3.237   7.980 -0.5699  0.4835  0.1814
 3556WAT     H214931   0.219   3.151   8.055 -0.9828  0.0157  0.0767
 3556WAT    EPW14932   0.157   3.199   8.047 -0.7197  0.0032 -0.1230
 3557WAT      O14933   7.959   5.356   0.956  0.5230  0.3024  0.1463
 3557WAT     H114934   8.011   5.421   0.980 -0.4912  1.2981 -0.2742
 3557WAT     H214935   7.976   5.346   0.871  1.4789 -0.7678  0.4332
 3557WAT    EPW14936   7.969   5.364   0.947  0.4893  0.1102  0.1785
 3558WAT      O14937   5.846   3.345   7.175  0.1615  0.3963 -0.3172
 3558WAT     H114938   5.810   3.299   7.239  0.4578  2.5536  1.5235
 3558WAT     H214939   5.778   3.387   7.139  0.1117 -0.0977 -0.8045
 3558WAT    EPW14940   5.831   3.345   7.179 -0.1188 -0.0914  0.3155
 3559WAT      O14941   5.089   3.812   7.903 -0.4456 -0.3224  0.1609
 3559WAT     H114942   5.015   3.771   7.883 -0.3640 -1.2006  1.4981
 3559WAT     H214943   5.076   3.838   7.985  0.6590 -0.3412  0.3540
 3559WAT    EPW14944   5.076   3.810   7.912  0.0181  0.0950  0.3513
 3560WAT      O14945   6.825   5.498   3.983 -0.4897  0.1492  0.0215
 3560WAT     H114946   6.895   5.508   4.035 -0.2219 -0.2634 -0.2506
 3560WAT     H214947   6.806   5.413   3.991 -1.0631  0.2917  0.2169
 3560WAT    EPW14948   6.833   5.487   3.992 -0.1014 -0.0792  0.2954
 3561WAT      O14949   0.689   5.200   1.854  0.0471 -0.4289 -0.5657
 3561WAT     H114950   0.659   5.141   1.797 -0.2777 -0.9969  0.1706
 3561WAT     H214951   0.620   5.215   1.905  0.7356 -1.0135  0.5599
 3561WAT    EPW14952   0.674   5.193   1.853  0.5654  0.3119 -0.0351
 3562WAT      O14953   6.145   1.626   0.938 -0.0148 -0.1798  0.0902
 3562WAT     H114954   6.145   1.607   0.853 -0.4917 -1.5719  0.3827
 3562WAT     H214955   6.197   1.696   0.943  3.8173 -2.6531 -0.8224
 3562WAT    EPW14956   6.153   1.634   0.926  0.7162  0.6282 -0.2178
 3563WAT      O14957   6.328   3.650   5.858  0.2973 -0.9531 -0.0061
 3563WAT     H114958   6.351   3.733   5.873 -0.4034 -0.5843 -0.8890
 3563WAT     H214959   6.282   3.628   5.929 -0.0514 -0.3822 -0.0536
 3563WAT    EPW14960   6.325   3.659   5.871 -0.7433  0.0629  0.5472
 3564WAT      O14961   2.155   1.455   6.596 -0.4060  0.1499 -0.2911
 3564WAT     H114962   2.154   1.444   6.509  1.1469  1.2204 -0.4873
 3564WAT     H214963   2.195   1.532   6.606  0.2428 -0.3606  1.3985
 3564WAT    EPW14964   2.161   1.465   6.585  0.2023 -0.1508  0.2008
 3565WAT      O14965   6.255   3.290   7.920 -0.0757  0.0759  0.2776
 3565WAT     H114966   6.279   3.373   7.922 -2.6713  1.0044 -1.3627
 3565WAT     H214967   6.176   3.290   7.957  0.1860 -1.7995  0.9351
 3565WAT    EPW14968   6.247   3.302   7.926 -0.0574 -0.9610 -0.6242
 3566WAT      O14969   5.575   3.597   6.851 -0.0399  0.2356  0.3744
 3566WAT     H114970   5.560   3.604   6.766  0.3050 -1.1472  0.1681
 3566WAT     H214971   5.655   3.631   6.861  0.2402 -0.3040  0.0028
 3566WAT    EPW14972   5.585   3.603   6.840 -0.1902  0.5274 -0.6429
 3567WAT      O14973   6.867   5.172   1.991 -0.0519  0.2142  0.1645
 3567WAT     H114974   6.784   5.146   1.996  0.5750 -1.7861  1.1977
 3567WAT     H214975   6.901   5.122   1.929  0.4935  0.6864  0.0721
 3567WAT    EPW14976   6.860   5.161   1.983  0.2265 -0.7548  0.1369
 3568WAT      O14977   4.574   4.616   1.954  0.0706 -0.4792  0.0100
 3568WAT     H114978   4.508   4.564   1.977  1.6995 -2.6314  0.1567
 3568WAT     H214979   4.643   4.579   1.992  1.5925  0.8246 -1.3413
 3568WAT    EPW14980   4.575   4.603   1.963 -0.1108 -0.2309  0.0316
 3569WAT      O14981   4.587   6.690   3.795 -0.1761  0.3547 -0.4036
 3569WAT     H114982   4.669   6.661   3.793 -0.2716  0.0397 -3.1209
 3569WAT     H214983   4.590   6.765   3.749 -1.1385  1.2497  0.9059
 3569WAT    EPW14984   4.599   6.697   3.788 -0.4335  0.5134 -0.2869
 3570WAT      O14985   5.601   1.321   5.698 -0.3824  0.2459  0.2203
 3570WAT     H114986   5.571   1.318   5.616 -1.1196  1.0457  0.4470
 3570WAT     H214987   5.616   1.237   5.717  3.6947  0.2017 -2.0817
 3570WAT    EPW14988   5.599   1.308   5.689  0.2052  0.0373  0.3413
 3571WAT      O14989   6.140   5.204   4.444  0.5404  0.3189  0.1577
 3571WAT     H114990   6.166   5.176   4.523 -0.3137 -1.6284 -0.2188
 3571WAT     H214991   6.213   5.200   4.396  0.9421  1.0128  0.6826
 3571WAT    EPW14992   6.155   5.199   4.449 -0.3199 -0.7411 -0.6647
 3572WAT      O14993   4.550   2.487   3.407 -0.0378 -0.0140  0.1769
 3572WAT     H114994   4.582   2.433   3.347 -1.7085  0.0538 -0.8302
 3572WAT     H214995   4.619   2.535   3.431  0.4755  0.7448 -2.5453
 3572WAT    EPW14996   4.565   2.487   3.402 -0.3247 -0.4057  0.2658
 3573WAT      O14997   1.365   4.646   5.874 -0.7053 -0.1619 -0.0025
 3573WAT     H114998   1.369   4.712   5.816 -0.8255 -0.0719  0.0922
 3573WAT     H214999   1.361   4.687   5.951 -1.7986 -0.2507  0.0123
 3573WAT    EPW15000   1.365   4.662   5.877 -0.1450 -0.1800 -0.2135
 3574WAT      O15001   4.159   5.451   0.620 -0.3368 -0.2284  0.1003
 3574WAT     H115002   4.084   5.410   0.638 -0.6570 -0.6448 -1.9701
 3574WAT     H215003   4.137   5.535   0.614 -0.4572 -0.2415  0.3487
 3574WAT    EPW15004   4.145   5.457   0.622 -0.8285  0.1766  0.4023
 3575WAT      O15005   7.311   2.368   1.028 -0.1705  0.2786  0.3502
 3575WAT     H115006   7.373   2.327   1.074  0.6352  1.1529  0.0866
 3575WAT     H215007   7.340   2.451   1.024 -0.2493  0.2488 -1.6396
 3575WAT    EPW15008   7.325   2.375   1.034 -0.0165 -0.2169  0.5627
 3576WAT      O15009   6.807   4.028   3.340  0.4345  0.1948  0.0502
 3576WAT     H115010   6.828   4.021   3.255  3.6716  2.1772  0.5214
 3576WAT     H215011   6.721   4.041   3.339 -0.0468 -2.1599 -2.7085
 3576WAT    EPW15012   6.797   4.029   3.327 -0.3697 -0.4096 -0.3538
 3577WAT      O15013   5.921   3.875   5.417  0.3038  0.1111 -0.0874
 3577WAT     H115014   5.893   3.957   5.405 -0.9875 -0.4039 -0.6897
 3577WAT     H215015   5.887   3.831   5.350  1.8408 -0.7467 -0.3546
 3577WAT    EPW15016   5.912   3.881   5.406  0.2774 -0.3402  0.5278
 3578WAT      O15017   5.538   6.977   6.606  0.0527  0.2459 -0.0827
 3578WAT     H115018   5.485   7.020   6.660  0.8633 -0.3903  1.2537
 3578WAT     H215019   5.563   7.038   6.548  0.2797  1.2978  1.0869
 3578WAT    EPW15020   5.534   6.992   6.605 -0.6266  0.0106 -0.4737
 3579WAT      O15021   5.211   5.883   5.212 -0.1087  0.0767  0.6158
 3579WAT     H115022   5.208   5.894   5.126  0.2246 -0.1130  0.5785
 3579WAT     H215023   5.281   5.930   5.236  1.3456 -1.8634  0.4601
 3579WAT    EPW15024   5.221   5.892   5.203  0.2433 -0.5598 -0.0346
 3580WAT      O15025   6.746   7.173   1.448  0.6370  0.2142 -0.0671
 3580WAT     H115026   6.782   7.246   1.417  1.2140  0.5053  1.2049
 3580WAT     H215027   6.681   7.156   1.393  0.8114  1.4163 -0.6574
 3580WAT    EPW15028   6.741   7.181   1.436 -0.7705  0.3376 -0.2094
 3581WAT      O15029   6.402   3.717   4.954 -0.2858  0.1030 -0.1065
 3581WAT     H115030   6.388   3.775   5.019  1.6086  0.0691  0.3857
 3581WAT     H215031   6.348   3.651   4.974 -0.0476  0.2785  1.2043
 3581WAT    EPW15032   6.392   3.716   4.967  0.3586 -0.4384 -0.1916
 3582WAT      O15033   7.646   6.311   1.764 -0.2971  0.0900 -0.3628
 3582WAT     H115034   7.583   6.364   1.792 -1.5355 -0.6176 -1.7235
 3582WAT     H215035   7.635   6.309   1.678  0.6142 -1.2900 -0.4767
 3582WAT    EPW15036   7.635   6.319   1.755  0.4020  0.1505 -0.5040
 3583WAT      O15037   5.806   2.986   6.895  0.3847  0.3821  0.1902
 3583WAT     H115038   5.801   2.971   6.981 -2.1696 -0.8701 -0.0669
 3583WAT     H215039   5.875   2.939   6.870  0.6008  0.0040  1.4419
 3583WAT    EPW15040   5.815   2.976   6.904 -0.2214  0.1898  0.4012
 3584WAT      O15041   4.593   3.816   5.659 -0.2903  0.4891 -0.7251
 3584WAT     H115042   4.563   3.874   5.601 -0.4176  0.4554 -0.6946
 3584WAT     H215043   4.659   3.858   5.698 -1.2833  1.1801  0.3168
 3584WAT    EPW15044   4.598   3.831   5.656  1.2604 -0.6501 -0.5886
 3585WAT      O15045   5.081   3.949   1.324  0.0102 -0.5715  0.7267
 3585WAT     H115046   5.143   3.901   1.363 -1.2220 -0.5805  2.8067
 3585WAT     H215047   5.060   3.901   1.254 -1.0827 -3.1160  2.6423
 3585WAT    EPW15048   5.087   3.935   1.320 -0.2431  0.4066  0.3159
 3586WAT      O15049   4.726   2.539   4.947  0.0780 -0.6867  0.0132
 3586WAT     H115050   4.675   2.589   4.997  1.1487  1.3092 -0.7844
 3586WAT     H215051   4.804   2.545   4.985  0.2600 -1.6868 -0.1732
 3586WAT    EPW15052   4.730   2.547   4.960 -0.0796 -0.3621 -0.1741
 3587WAT      O15053   6.993   3.805   1.190 -0.0930 -0.4088  0.6582
 3587WAT     H115054   6.924   3.778   1.235 -1.0223  0.0551 -0.4549
 3587WAT     H215055   6.968   3.798   1.107  0.1065  2.5147  0.2570
 3587WAT    EPW15056   6.979   3.800   1.184  0.0063 -0.0144  0.1872
 3588WAT      O15057   6.100   3.494   2.076  0.3579 -0.4363  0.1369
 3588WAT     H115058   6.091   3.516   1.992  2.1586 -1.2809 -0.3165
 3588WAT     H215059   6.025   3.521   2.112 -1.2502 -1.6206 -2.0665
 3588WAT    EPW15060   6.087   3.501   2.069  0.3224  0.2539  0.2307
 3589WAT      O15061   0.999   3.582   2.070 -0.0535 -0.2262 -0.3221
 3589WAT     H115062   0.949   3.512   2.082 -0.4698  0.2213  0.7372
 3589WAT     H215063   1.031   3.598   2.150 -1.2001  1.6972 -0.1731
 3589WAT    EPW15064   0.996   3.574   2.084  0.1881  0.1144 -0.2739
 3590WAT      O15065   2.350   1.846   7.744 -0.7468  0.1224  0.2703
 3590WAT     H115066   2.360   1.765   7.775  0.4254  0.7573  1.6324
 3590WAT     H215067   2.431   1.870   7.721 -0.6996  1.6697  1.8822
 3590WAT    EPW15068   2.364   1.838   7.745  0.1565 -0.6628  0.4456
 3591WAT      O15069   3.409   3.754   6.984 -0.1529  0.2087 -0.4202
 3591WAT     H115070   3.482   3.720   6.952 -0.6431 -1.0497 -0.2473
 3591WAT     H215071   3.423   3.840   6.979  2.2283  0.0446  1.6153
 3591WAT    EPW15072   3.422   3.762   6.978  0.2522 -0.0811 -0.3528
 3592WAT      O15073   6.113   0.490   4.720 -0.0058 -0.3997  0.4722
 3592WAT     H115074   6.090   0.483   4.804  0.9744 -0.5028  0.7459
 3592WAT     H215075   6.094   0.412   4.686 -2.3082  0.2714  0.0807
 3592WAT    EPW15076   6.107   0.478   4.727 -0.1436  0.4081  0.3599
 3593WAT      O15077   0.057   0.884   4.412 -0.2646 -0.4877  0.0167
 3593WAT     H115078   0.128   0.845   4.378 -0.9501  0.1645 -2.3619
 3593WAT     H215079   0.077   0.968   4.407 -0.2965 -0.3709  1.5828
 3593WAT    EPW15080   0.071   0.890   4.406 -0.3804 -0.0424 -0.3503
 3594WAT      O15081   4.858   1.286   5.049 -0.8160  0.2648 -0.5509
 3594WAT     H115082   4.939   1.313   5.068 -0.5997 -0.3062 -0.6351
 3594WAT     H215083   4.867   1.248   4.971 -1.2017  0.3628 -0.6442
 3594WAT    EPW15084   4.871   1.284   5.041  0.5503 -0.1736  0.3108
 3595WAT      O15085   5.965   0.815   7.433  0.2109  0.3589 -0.4166
 3595WAT     H115086   5.965   0.759   7.366  1.3499  0.6737 -0.7009
 3595WAT     H215087   5.963   0.893   7.395 -1.9356  0.5524 -0.0131
 3595WAT    EPW15088   5.965   0.818   7.417  0.3334  0.6009  0.8608
 3596WAT      O15089   6.310   6.173   5.469  0.1601  0.0834 -0.0865
 3596WAT     H115090   6.383   6.171   5.516  0.4921 -2.0443 -0.6215
 3596WAT     H215091   6.335   6.207   5.393  0.2538  0.7052  0.2123
 3596WAT    EPW15092   6.324   6.178   5.465 -0.5881 -0.2874 -0.0964
 3597WAT      O15093   6.670   2.630   8.046  0.0105  0.1306 -0.2456
 3597WAT     H115094   6.737   2.617   7.993 -0.1060  0.3034 -0.4340
 3597WAT     H215095   6.707   2.652   8.122  0.1869 -0.4403 -0.1585
 3597WAT    EPW15096   6.685   2.631   8.050 -0.3489  0.0201 -0.5478
 3598WAT      O15097   5.854   1.188   6.024 -0.8160 -0.1550 -0.3995
 3598WAT     H115098   5.911   1.217   5.965 -1.3876 -1.0454 -1.4438
 3598WAT     H215099   5.902   1.141   6.079 -0.3005  0.5266 -0.2644
 3598WAT    EPW15100   5.869   1.186   6.023 -0.0915 -0.3182  0.6215
 3599WAT      O15101   2.366   1.262   6.014  0.1140 -0.1297 -0.0629
 3599WAT     H115102   2.300   1.225   6.058  1.4843  0.7312  2.9434
 3599WAT     H215103   2.334   1.339   5.989  0.1552  0.6483  2.1219
 3599WAT    EPW15104   2.352   1.268   6.017  0.7197 -0.3957 -0.5788
 3600WAT      O15105   7.148   1.242   1.864  0.4098 -0.6565  0.1814
 3600WAT     H115106   7.227   1.258   1.830 -0.1442  2.5140  0.0615
 3600WAT     H215107   7.166   1.220   1.947  1.4791 -2.8828 -0.5593
 3600WAT    EPW15108   7.162   1.241   1.871  0.1223  0.4588 -0.0627
 3601WAT      O15109   7.909   2.795   4.418 -0.3398  0.3199 -0.3387
 3601WAT     H115110   7.937   2.865   4.460  1.4640 -0.9446  0.7415
 3601WAT     H215111   7.975   2.777   4.363 -0.4467 -0.8599 -0.1186
 3601WAT    EPW15112   7.923   2.802   4.416 -0.3217  0.2572 -0.0391
 3602WAT      O15113   4.447   3.482   5.441 -0.6163 -0.5084  0.5966
 3602WAT     H115114   4.407   3.408   5.465 -1.2776 -0.5743 -0.6346
 3602WAT     H215115   4.384   3.527   5.402  0.5443 -0.7904 -1.8003
 3602WAT    EPW15116   4.432   3.477   5.439  0.0863  0.0680  0.3932
 3603WAT      O15117   0.034   1.311   3.294 -0.4986 -0.1594 -0.4152
 3603WAT     H115118   0.078   1.383   3.274 -0.7165  0.0651 -0.1052
 3603WAT     H215119   0.008   1.325   3.377  1.3525 -1.5293  0.4718
 3603WAT    EPW15120   0.036   1.324   3.303  0.2608 -0.0794  0.7286
 3604WAT      O15121   5.571   4.694   6.507 -0.2536  0.2556 -0.1152
 3604WAT     H115122   5.553   4.632   6.565 -0.2017 -0.3622 -0.7532
 3604WAT     H215123   5.655   4.712   6.522 -0.3446  0.3797  0.2601
 3604WAT    EPW15124   5.580   4.688   6.518 -0.6889 -0.1900 -0.2663
 3605WAT      O15125   4.773   7.232   5.914 -0.1726  0.4992  0.8652
 3605WAT     H115126   4.784   7.166   5.857  0.5327  0.9802  0.4123
 3605WAT     H215127   4.799   7.302   5.868  1.4120  0.7754  2.0943
 3605WAT    EPW15128   4.779   7.232   5.899  0.1388  0.5453 -0.6302
 3606WAT      O15129   3.586   3.842   6.687 -0.2681  0.0549 -0.9074
 3606WAT     H115130   3.563   3.926   6.687 -0.1433  0.0989 -0.3824
 3606WAT     H215131   3.664   3.842   6.648  0.7167  0.5054  0.9109
 3606WAT    EPW15132   3.594   3.854   6.681 -0.4393 -0.3615 -0.1130
 3607WAT      O15133   6.202   2.902   7.694  0.2108 -0.0996 -0.4812
 3607WAT     H115134   6.133   2.923   7.645  0.6987  1.0123 -0.7165
 3607WAT     H215135   6.247   2.976   7.699  1.5247 -0.8665 -0.5429
 3607WAT    EPW15136   6.198   2.916   7.687 -0.1997 -0.0935  0.7521
 3608WAT      O15137   2.189   3.152   5.807  0.3368 -0.0910 -0.1331
 3608WAT     H115138   2.143   3.198   5.865 -0.9714 -0.5713 -0.7472
 3608WAT     H215139   2.213   3.212   5.748 -2.3220 -0.2597 -1.5386
 3608WAT    EPW15140   2.186   3.168   5.807  0.1458  0.4270 -0.2784
 3609WAT      O15141   4.726   7.696   6.054  0.5499 -0.0533  0.2090
 3609WAT     H115142   4.654   7.707   6.102 -0.0653 -1.8322 -0.2162
 3609WAT     H215143   4.696   7.686   5.973  1.4730  1.4416 -0.3532
 3609WAT    EPW15144   4.711   7.696   6.049  0.2744 -0.3534  0.2373
 3610WAT      O15145   4.259   5.410   7.207 -0.8701 -0.1601  0.7541
 3610WAT     H115146   4.209   5.422   7.137 -1.8572  1.3161  1.6599
 3610WAT     H215147   4.220   5.457   7.269  0.2669 -0.9839  2.1683
 3610WAT    EPW15148   4.246   5.418   7.206 -0.3613  0.2344 -0.7311
 3611WAT      O15149   7.878   5.557   2.045 -0.1532  0.0260 -0.1360
 3611WAT     H115150   7.858   5.577   1.963  2.1167 -0.7656 -0.9484
 3611WAT     H215151   7.919   5.628   2.075  0.3313 -0.2194 -0.2002
 3611WAT    EPW15152   7.881   5.570   2.038  0.2404 -0.5944  0.7690
 3612WAT      O15153   3.676   0.932   4.443  0.1395 -0.1505 -0.1760
 3612WAT     H115154   3.620   0.998   4.434  1.4626  1.0325 -0.0177
 3612WAT     H215155   3.735   0.963   4.498  0.0872 -1.9761  0.9664
 3612WAT    EPW15156   3.676   0.946   4.449  0.0204  0.2186 -0.4229
 3613WAT      O15157   4.891   7.616   3.606  0.0275  0.1479 -0.4606
 3613WAT     H115158   4.822   7.670   3.607  0.4404  0.7394  1.4083
 3613WAT     H215159   4.861   7.545   3.648  0.7111  0.7035  1.0490
 3613WAT    EPW15160   4.876   7.613   3.613  0.5334  0.2313 -0.1629
 3614WAT      O15161   5.870   0.325   7.345  0.4080  0.5599  0.3689
 3614WAT     H115162   5.889   0.244   7.371 -1.1606  0.3671  1.0233
 3614WAT     H215163   5.943   0.352   7.306  0.5997 -1.6120 -0.9642
 3614WAT    EPW15164   5.883   0.317   7.343 -0.3712 -0.1300  0.0600
 3615WAT      O15165   0.532   2.206   4.319  0.0674  0.2392  0.7685
 3615WAT     H115166   0.611   2.170   4.314 -0.0758 -0.0525  0.5197
 3615WAT     H215167   0.512   2.222   4.236 -0.8911 -1.3865  0.6350
 3615WAT    EPW15168   0.541   2.203   4.306  0.2468  0.9486  0.0908
 3616WAT      O15169   0.640   4.276   3.971 -0.5338  0.2236 -0.6799
 3616WAT     H115170   0.562   4.274   4.010 -0.9844  2.9278 -1.2777
 3616WAT     H215171   0.624   4.247   3.891 -0.4397 -1.2685 -0.1979
 3616WAT    EPW15172   0.626   4.272   3.965 -0.2900 -0.5301 -0.1274
 3617WAT      O15173   0.532   4.416   1.725  0.9972 -0.1688 -0.3761
 3617WAT     H115174   0.534   4.499   1.753 -1.2131 -0.1779  0.0048
 3617WAT     H215175   0.582   4.374   1.782  0.2893  0.5594  0.8265
 3617WAT    EPW15176   0.539   4.422   1.737 -0.7929 -0.7748 -1.0923
 3618WAT      O15177   3.256   7.976   6.489 -0.4358 -0.4877 -0.0856
 3618WAT     H115178   3.173   8.001   6.477 -1.0904 -3.0055 -1.3871
 3618WAT     H215179   3.249   7.894   6.519  1.5982 -0.5122  0.4792
 3618WAT    EPW15180   3.242   7.968   6.492  0.2714  0.4919 -0.4947
 3619WAT      O15181   4.241   3.548   7.141 -0.1484  0.2386  0.0418
 3619WAT     H115182   4.159   3.535   7.168 -0.2014  0.4482 -0.0125
 3619WAT     H215183   4.266   3.619   7.187  0.4073 -0.5126  0.9346
 3619WAT    EPW15184   4.233   3.557   7.152  0.5348 -0.1427 -0.3614
 3620WAT      O15185   1.284   6.381   7.957 -0.4819 -0.0241 -0.3855
 3620WAT     H115186   1.299   6.465   7.976 -1.1187 -0.2981  1.5270
 3620WAT     H215187   1.355   6.340   7.988  1.2007 -0.0272 -3.7941
 3620WAT    EPW15188   1.297   6.387   7.964 -0.9937  0.0261  0.0888
 3621WAT      O15189   1.328   6.215   4.772  0.3661 -0.1032  0.3656
 3621WAT     H115190   1.342   6.264   4.843  0.7160 -0.0768  0.2795
 3621WAT     H215191   1.352   6.135   4.797  2.4735  0.2547 -0.3372
 3621WAT    EPW15192   1.333   6.211   4.786 -0.3626 -0.0007 -0.0329
 3622WAT      O15193   5.574   0.594   5.756 -0.3800 -0.4392  0.3193
 3622WAT     H115194   5.510   0.633   5.800 -0.5410 -1.8779  1.4362
 3622WAT     H215195   5.534   0.562   5.686 -0.3793  0.7323 -0.2450
 3622WAT    EPW15196   5.559   0.595   5.752  0.2973  0.7600 -0.0821
 3623WAT      O15197   7.816   7.184   0.467  0.7716 -0.0357  0.0028
 3623WAT     H115198   7.779   7.223   0.398 -2.4610 -0.6708  1.1922
 3623WAT     H215199   7.809   7.099   0.448  1.1267 -0.1867  0.5359
 3623WAT    EPW15200   7.810   7.177   0.454  0.1124 -0.5732  0.9433
 3624WAT      O15201   3.125   7.376   7.396 -0.5550 -0.1086 -0.5943
 3624WAT     H115202   3.174   7.319   7.440 -3.4893 -1.4525  1.2770
 3624WAT     H215203   3.151   7.453   7.426  0.1143 -0.7825  0.6474
 3624WAT    EPW15204   3.136   7.379   7.407 -0.1373  0.0314  0.5496
 3625WAT      O15205   5.104   1.140   5.981  0.4457 -0.0198 -0.1316
 3625WAT     H115206   5.029   1.184   5.990  0.4377 -0.4154  3.1656
 3625WAT     H215207   5.078   1.057   5.971  0.4615  0.0013 -0.3559
 3625WAT    EPW15208   5.089   1.134   5.981  0.6184  0.3759 -0.3876
 3626WAT      O15209   6.239   3.558   7.733 -0.1437  0.1446  0.5564
 3626WAT     H115210   6.173   3.615   7.732 -0.5354 -0.2972  0.3687
 3626WAT     H215211   6.200   3.483   7.710  0.3515 -0.2024  0.8496
 3626WAT    EPW15212   6.223   3.555   7.729 -0.1000  0.1580  0.2309
 3627WAT      O15213   3.433   7.918   6.269 -0.0617  0.1799  0.1384
 3627WAT     H115214   3.383   7.937   6.338  0.2221 -1.0525  0.7035
 3627WAT     H215215   3.447   7.833   6.276  1.5278  0.3607 -0.4082
 3627WAT    EPW15216   3.428   7.908   6.280 -0.4253  0.5547 -0.8545
 3628WAT      O15217   5.736   7.680   5.291 -0.5174 -0.2380  0.3155
 3628WAT     H115218   5.687   7.753   5.291  0.3759  0.4457 -1.7778
 3628WAT     H215219   5.699   7.630   5.352 -2.7026  0.9675  0.0706
 3628WAT    EPW15220   5.723   7.684   5.300  0.0027 -0.3486  0.2691
 3629WAT      O15221   5.320   7.671   6.108  0.0037 -0.1462 -0.1880
 3629WAT     H115222   5.336   7.632   6.184 -1.6270 -1.9572 -0.6908
 3629WAT     H215223   5.330   7.607   6.049 -2.9953  0.0026 -1.0356
 3629WAT    EPW15224   5.324   7.656   6.110 -0.1693  0.1568  1.1148
 3630WAT      O15225   4.398   7.047   1.163 -0.5202 -0.3918 -0.2649
 3630WAT     H115226   4.328   7.013   1.203  0.3046 -1.4559  0.3396
 3630WAT     H215227   4.424   6.983   1.110  0.4827 -0.3441  0.1476
 3630WAT    EPW15228   4.391   7.033   1.161 -0.2628 -0.1432  0.3143
 3631WAT      O15229   3.623   3.939   8.026  0.4239 -0.0753  0.0141
 3631WAT     H115230   3.643   3.858   8.051  0.2147 -0.2962 -0.5173
 3631WAT     H215231   3.669   3.989   8.080 -2.0713 -0.4571  2.7201
 3631WAT    EPW15232   3.633   3.935   8.037 -0.0486 -0.7875  0.2368
 3632WAT      O15233   1.554   7.903   3.730 -0.2913  0.5578 -0.0171
 3632WAT     H115234   1.615   7.843   3.712 -0.4741  0.5963 -0.7699
 3632WAT     H215235   1.597   7.964   3.775  0.1649  0.4657 -0.3324
 3632WAT    EPW15236   1.569   7.903   3.734  0.0021  0.0558  0.4970
 3633WAT      O15237   7.801   3.077   4.666 -0.3529  0.2577  0.2662
 3633WAT     H115238   7.861   3.038   4.617 -0.6893 -0.4309  0.3934
 3633WAT     H215239   7.772   3.013   4.718 -1.0761  0.6210  0.3217
 3633WAT    EPW15240   7.806   3.062   4.667  0.4680  0.0444  0.5885
 3634WAT      O15241   0.367   1.055   1.298 -0.0870 -0.3787  0.3195
 3634WAT     H115242   0.358   1.142   1.305  0.9726 -0.2186 -0.2077
 3634WAT     H215243   0.284   1.027   1.293 -0.4245  0.6818 -0.3569
 3634WAT    EPW15244   0.353   1.064   1.298  0.4775 -0.2526 -0.0998
 3635WAT      O15245   6.912   5.327   2.502  0.1053 -0.8999  0.4191
 3635WAT     H115246   6.843   5.340   2.450  1.3796  0.0602 -1.1539
 3635WAT     H215247   6.962   5.272   2.456  0.1885 -1.9689  1.7502
 3635WAT    EPW15248   6.909   5.321   2.487 -0.1949  0.2865  0.1842
 3636WAT      O15249   5.760   1.639   2.135  0.0997  0.7362 -0.1921
 3636WAT     H115250   5.678   1.656   2.108 -0.1334 -2.5317 -2.0904
 3636WAT     H215251   5.808   1.701   2.097 -1.0273 -0.0254 -3.1054
 3636WAT    EPW15252   5.755   1.650   2.125 -0.1861  0.6602  0.0808
 3637WAT      O15253   4.816   4.039   5.667 -0.2209 -0.1130  0.1156
 3637WAT     H115254   4.789   4.031   5.749  0.6421 -0.9168  0.3438
 3637WAT     H215255   4.811   4.125   5.652 -0.8278 -0.0144  0.8454
 3637WAT    EPW15256   4.812   4.051   5.677  0.0535 -0.2535 -0.3951
 3638WAT      O15257   3.720   0.500   2.176 -0.1697 -0.2057 -0.1594
 3638WAT     H115258   3.759   0.550   2.236  0.3785 -0.7015 -0.0955
 3638WAT     H215259   3.666   0.555   2.135 -0.4777  0.1633  0.7166
 3638WAT    EPW15260   3.718   0.515   2.179 -0.1912  0.4600 -0.0370
 3639WAT      O15261   4.828   5.297   5.610  0.0220  0.2019  0.4622
 3639WAT     H115262   4.802   5.380   5.623  0.3448  0.5689 -1.0933
 3639WAT     H215263   4.865   5.299   5.532  1.2646 -1.1539  0.9747
 3639WAT    EPW15264   4.830   5.310   5.601 -0.3420 -0.6412 -1.3271
 3640WAT      O15265   6.646   5.761   5.189 -0.2036 -0.0666 -0.0187
 3640WAT     H115266   6.645   5.748   5.103 -1.7246 -1.2663  0.1306
 3640WAT     H215267   6.728   5.744   5.212  0.0829 -0.2902 -1.1438
 3640WAT    EPW15268   6.658   5.757   5.180 -0.4122  0.1546 -0.0970
 3641WAT      O15269   3.905   1.909   7.684 -0.9885  0.0714 -0.5298
 3641WAT     H115270   3.861   1.984   7.689  1.5429  1.5845  0.3879
 3641WAT     H215271   3.949   1.916   7.609 -0.6991 -0.5045 -0.4201
 3641WAT    EPW15272   3.905   1.921   7.673 -0.1470  0.4086 -0.3258
 3642WAT      O15273   2.665   5.957   4.462  0.6570  0.0598 -0.3517
 3642WAT     H115274   2.751   5.944   4.471  0.6234 -1.1128 -1.4252
 3642WAT     H215275   2.633   5.937   4.541  1.3498  0.3933  0.0227
 3642WAT    EPW15276   2.673   5.952   4.475  0.2738 -0.3243  0.6894
 3643WAT      O15277   5.006   3.950   4.247 -0.1131  0.8374 -0.5694
 3643WAT     H115278   4.933   3.961   4.294  0.4163  3.1449 -0.1420
 3643WAT     H215279   5.068   3.936   4.307  0.3377  2.4417 -0.6044
 3643WAT    EPW15280   5.004   3.949   4.263 -0.0166  0.3109  0.2483
 3644WAT      O15281   6.940   4.230   4.244  0.5834  0.0310  0.5848
 3644WAT     H115282   6.993   4.209   4.310  0.8169 -0.8017  0.1480
 3644WAT     H215283   6.935   4.157   4.198  1.9380  1.0574 -1.3554
 3644WAT    EPW15284   6.947   4.216   4.247 -0.2510 -0.1899  0.1169
 3645WAT      O15285   4.881   5.230   6.197  0.1034 -0.1197  0.3198
 3645WAT     H115286   4.829   5.234   6.267  0.9308  0.5940  0.9196
 3645WAT     H215287   4.944   5.288   6.215  0.5554 -0.2223 -0.8366
 3645WAT    EPW15288   4.883   5.239   6.210  0.1289 -0.5545  0.5575
 3646WAT      O15289   5.529   3.392   7.927 -0.3179 -0.1095  0.2992
 3646WAT     H115290   5.560   3.320   7.890  0.3511 -0.0171  0.6664
 3646WAT     H215291   5.540   3.453   7.865  0.3207 -0.0623  0.4482
 3646WAT    EPW15292   5.535   3.391   7.912 -0.1290  0.5366  0.4010
 3647WAT      O15293   2.197   0.609   4.804 -0.4836 -0.7658 -0.0962
 3647WAT     H115294   2.194   0.634   4.720 -0.0385  1.1951  0.4233
 3647WAT     H215295   2.265   0.554   4.806 -0.6883 -1.0848 -1.0565
 3647WAT    EPW15296   2.207   0.604   4.792  0.2415 -0.3387 -0.1781
 3648WAT      O15297   5.442   7.077   1.115 -0.5913 -0.2791 -0.0872
 3648WAT     H115298   5.368   7.115   1.143 -0.2902 -0.9256  1.7445
 3648WAT     H215299   5.420   6.992   1.112 -0.7073 -0.2253 -2.2950
 3648WAT    EPW15300   5.428   7.070   1.118  0.1061 -0.0443 -0.6861
 3649WAT      O15301   0.014   3.316   0.667  0.4530 -0.1978 -0.3933
 3649WAT     H115302  -0.018   3.237   0.647 -0.9419  0.7339 -2.1202
 3649WAT     H215303   0.100   3.301   0.677  0.1359 -2.0299 -0.0168
 3649WAT    EPW15304   0.022   3.302   0.666 -0.5684 -0.1204  0.2874
 3650WAT      O15305   3.060   3.609   5.939 -0.0889  0.0583  0.1607
 3650WAT     H115306   3.091   3.689   5.956  1.5659 -0.7153  1.0496
 3650WAT     H215307   3.015   3.590   6.011  1.1364 -0.5209  0.8107
 3650WAT    EPW15308   3.058   3.618   5.952 -0.5349 -0.6457  0.6901
 3651WAT      O15309   6.775   3.646   3.164  0.8461  0.0572  0.1246
 3651WAT     H115310   6.722   3.711   3.142  1.0153  0.3235  0.4927
 3651WAT     H215311   6.804   3.616   3.087  1.7249  1.2236 -0.0356
 3651WAT    EPW15312   6.772   3.651   3.149 -0.0132 -0.2333 -0.2499
 3652WAT      O15313   4.616   2.981   4.195  0.4050  0.0060  0.6771
 3652WAT     H115314   4.602   2.901   4.165  1.3471  0.0860 -0.0449
 3652WAT     H215315   4.583   2.979   4.276 -3.5557  0.2072 -0.7263
 3652WAT    EPW15316   4.609   2.969   4.203  0.0913 -0.4151 -0.4016
 3653WAT      O15317   5.818   3.871   5.874  0.2011 -0.5003  0.6707
 3653WAT     H115318   5.737   3.892   5.897  0.1801 -1.6759  1.7903
 3653WAT     H215319   5.807   3.825   5.800 -0.1381 -0.6288  0.8019
 3653WAT    EPW15320   5.804   3.867   5.866 -0.1163 -0.2065 -0.4880
 3654WAT      O15321   7.665   1.859   0.825  0.2073 -0.4111  0.6158
 3654WAT     H115322   7.634   1.861   0.744  0.5195 -0.0372  0.5061
 3654WAT     H215323   7.602   1.898   0.872  0.6403  0.6554  0.3437
 3654WAT    EPW15324   7.651   1.865   0.820 -0.5141 -0.5143  0.6343
 3655WAT      O15325   6.546   5.166   1.090  0.0111  0.0767 -0.0909
 3655WAT     H115326   6.581   5.091   1.117 -0.7374  0.0710  0.9095
 3655WAT     H215327   6.565   5.167   1.004  3.3495  0.5712  0.4994
 3655WAT    EPW15328   6.554   5.155   1.081 -0.0418  0.1513 -0.0353
 3656WAT      O15329   6.104   3.320   7.655 -0.6823 -0.0154 -0.2701
 3656WAT     H115330   6.127   3.295   7.575  0.1121  1.4143 -0.5263
 3656WAT     H215331   6.068   3.248   7.689  0.7286 -1.2395 -1.2113
 3656WAT    EPW15332   6.102   3.306   7.648  0.1218  0.0003  0.6470
 3657WAT      O15333   5.916   4.648   5.041 -0.0580  0.4635 -0.6754
 3657WAT     H115334   5.982   4.679   5.089  0.2882 -1.9236  0.5339
 3657WAT     H215335   5.955   4.589   4.989 -1.0071  0.1949 -1.1032
 3657WAT    EPW15336   5.932   4.644   5.040  0.0611  0.3353 -0.1974
 3658WAT      O15337   2.787   1.172   4.581 -0.0028 -0.1193  0.1006
 3658WAT     H115338   2.730   1.145   4.520  0.9087 -1.0531 -0.3667
 3658WAT     H215339   2.736   1.206   4.643 -0.9876  0.2560 -0.8893
 3658WAT    EPW15340   2.771   1.173   4.581 -0.6265  0.2483 -0.3857
 3659WAT      O15341   5.043   3.819   5.206 -0.0538 -0.6007  0.5697
 3659WAT     H115342   5.071   3.737   5.217 -1.2997 -1.0160  0.8092
 3659WAT     H215343   4.957   3.814   5.223 -0.4731  0.4346 -1.0298
 3659WAT    EPW15344   5.034   3.806   5.210  0.4343  0.7197  0.0768
 3660WAT      O15345   6.368   3.535   7.960  0.1462 -0.2103  0.1921
 3660WAT     H115346   6.338   3.577   8.030 -0.1563 -0.7475  0.3914
 3660WAT     H215347   6.315   3.561   7.896  0.5523  0.4432  0.1098
 3660WAT    EPW15348   6.356   3.545   7.961  0.0525  0.0327  0.4376
 3661WAT      O15349   7.211   3.982   0.846  0.3589 -0.9318 -0.1555
 3661WAT     H115350   7.189   3.897   0.842 -0.6342 -0.7167  0.2742
 3661WAT     H215351   7.164   4.019   0.782  0.2169 -0.6042  0.1329
 3661WAT    EPW15352   7.201   3.975   0.836  0.2803 -0.1764  0.1958
 3662WAT      O15353   4.692   5.837   7.882 -0.1339 -0.2897 -0.4794
 3662WAT     H115354   4.703   5.762   7.839  0.6843 -0.3056 -0.2522
 3662WAT     H215355   4.774   5.865   7.896 -0.4255  0.7630 -0.7740
 3662WAT    EPW15356   4.706   5.830   7.878 -0.1663 -0.5442 -0.9060
 3663WAT      O15357   2.539   6.258   7.888 -0.0852  0.0477 -0.1496
 3663WAT     H115358   2.559   6.287   7.808  1.0424 -1.6781 -0.5423
 3663WAT     H215359   2.457   6.229   7.878 -0.6410  1.5325 -0.1564
 3663WAT    EPW15360   2.530   6.258   7.874  0.5348 -0.0784 -0.2818
 3664WAT      O15361   5.036   6.110   0.082  0.5578  0.4905  0.4606
 3664WAT     H115362   5.042   6.189   0.046  2.2397 -0.2495 -1.0580
 3664WAT     H215363   4.962   6.114   0.128  0.7856  3.0411  0.7550
 3664WAT    EPW15364   5.026   6.122   0.083 -0.7027 -0.7599  0.1521
 3665WAT      O15365   5.335   3.894   5.020 -0.7496  0.0126  0.1914
 3665WAT     H115366   5.289   3.821   5.008 -0.4292 -0.3078  0.8504
 3665WAT     H215367   5.347   3.925   4.939 -1.1123 -0.5214 -0.0720
 3665WAT    EPW15368   5.330   3.888   5.006 -0.4250 -0.3551 -0.4857
 3666WAT      O15369   4.734   5.828   2.028 -0.0731  0.1464 -0.5671
 3666WAT     H115370   4.766   5.794   2.101 -4.3723  0.9871  2.0628
 3666WAT     H215371   4.735   5.761   1.972  0.4747 -1.4985  1.2951
 3666WAT    EPW15372   4.739   5.813   2.030 -0.2058  0.2295 -0.3560
 3667WAT      O15373   7.075   4.924   3.572  0.2478  0.0871 -0.1774
 3667WAT     H115374   7.100   4.983   3.513 -0.5244  1.3316  0.6805
 3667WAT     H215375   7.058   4.854   3.524 -0.0860  0.9720 -1.4186
 3667WAT    EPW15376   7.076   4.923   3.556  0.4290  0.0241 -0.6948
 3668WAT      O15377   4.652   7.427   4.801  0.5295 -0.3341  0.1622
 3668WAT     H115378   4.691   7.497   4.834 -0.0334  0.6575 -1.1798
 3668WAT     H215379   4.601   7.398   4.866 -1.0840  1.9545  0.0501
 3668WAT    EPW15380   4.650   7.433   4.815 -0.4242  0.0540  0.2188
 3669WAT      O15381   2.401   4.968   5.721 -0.0989  0.0449 -0.0084
 3669WAT     H115382   2.412   5.017   5.792  0.7796 -0.3613  0.1498
 3669WAT     H215383   2.399   5.027   5.656  1.4136  0.2965  0.1278
 3669WAT    EPW15384   2.402   4.984   5.722  0.1112  0.1467 -0.5425
 3670WAT      O15385   3.453   2.734   5.976 -0.7565 -0.8939 -0.2117
 3670WAT     H115386   3.429   2.650   5.977 -0.1820 -1.0644  0.9384
 3670WAT     H215387   3.531   2.733   6.015 -1.4792  0.3753  1.3964
 3670WAT    EPW15388   3.461   2.721   5.982 -0.5458 -0.1568  0.0083
 3671WAT      O15389   4.557   4.787   4.928 -0.0471  0.0686  0.2272
 3671WAT     H115390   4.524   4.777   4.848  0.4799 -0.4353  0.0661
 3671WAT     H215391   4.489   4.815   4.975 -1.3196 -2.9382  0.4133
 3671WAT    EPW15392   4.542   4.790   4.923 -0.0935 -0.1817  0.0611
 3672WAT      O15393   6.043   2.928   7.944  0.2535  0.2548 -0.0781
 3672WAT     H115394   6.103   2.897   7.889 -1.0573 -1.0479 -0.8321
 3672WAT     H215395   5.977   2.872   7.937 -1.6742  2.4224 -0.4082
 3672WAT    EPW15396   6.042   2.915   7.935 -0.0108  0.3594 -0.1177
 3673WAT      O15397   5.402   0.167   2.457  0.1394  0.0888  0.3551
 3673WAT     H115398   5.482   0.194   2.437 -0.2690  1.7921  0.8923
 3673WAT     H215399   5.353   0.194   2.390 -0.2526  0.5542  0.8205
 3673WAT    EPW15400   5.406   0.175   2.444 -0.1382  0.9389 -0.0271
 3674WAT      O15401   6.148   5.711   0.161  0.3894 -0.4874 -0.2563
 3674WAT     H115402   6.090   5.772   0.138  0.5252  0.6560  2.1270
 3674WAT     H215403   6.100   5.638   0.168 -0.1122 -0.2880 -1.3541
 3674WAT    EPW15404   6.132   5.709   0.159  0.2338  0.8706 -1.1084
 3675WAT      O15405   5.837   3.590   6.591  0.5709  0.2503  0.0584
 3675WAT     H115406   5.831   3.669   6.628 -1.1004  0.3511 -0.3563
 3675WAT     H215407   5.843   3.607   6.506  0.9015 -0.0601  0.0167
 3675WAT    EPW15408   5.837   3.604   6.584  0.3584 -0.2118  0.3124
 3676WAT      O15409   2.177   2.624   1.724  0.4577 -0.3189  0.1905
 3676WAT     H115410   2.162   2.583   1.649  2.0824 -0.5800 -0.0300
 3676WAT     H215411   2.160   2.708   1.706  0.9072 -0.3657 -0.5075
 3676WAT    EPW15412   2.173   2.630   1.710  0.0296  0.2359  0.1266
 3677WAT      O15413   6.079   1.499   2.705 -0.1455  0.2664  0.1522
 3677WAT     H115414   6.098   1.474   2.787 -1.2551 -0.6980  0.1318
 3677WAT     H215415   6.133   1.567   2.692 -0.6269  1.0694  2.0207
 3677WAT    EPW15416   6.090   1.505   2.716  0.5733 -0.1533 -0.4495
 3678WAT      O15417   2.105   5.075   1.007  0.4120  0.2730 -0.1868
 3678WAT     H115418   2.055   5.047   0.941  0.9584  0.9875 -0.9279
 3678WAT     H215419   2.102   5.009   1.064 -1.3175  0.2691 -0.2330
 3678WAT    EPW15420   2.097   5.061   1.006  0.0097  0.2964 -0.3937
 3679WAT      O15421   3.863   2.123   7.051  0.3570  0.5800 -0.3854
 3679WAT     H115422   3.936   2.127   7.004  0.2948  1.8328 -0.4001
 3679WAT     H215423   3.869   2.192   7.104  0.0624 -0.3654  0.9267
 3679WAT    EPW15424   3.875   2.133   7.052 -0.2698 -0.3542  0.4479
 3680WAT      O15425   7.224   1.938   0.091 -0.0335  0.1550  0.6555
 3680WAT     H115426   7.151   1.942   0.043  0.2321 -2.7702 -0.1648
 3680WAT     H215427   7.195   1.913   0.170 -0.0448  0.7319  0.8431
 3680WAT    EPW15428   7.209   1.935   0.096  0.3693 -0.1038 -0.6101
 3681WAT      O15429   5.675   3.129   0.182 -0.3296  0.2616  0.0042
 3681WAT     H115430   5.660   3.070   0.245 -0.1899 -0.7688 -0.8892
 3681WAT     H215431   5.644   3.090   0.111  0.0660  1.1503 -0.6661
 3681WAT    EPW15432   5.669   3.114   0.181  0.3199  0.6090  0.5299
 3682WAT      O15433   5.428   2.659   5.078 -0.3207 -0.7716  0.2563
 3682WAT     H115434   5.464   2.686   5.003 -0.6451  0.5325  0.5468
 3682WAT     H215435   5.495   2.622   5.120  0.0280 -0.8947 -0.3932
 3682WAT    EPW15436   5.443   2.658   5.073  0.5916 -0.1466 -0.1222
 3683WAT      O15437   3.571   2.877   7.643 -0.2023 -0.5565 -0.8472
 3683WAT     H115438   3.619   2.817   7.602  0.8565 -0.9366  0.8194
 3683WAT     H215439   3.492   2.869   7.607  0.5112 -1.2699 -2.3294
 3683WAT    EPW15440   3.566   2.867   7.632 -0.1524 -0.1813 -0.5656
 3684WAT      O15441   1.696   6.242   6.698 -0.0433  0.1826 -0.2606
 3684WAT     H115442   1.643   6.310   6.687 -2.0061 -1.3727 -0.8484
 3684WAT     H215443   1.696   6.229   6.784 -1.5712 -0.4972 -0.3427
 3684WAT    EPW15444   1.688   6.250   6.709 -0.1905  0.2199 -0.1440
 3685WAT      O15445   3.723   7.404   5.934 -0.2362 -0.4539  0.4129
 3685WAT     H115446   3.732   7.456   5.865 -0.1937 -1.6760 -0.5328
 3685WAT     H215447   3.702   7.459   5.999  0.0720  0.7532 -0.4836
 3685WAT    EPW15448   3.721   7.420   5.934  0.4866 -0.1722 -0.2867
 3686WAT      O15449   5.213   6.107   6.685  0.8794 -0.1346 -0.1156
 3686WAT     H115450   5.160   6.087   6.619 -1.4548  0.7615  1.3457
 3686WAT     H215451   5.272   6.043   6.685 -0.9908 -1.9447 -1.0178
 3686WAT    EPW15452   5.214   6.095   6.675 -0.2451  0.1675  0.0448
 3687WAT      O15453   3.349   6.737   7.026 -0.0525 -0.3057 -0.2204
 3687WAT     H115454   3.400   6.776   6.966  1.2187 -0.6255  0.6101
 3687WAT     H215455   3.404   6.684   7.068 -1.2220 -1.1279  0.3257
 3687WAT    EPW15456   3.365   6.735   7.023  0.0647 -0.4606 -0.1790
 3688WAT      O15457   6.799   4.359   3.318 -0.5626 -0.4972  0.3519
 3688WAT     H115458   6.717   4.352   3.288 -0.5287  0.2370  0.0666
 3688WAT     H215459   6.830   4.429   3.276  0.2778 -0.8883  0.3049
 3688WAT    EPW15460   6.791   4.368   3.307  0.7992  0.0796  0.0301
 3689WAT      O15461   5.804   4.355   1.687 -0.0408 -0.4313 -0.3799
 3689WAT     H115462   5.816   4.351   1.601 -1.0585  1.0793 -0.6249
 3689WAT     H215463   5.885   4.367   1.718  0.4424 -1.7658 -1.0252
 3689WAT    EPW15464   5.818   4.356   1.679  0.1330  0.3441  0.3064
 3690WAT      O15465  -0.002   2.063   3.778 -0.3253  0.3520  0.2436
 3690WAT     H115466  -0.019   2.077   3.863 -1.0100  1.1072  0.0014
 3690WAT     H215467   0.050   1.993   3.778 -1.3297 -0.4261  1.2181
 3690WAT    EPW15468   0.003   2.055   3.791  0.6842 -0.7041  0.1674
 3691WAT      O15469   5.596   3.461   5.758 -0.3108  0.2386 -0.2806
 3691WAT     H115470   5.679   3.478   5.778  0.3054 -1.4245 -1.2244
 3691WAT     H215471   5.598   3.448   5.672 -1.3237 -0.8901 -0.1607
 3691WAT    EPW15472   5.609   3.461   5.748 -0.2486 -0.0065  0.4307
 3692WAT      O15473   4.920   4.174   0.125 -0.2850  0.1648  0.2582
 3692WAT     H115474   4.936   4.247   0.170 -0.2128  0.3502 -0.0618
 3692WAT     H215475   4.833   4.171   0.120 -0.2885  0.2158  0.2945
 3692WAT    EPW15476   4.909   4.184   0.131 -0.4261 -0.3633 -0.0633
 3693WAT      O15477   0.654   6.938   3.219 -0.2257 -0.1248 -0.3849
 3693WAT     H115478   0.668   7.006   3.166  0.5309  1.3821  1.6358
 3693WAT     H215479   0.707   6.877   3.187  2.1428  1.5656  0.0122
 3693WAT    EPW15480   0.664   6.939   3.206  0.5212 -0.0652  0.2654
 3694WAT      O15481   3.947   5.015   6.852  0.0571 -0.2604  0.3339
 3694WAT     H115482   3.995   4.951   6.816 -1.3352 -0.7862 -0.6687
 3694WAT     H215483   3.935   5.070   6.786  0.4911  0.6031  0.9651
 3694WAT    EPW15484   3.952   5.013   6.837  0.3565 -0.9814  0.0099
 3695WAT      O15485   0.534   6.275   0.652  0.7410  0.3812 -0.0598
 3695WAT     H115486   0.601   6.240   0.608  0.6146 -1.3483  1.0305
 3695WAT     H215487   0.503   6.208   0.699 -0.2891  1.7138  1.2422
 3695WAT    EPW15488   0.539   6.260   0.652 -0.2130  0.3097  0.1999
 3696WAT      O15489   6.020   3.291   6.969 -0.1019  0.0248 -0.7293
 3696WAT     H115490   6.052   3.211   6.952 -3.4754 -1.2651 -1.7623
 3696WAT     H215491   5.976   3.280   7.044  0.1497  1.1844 -0.3944
 3696WAT    EPW15492   6.018   3.278   6.978 -0.1160  0.1326  0.3111
 3697WAT      O15493   3.209   4.377   0.703  0.0512  0.0702  0.4969
 3697WAT     H115494   3.262   4.362   0.635  1.4609  2.0303  1.0746
 3697WAT     H215495   3.157   4.441   0.675 -0.4572 -0.2406  0.7241
 3697WAT    EPW15496   3.209   4.384   0.689  0.1394 -0.3864 -0.5018
 3698WAT      O15497   0.125   4.629   4.624 -0.2317 -0.0218  0.3696
 3698WAT     H115498   0.147   4.578   4.557  0.2379  1.3204 -0.5400
 3698WAT     H215499   0.180   4.604   4.687 -1.4941 -2.1555  0.7237
 3698WAT    EPW15500   0.137   4.617   4.623  0.0591  0.4306 -0.0594
 3699WAT      O15501   4.725   4.466   4.680  0.2521  0.0466 -0.2654
 3699WAT     H115502   4.666   4.531   4.677  0.9385  0.6736 -0.3439
 3699WAT     H215503   4.696   4.410   4.620 -0.4343  0.2015 -0.0895
 3699WAT    EPW15504   4.712   4.467   4.670  0.2121  0.5443 -0.0160
 3700WAT      O15505   6.696   3.919   4.605  0.6646 -0.0278  0.1943
 3700WAT     H115506   6.721   3.845   4.641  1.9744  0.3111  0.0301
 3700WAT     H215507   6.753   3.931   4.540 -0.1348  0.6105 -0.4169
 3700WAT    EPW15508   6.708   3.910   4.601  0.1249 -0.8259  0.0131
 3701WAT      O15509   3.747   5.589   1.662  0.3762  0.1953 -0.3475
 3701WAT     H115510   3.735   5.593   1.748  2.0706  0.4560 -0.1004
 3701WAT     H215511   3.747   5.503   1.645 -1.9542  0.1391 -0.4504
 3701WAT    EPW15512   3.745   5.577   1.672  0.0169  0.7175  0.2558
 3702WAT      O15513   6.558   2.020   4.560 -0.0692 -0.3341  0.2232
 3702WAT     H115514   6.577   2.045   4.641  0.8476 -3.9976  1.2995
 3702WAT     H215515   6.478   1.988   4.566 -0.5075  0.5131 -0.6871
 3702WAT    EPW15516   6.549   2.019   4.573 -0.6244  0.1547  0.2789
 3703WAT      O15517   6.489   5.405   4.698 -0.0778  0.3937 -0.0511
 3703WAT     H115518   6.428   5.462   4.723 -0.6933  0.0557 -0.7277
 3703WAT     H215519   6.492   5.416   4.611  0.5280  0.1107 -0.0723
 3703WAT    EPW15520   6.481   5.415   4.689 -1.0382  0.2085  0.0465
 3704WAT      O15521   5.106   5.610   6.486  0.0912 -0.3273 -0.3198
 3704WAT     H115522   5.186   5.617   6.520 -0.5279  1.6460  0.8849
 3704WAT     H215523   5.097   5.682   6.438 -1.8465  0.9185  1.6932
 3704WAT    EPW15524   5.116   5.621   6.484  0.0637  0.5456  0.4745
 3705WAT      O15525   4.494   4.549   4.287  0.4270  0.4416  0.1091
 3705WAT     H115526   4.469   4.620   4.330 -0.6844 -1.2655  2.5125
 3705WAT     H215527   4.541   4.505   4.345  0.2827 -1.2335 -0.9674
 3705WAT    EPW15528   4.497   4.553   4.302 -0.0959  0.7233  0.5015
 3706WAT      O15529   5.970   5.388   5.054 -0.2091 -0.4642 -0.2973
 3706WAT     H115530   5.999   5.310   5.027 -0.4515 -0.2612 -1.1923
 3706WAT     H215531   5.895   5.369   5.094 -0.4972 -0.6676 -0.9049
 3706WAT    EPW15532   5.963   5.374   5.056  0.2774 -0.5903  0.2221
 3707WAT      O15533   5.375   0.454   6.769 -0.1630 -0.5143  0.5199
 3707WAT     H115534   5.392   0.374   6.799 -1.1754 -0.1961  2.0168
 3707WAT     H215535   5.387   0.446   6.683 -2.4085 -2.8868  0.2928
 3707WAT    EPW15536   5.379   0.441   6.761  0.3199 -0.2615 -0.1697
 3708WAT      O15537   5.409   6.773   7.196  0.0739 -0.1705  0.0431
 3708WAT     H115538   5.358   6.841   7.215 -1.5009 -1.7335  2.0160
 3708WAT     H215539   5.352   6.712   7.169  1.2760 -1.0610 -0.5653
 3708WAT    EPW15540   5.393   6.774   7.195 -0.7497 -0.1619 -0.2954
 3709WAT      O15541   0.044   1.877   1.618  0.2694  0.0036 -0.6852
 3709WAT     H115542   0.005   1.942   1.661  1.6253  0.4414 -0.0729
 3709WAT     H215543   0.094   1.918   1.559  2.2984 -0.3459  0.6849
 3709WAT    EPW15544   0.045   1.893   1.615  0.4163 -0.2247  0.1322
 3710WAT      O15545   4.637   4.893   4.352  0.4059 -0.5595 -0.0425
 3710WAT     H115546   4.664   4.832   4.297 -1.4487 -0.5214 -1.0798
 3710WAT     H215547   4.561   4.861   4.382 -0.7020  1.2467 -0.7481
 3710WAT    EPW15548   4.630   4.880   4.349  0.0339 -0.4664 -0.2195
 3711WAT      O15549   2.616   5.974   1.038 -0.8402 -0.2249 -0.4396
 3711WAT     H115550   2.702   5.980   1.047 -0.6065 -0.0489 -2.4817
 3711WAT     H215551   2.592   6.053   1.010 -1.7480 -0.1372  0.4890
 3711WAT    EPW15552   2.625   5.986   1.035  0.7279 -0.1147  0.0221
 3712WAT      O15553   5.804   4.904   3.005  0.3451 -0.0229 -0.0895
 3712WAT     H115554   5.743   4.856   2.964 -1.5792  2.1973 -0.0393
 3712WAT     H215555   5.854   4.933   2.940  0.2067 -0.3344 -0.3402
 3712WAT    EPW15556   5.802   4.901   2.989 -0.3405 -0.3674 -0.0071
 3713WAT      O15557   5.836   5.380   2.965 -0.1658  0.5402  0.4441
 3713WAT     H115558   5.814   5.332   3.035  0.0206  0.7097  0.6188
 3713WAT     H215559   5.923   5.388   2.973 -0.1843  0.8156  0.3551
 3713WAT    EPW15560   5.846   5.374   2.977  0.1906  0.1957 -0.2572
 3714WAT      O15561   1.666   1.295   5.045 -0.4319 -0.3542 -0.8191
 3714WAT     H115562   1.739   1.247   5.039  1.5562  2.1497  0.9389
 3714WAT     H215563   1.676   1.355   4.983  0.5206  1.6624  1.1286
 3714WAT    EPW15564   1.678   1.297   5.035  0.4496  0.1966 -0.0435
 3715WAT      O15565   5.272   3.375   4.710 -0.0716  0.3874  0.1159
 3715WAT     H115566   5.331   3.436   4.731 -0.5571  0.5456  1.0385
 3715WAT     H215567   5.249   3.340   4.786  0.0934 -0.8817 -0.3810
 3715WAT    EPW15568   5.278   3.379   4.724 -0.3129  0.2201  0.1284
 3716WAT      O15569   4.928   3.609   1.580  0.2393 -0.0356 -0.2708
 3716WAT     H115570   4.951   3.526   1.570 -0.3554 -0.1600 -0.6377
 3716WAT     H215571   4.843   3.605   1.599  0.0087  0.5388 -1.1482
 3716WAT    EPW15572   4.919   3.596   1.582 -0.2561  0.3060  0.0990
 3717WAT      O15573   5.034   5.933   4.574 -0.3678  0.4145 -0.2257
 3717WAT     H115574   5.054   5.962   4.653  1.3419 -0.0423 -0.4518
 3717WAT     H215575   4.989   5.999   4.539 -1.4214  0.4954  1.2043
 3717WAT    EPW15576   5.030   5.947   4.580  1.0353  0.2627 -0.0609
 3718WAT      O15577   4.568   4.660   3.849 -0.2224  0.0372  0.2207
 3718WAT     H115578   4.512   4.618   3.797  0.2403 -0.2011 -0.0928
 3718WAT     H215579   4.599   4.725   3.799 -0.6554  0.5316  0.5830
 3718WAT    EPW15580   4.565   4.663   3.834 -0.8401 -0.2488  0.4558
 3719WAT      O15581   4.846   0.941   1.901  0.3038  0.1595 -0.3359
 3719WAT     H115582   4.827   0.962   1.984 -0.9477  1.2957 -0.8653
 3719WAT     H215583   4.840   1.018   1.859  0.0938 -0.5211 -1.6129
 3719WAT    EPW15584   4.842   0.956   1.907  0.1582 -0.0263  1.0532
 3720WAT      O15585   4.434   4.903   0.294  0.3048 -0.0227  0.3005
 3720WAT     H115586   4.395   4.969   0.334  0.0889 -0.8346  1.4762
 3720WAT     H215587   4.501   4.940   0.252  0.5349  0.8562  1.4181
 3720WAT    EPW15588   4.438   4.918   0.294  0.4807 -0.6865  0.4459
 3721WAT      O15589   5.678   2.914   4.205  0.2476 -0.1697  0.2809
 3721WAT     H115590   5.741   2.897   4.263  1.0309 -1.6099 -0.9024
 3721WAT     H215591   5.608   2.930   4.254  0.1655 -3.9765  1.7504
 3721WAT    EPW15592   5.677   2.914   4.221  0.0343  0.1950  0.0211
 3722WAT      O15593   6.138   4.586   5.593 -0.3245  0.5496 -0.5238
 3722WAT     H115594   6.187   4.588   5.521 -2.3338  2.9612 -1.9959
 3722WAT     H215595   6.186   4.627   5.653  0.5547  0.3595 -1.0866
 3722WAT    EPW15596   6.152   4.592   5.591  0.4249  0.4550  0.7518
 3723WAT      O15597   0.424   0.503   1.296  0.5989  0.1483 -0.2818
 3723WAT     H115598   0.431   0.437   1.354  2.4454 -0.4548 -1.1207
 3723WAT     H215599   0.444   0.573   1.343  1.8113 -0.3006 -0.0965
 3723WAT    EPW15600   0.428   0.503   1.312 -0.4971 -0.6127 -0.2474
 3724WAT      O15601   4.673   7.666   4.560 -0.1418  0.2636  0.7092
 3724WAT     H115602   4.685   7.597   4.508 -0.3137 -0.6196  1.8159
 3724WAT     H215603   4.663   7.631   4.639 -0.2963  1.5579  1.2861
 3724WAT    EPW15604   4.674   7.651   4.564 -0.3162  0.0769  0.6671
 3725WAT      O15605   3.765   6.530   7.131 -0.2942  0.7085  0.4098
 3725WAT     H115606   3.776   6.445   7.151  1.4121  0.9992  0.8136
 3725WAT     H215607   3.835   6.569   7.165 -0.6659  2.1939 -0.4269
 3725WAT    EPW15608   3.777   6.523   7.139  0.3504  0.2806  0.4073
 3726WAT      O15609   4.822   2.765   7.256 -0.0002 -0.2102  0.2968
 3726WAT     H115610   4.796   2.689   7.222  1.8797 -1.0464  0.5884
 3726WAT     H215611   4.806   2.823   7.193 -1.7140 -0.7693  0.1684
 3726WAT    EPW15612   4.816   2.762   7.242  0.3824 -0.1238 -0.0445
 3727WAT      O15613   6.242   0.680   4.988 -0.4013  0.2164 -0.0425
 3727WAT     H115614   6.275   0.741   4.933  0.8699  0.1253  0.5708
 3727WAT     H215615   6.262   0.711   5.067  0.8292 -1.2397  0.2835
 3727WAT    EPW15616   6.250   0.694   4.991  0.0902 -0.3242  0.3577
 3728WAT      O15617   6.462   3.202   0.053 -0.4571 -0.2032 -0.5028
 3728WAT     H115618   6.424   3.146   0.107 -3.1158  0.5401 -1.4586
 3728WAT     H215619   6.396   3.248   0.021  1.1064  0.2146 -3.4804
 3728WAT    EPW15620   6.447   3.201   0.056  0.3430  0.4823 -0.1428
 3729WAT      O15621   6.169   8.029   4.847 -0.6836  0.3567 -0.7407
 3729WAT     H115622   6.205   8.009   4.924 -1.0985  1.7389 -0.1525
 3729WAT     H215623   6.124   7.958   4.826 -0.3992 -0.1177  0.2054
 3729WAT    EPW15624   6.168   8.016   4.855  0.3848  0.2368  0.3534
 3730WAT      O15625   5.406   2.689   3.646 -0.4890  0.2953  0.1850
 3730WAT     H115626   5.432   2.760   3.690 -0.9671  0.7982 -0.3474
 3730WAT     H215627   5.444   2.697   3.569 -1.2205  0.4043 -0.1705
 3730WAT    EPW15628   5.415   2.700   3.641  0.5694 -0.8218  0.1117
 3731WAT      O15629   5.261   4.255   3.255  0.6125  0.8039  0.4018
 3731WAT     H115630   5.232   4.336   3.267  1.7626  1.4030 -0.6776
 3731WAT     H215631   5.254   4.219   3.334 -1.2969  1.4682  0.5815
 3731WAT    EPW15632   5.256   4.261   3.268  0.3794 -0.5552  0.2581
 3732WAT      O15633   4.899   1.213   2.874 -0.5606  0.3402 -0.3269
 3732WAT     H115634   4.913   1.175   2.951  1.6265  0.1518 -0.7560
 3732WAT     H215635   4.968   1.190   2.826 -1.4201  1.1635 -2.0792
 3732WAT    EPW15636   4.911   1.204   2.878 -0.0585  0.2705  0.1617
 3733WAT      O15637   5.810   6.417   4.941  0.2142 -0.2260  0.7216
 3733WAT     H115638   5.827   6.415   5.027 -0.1879  1.4281  0.8857
 3733WAT     H215639   5.840   6.341   4.912  0.3927 -0.8069  2.3290
 3733WAT    EPW15640   5.817   6.406   4.950  0.7115 -0.4959 -0.3665
 3734WAT      O15641   6.999   5.890   0.247  0.3946  0.2830 -0.4278
 3734WAT     H115642   7.078   5.857   0.263 -0.3419 -0.8185  1.2045
 3734WAT     H215643   6.999   5.965   0.293  0.4639  0.2339 -0.3464
 3734WAT    EPW15644   7.011   5.896   0.256 -0.1948 -0.5840 -0.2096
 3735WAT      O15645   6.693   1.382   1.210 -0.3674  0.2439 -0.3003
 3735WAT     H115646   6.610   1.379   1.182 -0.1493  2.0356 -1.2260
 3735WAT     H215647   6.711   1.467   1.215  1.4201 -0.1015 -0.0812
 3735WAT    EPW15648   6.683   1.394   1.206 -0.1393 -0.0468  0.0779
 3736WAT      O15649   6.255   2.244   4.829 -0.3809 -0.0881 -0.5526
 3736WAT     H115650   6.259   2.216   4.911 -1.3204  0.4617 -0.3048
 3736WAT     H215651   6.336   2.233   4.799 -0.1414 -0.7184  0.3007
 3736WAT    EPW15652   6.267   2.238   4.837  0.1891 -0.2529 -0.6722
 3737WAT      O15653   4.114   6.947   6.081 -0.0028  0.3367 -0.0127
 3737WAT     H115654   4.066   6.926   6.150 -2.7166  3.4578 -0.7220
 3737WAT     H215655   4.160   7.016   6.109 -0.1884  0.8472 -0.9423
 3737WAT    EPW15656   4.114   6.954   6.096 -0.0276  0.9185  0.1451
 3738WAT      O15657   4.961   3.810   2.263  0.2916  0.0002 -0.0885
 3738WAT     H115658   4.892   3.794   2.314  0.2242 -2.4814 -0.8358
 3738WAT     H215659   4.935   3.878   2.215 -0.7333  0.5648  1.2088
 3738WAT    EPW15660   4.947   3.818   2.263 -0.0718  0.2618  0.2178
 3739WAT      O15661   5.293   3.072   4.098  0.0437 -0.2983 -0.0064
 3739WAT     H115662   5.355   3.110   4.147  1.2274 -0.3514 -1.4037
 3739WAT     H215663   5.237   3.137   4.082  0.5735  0.1605 -0.0389
 3739WAT    EPW15664   5.294   3.088   4.103  0.2681  0.7665 -0.3169
 3740WAT      O15665   3.709   3.749   5.949 -0.7396 -0.0850  0.5683
 3740WAT     H115666   3.707   3.802   6.018 -1.0002 -0.3222  0.7487
 3740WAT     H215667   3.781   3.701   5.962 -0.6354  0.0588  0.5283
 3740WAT    EPW15668   3.719   3.750   5.961  0.0280  0.3225  0.4037
 3741WAT      O15669   5.837   4.531   3.193  0.1117  0.3600 -0.1782
 3741WAT     H115670   5.849   4.446   3.208 -0.4309  0.1204 -1.0946
 3741WAT     H215671   5.750   4.540   3.192  0.1581  1.0540  0.5676
 3741WAT    EPW15672   5.826   4.520   3.195 -0.0782  0.0698 -0.3310
 3742WAT      O15673   4.005   7.824   5.330 -0.4125 -0.1116 -0.4776
 3742WAT     H115674   4.076   7.824   5.278 -0.2358 -2.0643 -0.3099
 3742WAT     H215675   3.939   7.836   5.274 -0.1145 -0.6567 -0.9623
 3742WAT    EPW15676   4.006   7.826   5.314  0.0224 -0.1063  0.5392
 3743WAT      O15677   6.093   3.128   6.367  0.0528 -0.2341  0.0618
 3743WAT     H115678   6.162   3.075   6.366  0.3603  0.1536  0.1625
 3743WAT     H215679   6.045   3.101   6.300  0.3685 -0.4256 -0.0910
 3743WAT    EPW15680   6.096   3.116   6.357 -0.0012 -0.3126  0.0917
 3744WAT      O15681   4.733   2.925   1.969 -0.0556  0.5366 -0.7974
 3744WAT     H115682   4.693   2.889   2.037 -0.3323  1.5732 -0.3842
 3744WAT     H215683   4.817   2.928   1.993  0.0046 -0.0213 -0.9296
 3744WAT    EPW15684   4.739   2.920   1.983 -0.4900 -0.0270 -0.2479
 3745WAT      O15685   6.859   3.941   2.027 -0.3917 -0.0704  0.5499
 3745WAT     H115686   6.838   4.005   1.971  0.5185 -0.0610  0.2014
 3745WAT     H215687   6.862   3.870   1.976  1.1724  0.0566  0.4053
 3745WAT    EPW15688   6.857   3.940   2.011 -0.6629  0.5202  0.1812
 3746WAT      O15689   6.232   6.783   1.140 -0.4280  0.4788  0.4118
 3746WAT     H115690   6.204   6.703   1.160  0.3573  0.4587  1.5727
 3746WAT     H215691   6.196   6.799   1.063 -1.4208 -0.5876  0.6253
 3746WAT    EPW15692   6.223   6.773   1.132  0.3784  0.0552 -0.1137
 3747WAT      O15693   4.591   6.676   5.743  0.0198 -0.2377  0.1300
 3747WAT     H115694   4.541   6.664   5.672 -1.0161  0.2598  0.7531
 3747WAT     H215695   4.604   6.596   5.773 -1.3692 -0.3131  0.5887
 3747WAT    EPW15696   4.585   6.663   5.737 -0.6436 -0.9244 -0.1014
 3748WAT      O15697   7.241   7.322   0.476  0.6628  0.3148  0.4549
 3748WAT     H115698   7.167   7.354   0.442 -0.3379 -0.6908  1.5961
 3748WAT     H215699   7.283   7.393   0.503 -0.3239  0.8605  0.6330
 3748WAT    EPW15700   7.236   7.337   0.475  0.4788 -0.8830  0.1920
 3749WAT      O15701   5.247   6.110   2.377 -0.0227  0.0479 -0.5566
 3749WAT     H115702   5.255   6.028   2.349 -0.2190  0.3783 -1.6143
 3749WAT     H215703   5.170   6.111   2.418 -0.3049 -0.1537 -1.0750
 3749WAT    EPW15704   5.237   6.098   2.379 -0.1651  0.6313 -0.1006
 3750WAT      O15705   6.062   5.859   4.913  0.6681  0.5762 -0.5287
 3750WAT     H115706   6.141   5.891   4.898  1.4487 -0.8153  0.4107
 3750WAT     H215707   6.034   5.834   4.834  1.4425  0.4830 -0.7740
 3750WAT    EPW15708   6.069   5.860   4.899 -0.3890 -0.1162 -0.2100
 3751WAT      O15709   1.293   6.145   0.853  0.5429  0.6513 -0.1492
 3751WAT     H115710   1.320   6.085   0.797 -0.9469 -0.6578  0.4635
 3751WAT     H215711   1.255   6.205   0.803 -1.4232 -0.8553 -0.5766
 3751WAT    EPW15712   1.291   6.145   0.838 -0.1651 -0.2857  0.2110
 3752WAT      O15713   3.603   0.454   3.027 -0.7288  0.6799 -0.1991
 3752WAT     H115714   3.653   0.436   2.958  0.2338 -0.2311  0.7027
 3752WAT     H215715   3.548   0.387   3.030  0.6552 -0.4716  1.1601
 3752WAT    EPW15716   3.603   0.442   3.017 -0.1960 -0.4109  0.0021
 3753WAT      O15717   4.922   3.887   2.926 -0.6132 -0.0733 -0.2638
 3753WAT     H115718   5.003   3.885   2.960 -0.9952  1.4962  0.8540
 3753WAT     H215719   4.925   3.827   2.863  1.4018 -0.1170 -0.1985
 3753WAT    EPW15720   4.934   3.878   2.922 -0.3800 -0.1737 -1.1764
 3754WAT      O15721   6.242   5.155   3.700 -0.2665 -0.0105 -1.1257
 3754WAT     H115722   6.275   5.234   3.716 -1.1119 -0.0390  1.2715
 3754WAT     H215723   6.199   5.164   3.625 -1.2761  2.1713 -0.3633
 3754WAT    EPW15724   6.240   5.168   3.691 -0.3528 -0.4744  0.0155
 3755WAT      O15725   5.892   4.946   4.166  0.1983 -0.4525 -0.1175
 3755WAT     H115726   5.805   4.941   4.175  0.1905  0.6747  0.6014
 3755WAT     H215727   5.921   4.941   4.248  0.9310 -2.2905 -0.4452
 3755WAT    EPW15728   5.883   4.944   4.179 -0.1856  0.1168 -0.2655
 3756WAT      O15729   6.091   6.216   1.873  0.3680  0.1212  0.2887
 3756WAT     H115730   6.034   6.163   1.913  2.1146 -1.1606  1.2465
 3756WAT     H215731   6.157   6.163   1.853  0.3803  1.1248 -2.6993
 3756WAT    EPW15732   6.092   6.200   1.876 -0.5119 -0.3672  0.1298
 3757WAT      O15733   4.361   1.306   4.576 -0.1351 -0.2304  0.1087
 3757WAT     H115734   4.313   1.354   4.521 -1.5192 -0.6096  0.9479
 3757WAT     H215735   4.325   1.321   4.654  1.5937  0.0432  0.8851
 3757WAT    EPW15736   4.348   1.315   4.579 -0.1264  0.3603  0.0567
 3758WAT      O15737   3.887   4.580   7.081  0.3775  0.0973 -0.2036
 3758WAT     H115738   3.828   4.644   7.088  1.8716  1.3267  2.8141
 3758WAT     H215739   3.924   4.595   7.004 -0.8792  1.4423 -0.5962
 3758WAT    EPW15740   3.884   4.592   7.071 -0.4704 -0.5197  0.3780
 3759WAT      O15741   6.846   1.795   3.310  0.5705  0.3130 -0.4809
 3759WAT     H115742   6.854   1.851   3.377  1.0480 -0.5291  0.1847
 3759WAT     H215743   6.761   1.778   3.308  0.5724  0.2362  0.0008
 3759WAT    EPW15744   6.835   1.801   3.319  0.0549 -0.4449  0.3558
 3760WAT      O15745   6.102   1.407   1.081 -0.1762 -0.7412  0.2900
 3760WAT     H115746   6.186   1.396   1.102 -0.0459 -0.1842  0.0774
 3760WAT     H215747   6.101   1.485   1.042 -1.1801  0.3754  2.3952
 3760WAT    EPW15748   6.114   1.416   1.078  0.4353 -0.5375 -0.0507
 3761WAT      O15749   1.599   1.446   5.732  0.3284  0.0230 -0.4253
 3761WAT     H115750   1.636   1.368   5.717  2.4224  0.7763  0.2874
 3761WAT     H215751   1.516   1.434   5.711  0.4416 -2.5756  0.1796
 3761WAT    EPW15752   1.592   1.433   5.727 -0.6899  0.0732 -0.6037
 3762WAT      O15753   6.381   0.346   2.495 -0.0398  0.0326  0.3255
 3762WAT     H115754   6.381   0.432   2.510  0.0264  0.0711  0.0993
 3762WAT     H215755   6.416   0.339   2.416  1.7390 -0.3167  1.0947
 3762WAT    EPW15756   6.386   0.358   2.486  0.5046  0.3161 -0.1765
 3763WAT      O15757   1.820   2.309   0.146 -0.0910  0.4210 -0.4256
 3763WAT     H115758   1.739   2.295   0.116 -0.4678  2.0983 -0.2959
 3763WAT     H215759   1.869   2.256   0.097 -1.2805 -0.8443 -0.3096
 3763WAT    EPW15760   1.815   2.300   0.134  0.1373 -0.9447  0.0963
 3764WAT      O15761   4.245   4.190   3.953  0.1563  0.3229 -0.0905
 3764WAT     H115762   4.219   4.249   3.895  0.9840  1.4729  0.6596
 3764WAT     H215763   4.171   4.152   3.978 -0.5922  1.9647  0.3564
 3764WAT    EPW15764   4.230   4.193   3.948 -0.0108 -0.3012  0.3566
 3765WAT      O15765   5.460   3.053   7.618 -0.1813 -0.3654  0.3362
 3765WAT     H115766   5.387   3.073   7.661 -0.1978  1.9487 -0.6432
 3765WAT     H215767   5.467   3.116   7.558  2.0970 -1.0931 -0.2713
 3765WAT    EPW15768   5.450   3.065   7.615  0.2351  0.2896  0.5918
 3766WAT      O15769   6.207   2.698   3.372 -0.1370 -0.3955 -0.3497
 3766WAT     H115770   6.122   2.707   3.386  0.1020  0.2900  0.7881
 3766WAT     H215771   6.240   2.682   3.451  1.0852  1.8429 -0.3215
 3766WAT    EPW15772   6.199   2.697   3.386  0.1515 -0.1293  0.2974
 3767WAT      O15773   6.054   3.070   5.023 -0.2534  0.3425 -0.3640
 3767WAT     H115774   6.075   3.001   5.074 -0.5084 -0.0062 -0.7293
 3767WAT     H215775   5.995   3.112   5.070  0.7714  0.9812  0.3968
 3767WAT    EPW15776   6.048   3.066   5.038 -0.1190  0.3757 -0.7774
 3768WAT      O15777   5.902   3.861   7.107  0.1793  0.2142  0.1590
 3768WAT     H115778   5.886   3.817   7.180  0.4114 -0.0641  0.0459
 3768WAT     H215779   5.849   3.929   7.112 -0.0242  0.0375  0.4449
 3768WAT    EPW15780   5.892   3.864   7.118  0.7086 -0.1138 -0.0532
 3769WAT      O15781   4.716   3.759   4.476  0.2376 -0.4495  0.0650
 3769WAT     H115782   4.666   3.689   4.486  0.7785 -0.7065  1.1004
 3769WAT     H215783   4.667   3.813   4.427 -1.7088 -0.0740  2.2637
 3769WAT    EPW15784   4.701   3.757   4.470  0.2608  0.1717 -0.3945
 3770WAT      O15785   7.657   2.056   1.298  0.2367 -0.5250 -0.3944
 3770WAT     H115786   7.661   2.036   1.383  0.5174 -0.1111 -0.3086
 3770WAT     H215787   7.659   1.979   1.259  1.3459 -0.6762 -0.0691
 3770WAT    EPW15788   7.658   2.042   1.305  0.6915  0.6495 -0.4740
 3771WAT      O15789   5.876   4.607   4.305 -0.3386  0.1558  0.0236
 3771WAT     H115790   5.852   4.624   4.223 -1.8632  1.8814  0.7450
 3771WAT     H215791   5.834   4.534   4.325 -1.9396  1.0271 -0.0107
 3771WAT    EPW15792   5.866   4.599   4.296  0.3098  0.2013  0.5331
 3772WAT      O15793   6.041   2.721   4.215  0.4027 -0.2294 -0.0872
 3772WAT     H115794   5.966   2.676   4.212  0.4153 -0.4084  1.6336
 3772WAT     H215795   6.099   2.663   4.244  0.5308  0.6971  1.6571
 3772WAT    EPW15796   6.038   2.706   4.219  0.1297 -0.0852  0.0710
 3773WAT      O15797   7.591   6.650   2.985  0.8866  0.3831 -0.2602
 3773WAT     H115798   7.547   6.725   2.973 -1.1068 -0.8639 -1.3031
 3773WAT     H215799   7.548   6.593   2.936  2.7464 -1.3438 -0.0166
 3773WAT    EPW15800   7.578   6.653   2.976  0.1153  0.0658 -0.3103
 3774WAT      O15801   4.934   6.382   2.195 -0.2114  0.5312  0.1959
 3774WAT     H115802   4.910   6.355   2.274 -1.0526  1.2569  0.1924
 3774WAT     H215803   4.997   6.325   2.173 -1.5335 -1.0984  0.4269
 3774WAT    EPW15804   4.940   6.369   2.203 -0.4299  0.1519 -0.7311
 3775WAT      O15805   7.950   2.655   1.934  0.4731  0.4164 -0.2069
 3775WAT     H115806   7.895   2.590   1.948  0.6761  0.4289  0.7577
 3775WAT     H215807   8.018   2.636   1.986  1.3025  0.4858 -1.2415
 3775WAT    EPW15808   7.952   2.643   1.944 -0.1829 -0.1412 -0.2108
 3776WAT      O15809   5.481   4.245   0.091 -0.3121 -0.1550  0.6400
 3776WAT     H115810   5.396   4.225   0.083 -0.4828  1.2185 -1.8682
 3776WAT     H215811   5.521   4.186   0.041  0.6074 -2.3158  3.6181
 3776WAT    EPW15812   5.474   4.234   0.082  0.1592 -0.1775  0.4999
 3777WAT      O15813   3.918   7.206   5.940  0.0441 -0.2513  0.5175
 3777WAT     H115814   3.868   7.140   5.968  0.3384 -1.0357 -0.6849
 3777WAT     H215815   3.862   7.272   5.929 -0.6125 -0.8798 -0.0503
 3777WAT    EPW15816   3.903   7.206   5.942  0.8281 -0.3167 -0.5793
 3778WAT      O15817   4.116   4.411   7.740  0.4692  0.6107  0.1277
 3778WAT     H115818   4.138   4.337   7.701 -1.3815  0.5000 -0.7973
 3778WAT     H215819   4.088   4.386   7.819 -1.5153  0.0914 -0.6819
 3778WAT    EPW15820   4.115   4.396   7.746  0.0443 -0.4731  0.2124
 3779WAT      O15821   5.965   6.142   1.510  0.2325 -0.1699  0.0310
 3779WAT     H115822   5.883   6.115   1.522 -0.1236  0.2128 -1.3565
 3779WAT     H215823   5.990   6.165   1.590 -0.7799 -0.9187  0.5949
 3779WAT    EPW15824   5.956   6.142   1.523 -0.5504  0.2491  0.2420
 3780WAT      O15825   4.633   4.472   0.127  0.9075  0.1035 -0.1525
 3780WAT     H115826   4.571   4.411   0.126  2.3604 -1.6351  2.5302
 3780WAT     H215827   4.610   4.524   0.193  2.3262 -0.7132  1.0483
 3780WAT    EPW15828   4.621   4.471   0.137  0.1869 -1.0268  0.5822
 3781WAT      O15829   3.130   5.293   5.735  0.4369  0.4363 -0.1004
 3781WAT     H115830   3.077   5.298   5.803  1.6772  2.4348  0.8141
 3781WAT     H215831   3.210   5.289   5.771  1.0113 -2.2508 -1.4157
 3781WAT    EPW15832   3.134   5.293   5.750  0.3812 -0.0449  0.3195
 3782WAT      O15833   5.023   5.553   6.009  0.1958 -0.3762 -0.2917
 3782WAT     H115834   4.947   5.596   6.003 -0.8911 -1.9565  1.3725
 3782WAT     H215835   5.017   5.492   5.947  0.6751  0.2713 -0.9931
 3782WAT    EPW15836   5.011   5.551   5.999  0.1323 -0.4976 -0.4044
 3783WAT      O15837   4.800   1.468   6.795 -0.3169 -0.1106 -0.6090
 3783WAT     H115838   4.837   1.446   6.719 -0.7076 -1.1384 -0.5178
 3783WAT     H215839   4.814   1.554   6.800  2.1371 -0.4318 -0.5348
 3783WAT    EPW15840   4.808   1.478   6.785  0.3070 -0.1979  0.0860
 3784WAT      O15841   7.486   4.000   3.603 -0.1968 -0.3966  0.0748
 3784WAT     H115842   7.553   4.031   3.649  0.7604 -0.3144 -1.3031
 3784WAT     H215843   7.476   3.919   3.633  1.0917 -0.7075 -0.2802
 3784WAT    EPW15844   7.494   3.992   3.614  0.0190 -0.2396  0.2040
 3785WAT      O15845   6.206   3.781   4.604  0.1295 -0.0679  0.3977
 3785WAT     H115846   6.235   3.821   4.676 -1.7113  0.9224  0.6527
 3785WAT     H215847   6.172   3.707   4.635  0.5257 -0.2609  0.3719
 3785WAT    EPW15848   6.205   3.776   4.619  0.4234 -0.2997 -0.2328
 3786WAT      O15849   1.705   0.505   5.291  0.4611  0.0111 -0.1211
 3786WAT     H115850   1.776   0.552   5.272  0.4570  0.2145  0.3449
 3786WAT     H215851   1.709   0.497   5.378  0.7859 -1.3749 -0.2340
 3786WAT    EPW15852   1.716   0.511   5.301 -0.2896 -0.0828 -0.0795
 3787WAT      O15853   5.824   5.579   5.945 -0.2657 -0.0347 -0.0678
 3787WAT     H115854   5.818   5.515   5.886  1.5774  0.7808 -1.2184
 3787WAT     H215855   5.889   5.552   5.997 -0.7625  0.0506  0.6204
 3787WAT    EPW15856   5.833   5.565   5.944  0.2278 -0.3663  0.9193
 3788WAT      O15857   4.580   7.102   4.583  0.1958  0.5884 -0.0222
 3788WAT     H115858   4.500   7.116   4.551  0.0489  0.6657  0.3695
 3788WAT     H215859   4.607   7.031   4.541  0.7287  1.6889 -1.6370
 3788WAT    EPW15860   4.573   7.094   4.572  0.0879  0.2302  0.0708
 3789WAT      O15861   5.872   5.964   3.740 -0.2606 -0.5671  0.1212
 3789WAT     H115862   5.788   5.982   3.754  0.0152 -0.4629  1.8468
 3789WAT     H215863   5.904   6.040   3.711 -0.8304 -0.7329 -0.9929
 3789WAT    EPW15864   5.865   5.978   3.738  0.3276 -0.0430  0.0725
 3790WAT      O15865   5.230   1.033   3.221 -0.1322 -0.8233  0.3703
 3790WAT     H115866   5.209   0.974   3.281 -3.4717  0.2147  0.4181
 3790WAT     H215867   5.188   1.006   3.149 -0.0687  0.4325 -0.1722
 3790WAT    EPW15868   5.221   1.021   3.219 -0.6729 -0.9911  0.1130
 3791WAT      O15869   1.640   8.014   5.830  0.2209  0.2483 -0.1941
 3791WAT     H115870   1.635   8.020   5.917 -1.2130 -0.7100 -0.1897
 3791WAT     H215871   1.633   8.097   5.804 -0.0367  0.4787  0.5711
 3791WAT    EPW15872   1.639   8.027   5.839 -0.1838 -0.0697  0.0654
 3792WAT      O15873   1.204   3.024   4.063 -0.0983 -0.4521 -0.4284
 3792WAT     H115874   1.174   2.943   4.049 -1.2609  0.3405 -3.1215
 3792WAT     H215875   1.236   3.048   3.985  1.2520  1.3134  0.5902
 3792WAT    EPW15876   1.204   3.016   4.049 -1.0960 -0.0316  0.2176
 3793WAT      O15877   4.716   5.130   6.795 -0.1901  0.4907  0.4089
 3793WAT     H115878   4.684   5.211   6.790  0.4261  0.7906  1.1139
 3793WAT     H215879   4.793   5.135   6.753 -0.9924 -0.2172 -1.2546
 3793WAT    EPW15880   4.723   5.142   6.788  0.1775  0.0573 -0.5515
 3794WAT      O15881   2.113   2.408   4.316  0.9335  0.9145 -0.4646
 3794WAT     H115882   2.112   2.387   4.401 -1.3736 -0.9213 -0.8271
 3794WAT     H215883   2.057   2.475   4.311  0.1331  0.2444 -0.6614
 3794WAT    EPW15884   2.104   2.415   4.328 -0.4176  0.2324  0.1902
 3795WAT      O15885   6.161   5.601   5.036  0.2533 -0.1785  0.6222
 3795WAT     H115886   6.104   5.535   5.031 -1.1079  0.9184  1.0236
 3795WAT     H215887   6.110   5.672   5.033  1.6390  0.8462  0.6799
 3795WAT    EPW15888   6.145   5.602   5.035  0.5097  0.0740 -0.2171
 3796WAT      O15889   4.276   5.569   6.374  0.4050 -0.2865  0.5137
 3796WAT     H115890   4.202   5.528   6.397  0.7459 -1.7494 -0.8843
 3796WAT     H215891   4.261   5.593   6.291  1.0988  0.4285  0.5815
 3796WAT    EPW15892   4.263   5.567   6.365 -0.5965 -0.0193  0.2985
 3797WAT      O15893   4.204   5.518   4.564  0.6187  0.5270 -0.7141
 3797WAT     H115894   4.137   5.468   4.538  0.2776  1.7677 -2.3868
 3797WAT     H215895   4.271   5.488   4.518  1.3713 -0.9488  1.2203
 3797WAT    EPW15896   4.204   5.506   4.553  0.3970 -0.2811 -0.2741
 3798WAT      O15897   5.611   6.949   6.060  0.2604 -0.3440 -0.2437
 3798WAT     H115898   5.592   6.883   6.114  0.7982  0.4495  0.9708
 3798WAT     H215899   5.573   6.926   5.985 -1.8754 -0.7834  0.8813
 3798WAT    EPW15900   5.603   6.936   6.057  0.1669 -0.0121 -0.6294
 3799WAT      O15901   2.330   0.957   4.576  0.3186 -0.3928 -0.7391
 3799WAT     H115902   2.301   1.020   4.523 -0.6597 -0.0737  0.1460
 3799WAT     H215903   2.386   0.998   4.629 -2.2694  0.4417  1.5964
 3799WAT    EPW15904   2.334   0.972   4.576  0.8088  0.4514 -0.0775
 3800WAT      O15905   5.057   4.325   3.727 -0.1141  0.2769  0.3909
 3800WAT     H115906   4.987   4.348   3.773 -0.8406 -0.9603 -0.0628
 3800WAT     H215907   5.024   4.292   3.653  1.0026  1.5741 -0.7707
 3800WAT    EPW15908   5.042   4.324   3.723 -0.0280 -0.6064  0.0621
 3801WAT      O15909   3.100   1.279   7.076 -0.5163  0.5815 -0.7227
 3801WAT     H115910   3.143   1.270   7.152  0.0374 -2.4186 -1.2678
 3801WAT     H215911   3.163   1.291   7.018 -0.8575  1.6757 -0.8810
 3801WAT    EPW15912   3.115   1.279   7.079 -0.0742  0.1729 -0.0508
 3802WAT      O15913   5.314   3.995   0.020 -0.1409 -0.1967  0.3438
 3802WAT     H115914   5.261   3.927   0.034 -0.3822 -0.0795  0.0059
 3802WAT     H215915   5.262   4.064   0.030 -0.0870 -0.0848 -0.1403
 3802WAT    EPW15916   5.299   3.995   0.024 -0.0589 -0.1414  0.1116
 3803WAT      O15917   4.548   7.591   2.994 -0.1411  0.3310 -0.5163
 3803WAT     H115918   4.516   7.628   2.921 -1.3230  1.0937  0.3461
 3803WAT     H215919   4.552   7.506   2.974 -2.4193  0.2411 -0.8107
 3803WAT    EPW15920   4.544   7.584   2.980 -0.1040 -0.5206  0.1751
 3804WAT      O15921   7.210   6.719   2.626  0.1520 -0.0977 -0.2819
 3804WAT     H115922   7.167   6.645   2.612  1.2164 -0.5199 -1.5746
 3804WAT     H215923   7.147   6.778   2.638 -0.7887 -0.7487 -1.7423
 3804WAT    EPW15924   7.194   6.717   2.625  0.6457  0.7314 -0.1423
 3805WAT      O15925   4.873   2.904   3.843  0.4068  0.0896 -0.5986
 3805WAT     H115926   4.840   2.834   3.804 -0.4142  0.0120  0.2090
 3805WAT     H215927   4.859   2.968   3.785  0.1666 -0.2112 -0.8769
 3805WAT    EPW15928   4.866   2.903   3.829  0.4544 -0.6298 -0.2042
 3806WAT      O15929   6.487   6.783   2.153  0.2346 -0.1019  0.0908
 3806WAT     H115930   6.535   6.725   2.197 -1.0433 -1.4294 -0.1670
 3806WAT     H215931   6.461   6.839   2.214  1.7293  0.4103  0.3001
 3806WAT    EPW15932   6.490   6.782   2.168 -0.7633 -0.2239  0.1042
 3807WAT      O15933   5.552   1.026   1.746  0.0806 -0.0143 -0.4608
 3807WAT     H115934   5.515   1.065   1.815 -2.4411 -1.9585 -0.5846
 3807WAT     H215935   5.635   1.016   1.771  0.2946  3.0596  0.5261
 3807WAT    EPW15936   5.559   1.030   1.760  0.2903 -0.1948 -0.2776
 3808WAT      O15937   6.614   5.504   2.076 -0.7272  0.3878  0.2024
 3808WAT     H115938   6.678   5.486   2.019  0.4020  3.2837  0.4099
 3808WAT     H215939   6.587   5.425   2.102 -0.4113 -1.0637 -3.3135
 3808WAT    EPW15940   6.620   5.490   2.071  0.0401 -0.2213 -0.1437
 3809WAT      O15941   2.148   5.204   7.431  0.3020  0.4978 -0.2202
 3809WAT     H115942   2.150   5.283   7.469 -1.1356  1.6179 -2.2831
 3809WAT     H215943   2.218   5.164   7.465  0.5472  2.2763  1.6220
 3809WAT    EPW15944   2.159   5.210   7.442 -0.1885  0.5852 -0.2911
 3810WAT      O15945   2.236   7.139   3.063 -0.0926 -0.2528  0.4269
 3810WAT     H115946   2.287   7.210   3.067 -1.2383  0.7240 -1.1293
 3810WAT     H215947   2.273   7.084   3.119 -0.0118  2.0969  2.8603
 3810WAT    EPW15948   2.249   7.141   3.072 -0.1580 -0.2366 -0.6494
 3811WAT      O15949   0.124   2.691   4.594 -0.4270 -0.3925  0.2575
 3811WAT     H115950   0.166   2.637   4.649 -3.1429 -1.1478  1.7481
 3811WAT     H215951   0.088   2.637   4.535  0.9580  0.2849 -1.3158
 3811WAT    EPW15952   0.125   2.675   4.593 -0.6294  0.0874 -0.2201
 3812WAT      O15953   0.586   1.849   4.371  0.3215 -0.0809 -0.0233
 3812WAT     H115954   0.508   1.887   4.361  0.6402  0.5646 -0.0547
 3812WAT     H215955   0.580   1.778   4.320 -0.9441 -1.1115  1.4719
 3812WAT    EPW15956   0.574   1.844   4.362  0.1396 -0.4395  0.0858
 3813WAT      O15957   5.575   5.944   5.465  0.3919 -0.3300  0.1249
 3813WAT     H115958   5.579   5.857   5.470 -1.5051 -0.4538  0.4509
 3813WAT     H215959   5.654   5.970   5.492  0.5286 -1.9212  1.4538
 3813WAT    EPW15960   5.587   5.935   5.470  0.6681  0.4874  0.2689
 3814WAT      O15961   8.064   5.809   4.183  0.6213 -0.7925  0.4419
 3814WAT     H115962   8.046   5.784   4.101  0.4433 -1.5502  0.6986
 3814WAT     H215963   8.119   5.876   4.172  0.2198 -0.5682 -0.3006
 3814WAT    EPW15964   8.070   5.815   4.169 -0.1123 -0.0792 -0.2132
 3815WAT      O15965   5.694   3.966   3.108 -0.5286  0.1393 -0.1025
 3815WAT     H115966   5.699   4.049   3.081 -0.5935 -0.3164 -1.6132
 3815WAT     H215967   5.635   3.931   3.055  0.2191 -1.1172 -0.1482
 3815WAT    EPW15968   5.686   3.973   3.096  0.0550  0.3585  0.4859
 3816WAT      O15969   3.016   0.529   5.617 -0.0760  0.5547  0.4417
 3816WAT     H115970   2.957   0.465   5.617  1.4044 -0.8587  0.1714
 3816WAT     H215971   2.992   0.579   5.685 -1.9509  0.4249 -0.0688
 3816WAT    EPW15972   3.004   0.527   5.627 -0.2913  0.3257  0.1730
 3817WAT      O15973   5.284   3.519   1.793  0.6377  0.3738 -0.3523
 3817WAT     H115974   5.321   3.441   1.799 -0.4410 -0.0784  1.1189
 3817WAT     H215975   5.275   3.544   1.877  0.7331  1.9716 -0.7708
 3817WAT    EPW15976   5.288   3.511   1.806 -0.3858  0.3359  0.6266
 3818WAT      O15977   4.316   2.847   6.619  0.3625  0.0520 -0.1606
 3818WAT     H115978   4.302   2.930   6.644 -1.4473  0.3912 -2.0868
 3818WAT     H215979   4.391   2.852   6.575  0.0990  0.7482 -0.5505
 3818WAT    EPW15980   4.325   2.860   6.616 -0.3069  0.3751  0.3438
 3819WAT      O15981   0.134   0.250   2.403 -0.4040 -0.5141  0.6360
 3819WAT     H115982   0.140   0.173   2.443 -1.0237 -0.1835  1.3928
 3819WAT     H215983   0.216   0.267   2.379 -0.2859 -1.4823  0.3069
 3819WAT    EPW15984   0.147   0.241   2.405 -0.4912 -0.0476 -0.3788
 3820WAT      O15985   7.348   2.914   2.729  1.0450  0.0913 -0.0658
 3820WAT     H115986   7.394   2.884   2.797  0.8275  1.2149  0.6140
 3820WAT     H215987   7.273   2.869   2.733  0.3811  1.2551  1.4418
 3820WAT    EPW15988   7.344   2.903   2.740  0.6629 -0.0999 -0.5170
 3821WAT      O15989   5.173   2.344   1.664  0.2750  0.1155 -0.6328
 3821WAT     H115990   5.135   2.389   1.728  2.5705  0.9059  0.2731
 3821WAT     H215991   5.153   2.261   1.683  0.8592  0.3342  1.1235
 3821WAT    EPW15992   5.164   2.338   1.676 -0.9425  0.0886  0.6356
 3822WAT      O15993   4.157   7.075   0.797 -0.5385 -0.9799  0.2936
 3822WAT     H115994   4.137   7.095   0.715 -0.7026 -0.0381  0.5520
 3822WAT     H215995   4.242   7.055   0.793 -0.7718 -1.9278 -0.2623
 3822WAT    EPW15996   4.167   7.075   0.784 -0.6043 -0.0790 -0.1159
 3823WAT      O15997   1.656   1.202   2.741 -0.3078  0.2900 -0.7168
 3823WAT     H115998   1.730   1.245   2.727 -0.4909  0.6129 -0.6979
 3823WAT     H215999   1.597   1.248   2.697 -0.7012  0.7193  0.2335
 3823WAT    EPW16000   1.658   1.215   2.733  0.7231  0.1705 -0.0007
 3824WAT      O16001   7.579   1.740   3.793  0.9640  0.3082  0.5626
 3824WAT     H116002   7.640   1.792   3.828  1.5120 -0.2123  0.3997
 3824WAT     H216003   7.590   1.749   3.707 -0.7940  2.0661  0.4633
 3824WAT    EPW16004   7.590   1.749   3.786  0.2344 -0.3144  0.2998
 3825WAT      O16005   6.203   3.796   5.476  0.4288  0.3533  0.5255
 3825WAT     H116006   6.262   3.842   5.430 -0.6310  0.3247 -0.9398
 3825WAT     H216007   6.127   3.832   5.452 -0.2682 -0.8223  0.9398
 3825WAT    EPW16008   6.201   3.808   5.465 -0.5865 -0.6283 -0.1763
 3826WAT      O16009   1.032   6.476   2.128 -0.3244  0.0899 -0.1219
 3826WAT     H116010   0.995   6.494   2.205 -1.5847 -0.7698 -0.4922
 3826WAT     H216011   0.965   6.475   2.072  0.3137 -0.9864 -0.9249
 3826WAT    EPW16012   1.016   6.478   2.131 -0.3034 -0.0177 -0.2034
 3827WAT      O16013   7.887   5.389   2.903 -0.0201  0.1962 -0.1373
 3827WAT     H116014   7.932   5.423   2.970 -0.4079 -0.8187  0.6658
 3827WAT     H216015   7.900   5.447   2.839  0.7256  0.9759  0.6755
 3827WAT    EPW16016   7.896   5.403   2.904  0.4560 -0.8444  0.1873
 3828WAT      O16017   4.852   4.188   6.425 -0.4230 -0.1268 -0.3160
 3828WAT     H116018   4.890   4.130   6.479  0.2839 -0.0091 -0.6794
 3828WAT     H216019   4.915   4.208   6.369 -1.1093 -0.1151 -1.0935
 3828WAT    EPW16020   4.867   4.182   6.425  0.0668 -0.3040  0.3222
 3829WAT      O16021   5.905   1.413   6.884 -0.3527 -0.3617  0.0364
 3829WAT     H116022   5.918   1.449   6.962  0.9818 -0.0285 -0.3146
 3829WAT     H216023   5.897   1.482   6.830 -0.5204 -0.5813 -0.2221
 3829WAT    EPW16024   5.906   1.429   6.887  0.4883 -0.5253 -0.3006
 3830WAT      O16025   3.607   2.167   3.848 -0.3115  0.3277  0.2752
 3830WAT     H116026   3.576   2.117   3.783 -0.7756  0.5118  0.3511
 3830WAT     H216027   3.581   2.247   3.827 -1.1261  0.2903  1.0634
 3830WAT    EPW16028   3.598   2.171   3.835 -0.2313 -0.4871 -0.4333
 3831WAT      O16029   3.603   6.797   1.000  0.2092 -0.1087 -0.2402
 3831WAT     H116030   3.627   6.862   0.948  1.7426 -0.5901 -0.1721
 3831WAT     H216031   3.671   6.787   1.054 -0.7421 -0.5727  0.9273
 3831WAT    EPW16032   3.617   6.805   1.000 -0.1812  0.1219 -0.0644
 3832WAT      O16033   0.277   3.720   3.295  0.0413  0.2000  0.3904
 3832WAT     H116034   0.359   3.730   3.267 -0.0180  1.1871  0.5169
 3832WAT     H216035   0.231   3.710   3.222  0.4241 -1.8073  0.3706
 3832WAT    EPW16036   0.283   3.720   3.280 -0.3337 -0.5690  0.3391
 3833WAT      O16037   6.835   2.459   0.378  0.6518  0.1611 -0.9508
 3833WAT     H116038   6.810   2.536   0.345 -0.0512  0.0786 -0.6284
 3833WAT     H216039   6.851   2.411   0.307 -0.9859 -0.0608 -1.2166
 3833WAT    EPW16040   6.834   2.463   0.363  0.1610 -0.2998 -0.1070
 3834WAT      O16041   6.180   6.408   4.651 -0.4639  0.4099 -0.6269
 3834WAT     H116042   6.143   6.349   4.598 -1.4340  0.3825  0.0465
 3834WAT     H216043   6.182   6.367   4.728 -0.0730  0.8364 -0.4067
 3834WAT    EPW16044   6.175   6.393   4.654 -0.3792 -0.4773  0.5699
 3835WAT      O16045   1.996   0.198   3.012  0.1351 -0.0881 -0.0029
 3835WAT     H116046   1.921   0.197   3.058 -1.3108  0.3894 -2.1996
 3835WAT     H216047   2.045   0.257   3.054 -1.5426  1.1405  0.3345
 3835WAT    EPW16048   1.992   0.207   3.025  0.1777  0.5277 -0.1108
 3836WAT      O16049   5.546   3.049   1.488 -0.5207 -0.2172  0.6144
 3836WAT     H116050   5.576   2.988   1.433 -0.4951  0.6534 -0.3836
 3836WAT     H216051   5.523   3.004   1.559 -0.3547 -1.3601 -0.0340
 3836WAT    EPW16052   5.547   3.034   1.490 -0.2244  0.5367 -0.3770
 3837WAT      O16053   6.570   3.401   0.216  0.0075  0.6981 -0.3364
 3837WAT     H116054   6.518   3.339   0.183  0.6124  0.3092 -0.5563
 3837WAT     H216055   6.543   3.473   0.175 -1.0290  0.6853  0.2776
 3837WAT    EPW16056   6.558   3.403   0.205  0.5617 -0.3463  0.0571
 3838WAT      O16057   6.318   3.199   2.124  0.3973  0.5710 -0.0578
 3838WAT     H116058   6.332   3.258   2.186  0.8870 -1.0139  1.4121
 3838WAT     H216059   6.231   3.191   2.122  0.3420  1.1449 -0.1065
 3838WAT    EPW16060   6.308   3.206   2.133 -0.3627 -0.5801 -0.1636
 3839WAT      O16061   5.831   2.244   4.150 -0.1249 -0.5011 -0.7951
 3839WAT     H116062   5.827   2.322   4.188  1.3266  0.5836 -2.6713
 3839WAT     H216063   5.808   2.260   4.067  2.6395 -1.4604 -1.8920
 3839WAT    EPW16064   5.827   2.258   4.143 -0.0164 -0.2946 -0.3145
 3840WAT      O16065   6.394   3.605   7.500  0.1349  0.1558 -0.2093
 3840WAT     H116066   6.337   3.605   7.567  0.2305  1.0996 -0.1052
 3840WAT     H216067   6.348   3.637   7.434  0.3274  0.2013 -0.3219
 3840WAT    EPW16068   6.379   3.610   7.500  0.3956 -0.0418  0.3584
 3841WAT      O16069   5.197   7.126   7.397  0.2666  0.6055 -0.2257
 3841WAT     H116070   5.249   7.128   7.467  1.4607 -0.0559 -1.0724
 3841WAT     H216071   5.117   7.120   7.432  0.8656 -0.2500  1.0880
 3841WAT    EPW16072   5.193   7.126   7.413  0.0763  0.1313 -0.4246
 3842WAT      O16073   5.615   2.742   7.905  0.4472 -0.4406 -0.0379
 3842WAT     H116074   5.556   2.700   7.953  0.3597 -0.4065 -0.1156
 3842WAT     H216075   5.617   2.698   7.830  1.8119 -1.5261  0.5917
 3842WAT    EPW16076   5.607   2.729   7.901 -0.2007 -0.0127 -0.8246
 3843WAT      O16077   4.576   3.552   4.124  0.1163 -0.5493  0.6936
 3843WAT     H116078   4.527   3.569   4.194 -2.9646  0.3891 -1.4608
 3843WAT     H216079   4.607   3.630   4.101  2.0204 -1.0126  1.5238
 3843WAT    EPW16080   4.573   3.566   4.131  0.0931  0.1032 -0.1302
 3844WAT      O16081   7.674   6.362   3.677  0.1348 -0.7252 -0.0077
 3844WAT     H116082   7.616   6.395   3.733 -1.7293 -1.1167 -1.6170
 3844WAT     H216083   7.694   6.285   3.712 -0.0030 -0.4252  0.7616
 3844WAT    EPW16084   7.668   6.356   3.691 -0.6784 -0.5181 -0.6425
 3845WAT      O16085   5.179   4.558   6.134  0.6614 -0.5423  0.1469
 3845WAT     H116086   5.237   4.583   6.194  0.7004 -1.4550  0.4955
 3845WAT     H216087   5.124   4.508   6.179 -0.7800  0.8006 -0.0343
 3845WAT    EPW16088   5.179   4.554   6.150 -0.1850  0.0664  0.2197
 3846WAT      O16089   5.074   4.828   2.747 -0.6215  0.2955 -0.4008
 3846WAT     H116090   5.016   4.892   2.733  0.7607  1.5747 -0.4137
 3846WAT     H216091   5.151   4.868   2.745  0.4775 -1.6586 -2.3998
 3846WAT    EPW16092   5.077   4.843   2.744 -0.1509  0.0596  0.0244
 3847WAT      O16093   3.413   5.074   7.184 -0.1346  0.4216 -0.4890
 3847WAT     H116094   3.490   5.047   7.215 -0.4025 -0.5433 -0.6470
 3847WAT     H216095   3.395   5.018   7.120 -0.5839  1.1372 -1.0131
 3847WAT    EPW16096   3.422   5.062   7.179 -0.1828 -0.4050  0.1730
 3848WAT      O16097   7.186   3.199   2.184  0.6036  0.0103  0.0325
 3848WAT     H116098   7.217   3.175   2.262 -0.3089  0.9237  0.7079
 3848WAT     H216099   7.241   3.262   2.158  0.7428 -0.1013  0.0527
 3848WAT    EPW16100   7.199   3.205   2.191 -0.3023 -0.6277  0.0425
 3849WAT      O16101   2.392   0.057   6.920 -0.0387 -0.6072 -0.4320
 3849WAT     H116102   2.390   0.054   6.833  2.6232 -0.3125 -0.6079
 3849WAT     H216103   2.400   0.142   6.937 -3.4897 -0.3129  0.3628
 3849WAT    EPW16104   2.393   0.069   6.910  0.0845  0.0640 -0.0891
 3850WAT      O16105   7.983   3.780   1.492  0.0988 -0.2808  0.6541
 3850WAT     H116106   8.041   3.800   1.553  0.1697  1.5047  0.0494
 3850WAT     H216107   7.944   3.708   1.523 -0.4691  1.0182  3.1962
 3850WAT    EPW16108   7.985   3.772   1.505  0.1013 -0.6462  0.6570
 3851WAT      O16109   5.213   4.552   0.897  0.2769  0.4691  0.0910
 3851WAT     H116110   5.279   4.607   0.917  0.0786  0.9403 -0.5305
 3851WAT     H216111   5.145   4.585   0.941 -0.1863  1.5698 -1.3929
 3851WAT    EPW16112   5.213   4.565   0.907  0.1554  0.1452  0.6192
 3852WAT      O16113   6.734   0.179   3.018 -0.1213 -0.3826  0.3147
 3852WAT     H116114   6.713   0.252   2.976  0.2647 -0.8802 -0.7839
 3852WAT     H216115   6.797   0.144   2.968  0.9491 -0.5905  1.7387
 3852WAT    EPW16116   6.740   0.185   3.005 -0.4747 -0.3754 -0.2306
 3853WAT      O16117   5.807   6.275   4.464  0.2849 -0.6505 -0.3064
 3853WAT     H116118   5.733   6.240   4.433  0.8178 -0.5334 -1.7930
 3853WAT     H216119   5.784   6.309   4.541 -0.9269 -1.6615 -0.1990
 3853WAT    EPW16120   5.793   6.275   4.470 -0.6646  0.4528  0.7169
 3854WAT      O16121   7.151   2.267   3.779 -0.0092 -0.5550  0.5949
 3854WAT     H116122   7.109   2.212   3.832 -2.6140  1.1368  0.4361
 3854WAT     H216123   7.145   2.344   3.820 -1.6911  0.7295 -1.8476
 3854WAT    EPW16124   7.144   2.270   3.793 -0.0214 -0.1152  0.1823
 3855WAT      O16125   5.817   5.638   6.339 -0.5842 -0.4741  0.1799
 3855WAT     H116126   5.760   5.587   6.381 -0.0290 -1.6860 -0.4740
 3855WAT     H216127   5.770   5.672   6.273 -0.4931 -1.8326 -0.6371
 3855WAT    EPW16128   5.802   5.636   6.335  0.4762  0.2525  1.0472
 3856WAT      O16129   6.217   2.695   5.759  0.1941 -0.2212 -0.6260
 3856WAT     H116130   6.274   2.760   5.743  0.1705 -0.4871 -1.9472
 3856WAT     H216131   6.254   2.626   5.721  1.0726 -1.4720  2.2403
 3856WAT    EPW16132   6.231   2.695   5.751 -0.6262 -0.2151 -0.1654
 3857WAT      O16133   2.192   5.647   0.919  0.1413 -0.3188  0.1023
 3857WAT     H116134   2.181   5.659   1.005  0.5118 -0.6720  0.2005
 3857WAT     H216135   2.253   5.586   0.915  0.2365 -0.1889 -0.4186
 3857WAT    EPW16136   2.199   5.640   0.931 -0.3964  0.6274 -0.2854
 3858WAT      O16137   4.392   4.218   4.289  0.1689 -0.3606  0.0117
 3858WAT     H116138   4.406   4.248   4.369 -2.7814 -0.4486  0.6776
 3858WAT     H216139   4.329   4.159   4.300 -0.2158 -0.4880 -2.3590
 3858WAT    EPW16140   4.385   4.214   4.302 -0.4718  0.4945  0.4825
 3859WAT      O16141   6.988   3.909   2.412 -0.1508  0.0573 -0.4787
 3859WAT     H116142   7.000   3.995   2.406  0.0904  0.2485  1.8570
 3859WAT     H216143   6.902   3.899   2.397 -0.1727  0.6697 -0.7847
 3859WAT    EPW16144   6.977   3.920   2.409 -0.4719  0.1009 -0.4912
 3860WAT      O16145   5.631   2.331   6.665  0.2210  0.2771 -0.1786
 3860WAT     H116146   5.558   2.356   6.706  0.6895 -0.2243  0.9861
 3860WAT     H216147   5.604   2.262   6.617 -0.2304  0.5909 -0.3870
 3860WAT    EPW16148   5.616   2.324   6.664 -0.2631  0.0331 -0.3922
 3861WAT      O16149   4.720   4.066   2.973  0.1360  0.0919  0.1326
 3861WAT     H116150   4.715   4.105   3.051  0.0878  0.4889 -0.0676
 3861WAT     H216151   4.789   4.013   2.981  0.8150  0.9553  0.0778
 3861WAT    EPW16152   4.730   4.064   2.986 -0.0264 -0.3189  0.2725
 3862WAT      O16153   4.885   5.636   4.317  0.3823  0.1979 -0.0346
 3862WAT     H116154   4.804   5.611   4.296  0.8664 -1.0563 -0.5143
 3862WAT     H216155   4.915   5.568   4.363  1.8097 -0.2178 -1.5040
 3862WAT    EPW16156   4.877   5.622   4.321 -0.4685  0.2197 -0.0367
 3863WAT      O16157   5.725   3.234   6.087  0.3261  0.2004  0.6166
 3863WAT     H116158   5.795   3.188   6.114  0.9488  0.9821  0.3714
 3863WAT     H216159   5.754   3.275   6.016 -0.5151  0.2312  0.2863
 3863WAT    EPW16160   5.740   3.233   6.081  0.2049  0.6967  0.1055
 3864WAT      O16161   5.722   5.158   3.116  0.7638 -0.8271  0.2572
 3864WAT     H116162   5.640   5.154   3.144  0.3971 -0.8311 -0.7600
 3864WAT     H216163   5.739   5.077   3.087  1.3703 -1.0102  1.0956
 3864WAT    EPW16164   5.713   5.146   3.116 -0.2672 -0.9015  0.1377
 3865WAT      O16165   7.915   1.977   2.815 -0.5029  0.1781  0.0154
 3865WAT     H116166   7.959   1.940   2.881 -1.0113 -1.5554 -0.5809
 3865WAT     H216167   7.861   2.032   2.856  0.0465  0.0449  0.9555
 3865WAT    EPW16168   7.914   1.980   2.831  0.4465  0.4359  0.1952
 3866WAT      O16169   7.475   5.170   1.613 -0.3471 -0.2893  0.4317
 3866WAT     H116170   7.394   5.142   1.596 -1.6321  2.7089  1.0332
 3866WAT     H216171   7.481   5.165   1.699  1.0846 -2.6488  0.2918
 3866WAT    EPW16172   7.464   5.165   1.623 -0.1692  0.1252 -0.5747
 3867WAT      O16173   7.947   3.676   3.266  0.1096 -0.0491 -0.1776
 3867WAT     H116174   7.961   3.685   3.352  0.9747  0.8827 -0.3971
 3867WAT     H216175   8.021   3.707   3.230 -0.5973  0.4139 -1.2761
 3867WAT    EPW16176   7.960   3.682   3.274  0.9451  0.2139  1.0681
 3868WAT      O16177   5.587   1.850   3.203  0.2639 -0.1684 -0.1968
 3868WAT     H116178   5.592   1.927   3.161 -0.1808  0.2370  0.4694
 3868WAT     H216179   5.553   1.797   3.143  0.5484  0.1622 -0.6590
 3868WAT    EPW16180   5.583   1.854   3.188  0.4144  0.4120 -0.3777
 3869WAT      O16181   0.561   7.373   1.864  0.0470  0.4267 -0.0730
 3869WAT     H116182   0.513   7.409   1.801 -0.6362  3.2406  1.8044
 3869WAT     H216183   0.556   7.432   1.929  0.3542 -2.3740  2.7721
 3869WAT    EPW16184   0.553   7.387   1.865  0.3659  0.1681  0.5190
 3870WAT      O16185   5.731   5.630   6.879  0.7677 -0.1643  0.5322
 3870WAT     H116186   5.745   5.620   6.965 -0.6727  0.5859  0.8914
 3870WAT     H216187   5.670   5.570   6.862  2.6536 -1.8884 -0.5021
 3870WAT    EPW16188   5.724   5.620   6.889 -0.0340  0.0273  0.1169
 3871WAT      O16189   4.973   4.093   7.467 -0.1587  0.1716  0.5607
 3871WAT     H116190   4.885   4.096   7.464 -0.1686  0.3060  0.9833
 3871WAT     H216191   4.990   4.011   7.491 -0.1523  0.0203  0.0667
 3871WAT    EPW16192   4.962   4.081   7.470  0.5614 -0.5324 -0.1234
 3872WAT      O16193   5.384   6.340   3.335  0.1419 -0.8681 -0.0389
 3872WAT     H116194   5.438   6.362   3.269  0.4041 -1.6640 -0.0966
 3872WAT     H216195   5.437   6.302   3.393 -0.1895 -0.7040  0.3738
 3872WAT    EPW16196   5.400   6.338   3.334 -0.4809  0.2235  0.2548
 3873WAT      O16197   5.927   3.223   5.236 -0.1350  0.2418 -0.3607
 3873WAT     H116198   5.845   3.222   5.265 -0.2675 -0.7379 -0.7340
 3873WAT     H216199   5.975   3.204   5.306 -0.0406  2.5935  0.3022
 3873WAT    EPW16200   5.922   3.220   5.250  0.3520 -0.1696  0.1100
 3874WAT      O16201   6.103   2.354   2.017 -0.0886  0.4752 -0.3273
 3874WAT     H116202   6.034   2.385   1.974  0.8364  4.2466  0.5300
 3874WAT     H216203   6.148   2.426   2.039  3.7957 -1.6798 -0.2060
 3874WAT    EPW16204   6.100   2.370   2.014  0.5255 -0.1757 -0.3488
 3875WAT      O16205   5.110   5.176   2.256 -0.1412 -0.8297  0.1980
 3875WAT     H116206   5.175   5.226   2.285  0.3261 -1.8498  0.9610
 3875WAT     H216207   5.070   5.227   2.198  0.2786  0.4440  0.9854
 3875WAT    EPW16208   5.114   5.191   2.251 -0.0627  0.4115  0.2400
 3876WAT      O16209   4.748   6.958   7.666 -0.3126 -0.0920 -0.4952
 3876WAT     H116210   4.757   6.875   7.691  1.0265 -0.0069 -0.6272
 3876WAT     H216211   4.674   6.958   7.621 -1.3417 -0.8092  1.1075
 3876WAT    EPW16212   4.738   6.946   7.663  0.2764 -0.5210 -0.8737
 3877WAT      O16213   5.541   4.322   4.051 -0.7639  0.4755  0.0943
 3877WAT     H116214   5.547   4.399   4.092  0.0166  0.4255  0.0979
 3877WAT     H216215   5.622   4.289   4.058 -1.8290 -1.9349  3.1309
 3877WAT    EPW16216   5.554   4.329   4.058  0.0127 -0.1921  0.2067
 3878WAT      O16217   5.608   3.455   6.279  1.0525 -0.0807 -0.0237
 3878WAT     H116218   5.612   3.433   6.364 -0.0714  0.0988  0.0956
 3878WAT     H216219   5.637   3.383   6.239 -2.4608 -1.9508  0.3716
 3878WAT    EPW16220   5.613   3.441   6.286 -0.9068  0.4335  0.0955
 3879WAT      O16221   6.113   1.889   3.113  0.4162 -0.3713 -0.6189
 3879WAT     H116222   6.102   1.910   3.029 -0.2038  0.9144 -0.2338
 3879WAT     H216223   6.038   1.911   3.150  1.0122 -0.0459  0.4422
 3879WAT    EPW16224   6.100   1.895   3.106 -0.1000 -0.4187 -0.4957
 3880WAT      O16225   4.085   6.044   4.814  0.3207 -0.5392 -0.1570
 3880WAT     H116226   4.146   5.995   4.776  0.4249 -0.1446 -0.5091
 3880WAT     H216227   4.095   6.123   4.776 -0.4284 -0.4817 -0.2602
 3880WAT    EPW16228   4.095   6.049   4.803  0.2325 -0.6637  0.0741
 3881WAT      O16229   0.349   3.235   3.878 -0.1810 -0.3951 -0.2422
 3881WAT     H116230   0.312   3.313   3.891  0.5316 -0.0523 -0.2032
 3881WAT     H216231   0.410   3.230   3.940 -0.2765 -1.0300 -0.1871
 3881WAT    EPW16232   0.352   3.246   3.889 -0.5425  0.1407 -0.5760
 3882WAT      O16233   5.020   3.530   3.793 -0.0864  0.1047 -0.0822
 3882WAT     H116234   5.027   3.447   3.768  0.8943 -0.1612  1.0108
 3882WAT     H216235   4.984   3.569   3.724  1.1261 -0.8674 -1.3126
 3882WAT    EPW16236   5.016   3.523   3.779 -1.4179 -0.0922  0.3668
 3883WAT      O16237   4.576   6.323   3.876  0.1812  0.3260  0.2678
 3883WAT     H116238   4.535   6.247   3.862  1.4820 -0.2258 -0.8369
 3883WAT     H216239   4.535   6.379   3.825  1.2085 -0.3899 -1.4323
 3883WAT    EPW16240   4.564   6.320   3.867 -0.3729  0.1280  0.4613
 3884WAT      O16241   5.788   3.684   5.231  0.2489 -0.1830 -0.4150
 3884WAT     H116242   5.829   3.693   5.155 -0.4624  1.6577 -0.6402
 3884WAT     H216243   5.827   3.616   5.268  2.7116  0.7593 -1.1036
 3884WAT    EPW16244   5.800   3.676   5.225 -0.0101 -1.0281 -0.3293
 3885WAT      O16245   6.431   4.307   2.355 -0.3696 -0.0637 -0.3081
 3885WAT     H116246   6.454   4.231   2.391  0.3982  0.5934  0.6574
 3885WAT     H216247   6.468   4.305   2.276  0.4878 -0.2916  0.0839
 3885WAT    EPW16248   6.440   4.296   2.349 -0.3635  1.0569  0.1605
 3886WAT      O16249   5.128   0.867   3.986 -0.1579  0.2248  0.4604
 3886WAT     H116250   5.057   0.852   4.034  0.6889 -0.4265  1.5586
 3886WAT     H216251   5.144   0.790   3.948 -0.6022  0.6343 -0.6172
 3886WAT    EPW16252   5.120   0.853   3.987  0.4386  0.3445 -0.2296
 3887WAT      O16253   5.676   5.095   7.341  0.7954 -0.3785  0.2220
 3887WAT     H116254   5.681   5.108   7.428 -0.4099  0.1889  0.2249
 3887WAT     H216255   5.641   5.016   7.335 -0.5483  0.1884  0.2852
 3887WAT    EPW16256   5.672   5.086   7.353  1.0924  0.0230  0.1973
 3888WAT      O16257   7.190   3.196   4.673 -0.6161 -0.1349 -0.1895
 3888WAT     H116258   7.252   3.163   4.725 -0.5218  0.1655 -0.1117
 3888WAT     H216259   7.117   3.153   4.698 -0.8544  0.9999  1.1586
 3888WAT    EPW16260   7.188   3.184   4.684  0.3047  0.2657  0.3673
 3889WAT      O16261   6.611   3.863   3.087 -0.3860 -0.0087  0.2229
 3889WAT     H116262   6.588   3.903   3.013  1.6870  0.2925 -0.3257
 3889WAT     H216263   6.592   3.922   3.148  0.3822  0.8548 -0.3476
 3889WAT    EPW16264   6.605   3.878   3.085 -0.0411  0.2390 -0.0347
 3890WAT      O16265   5.857   3.989   3.606  0.8430 -0.2770 -0.4309
 3890WAT     H116266   5.817   4.051   3.652  1.3870 -0.4365  0.2679
 3890WAT     H216267   5.916   3.956   3.662  1.4942 -0.4991 -1.2245
 3890WAT    EPW16268   5.860   3.993   3.621  0.6176 -0.0633 -1.0128
 3891WAT      O16269   6.512   2.345   3.274 -0.0705 -0.2700  0.4520
 3891WAT     H116270   6.509   2.350   3.361  1.2693 -1.2841  0.5948
 3891WAT     H216271   6.470   2.416   3.247  1.2745  1.1659  1.9618
 3891WAT    EPW16272   6.505   2.356   3.283 -0.7063 -0.2307  0.5669
 3892WAT      O16273   5.366   7.986   0.448  0.3289  0.0965 -0.0181
 3892WAT     H116274   5.430   8.001   0.505 -0.2561 -0.8936  0.9410
 3892WAT     H216275   5.406   7.989   0.371  0.9577  2.4737  0.3151
 3892WAT    EPW16276   5.381   7.989   0.445 -0.3449  0.1602 -0.6079
 3893WAT      O16277   4.702   3.799   4.066  0.1737 -0.2785  0.2198
 3893WAT     H116278   4.679   3.828   3.987 -0.8761 -2.3856 -0.3109
 3893WAT     H216279   4.692   3.869   4.117  0.1085  0.9127 -1.3654
 3893WAT    EPW16280   4.697   3.814   4.062 -0.6403 -0.2248  0.1620
 3894WAT      O16281   6.271   3.751   2.008  0.2685 -0.3300 -0.1656
 3894WAT     H116282   6.202   3.704   2.032  0.4100 -0.9372 -0.9393
 3894WAT     H216283   6.301   3.784   2.083  0.9201 -2.4794  0.5690
 3894WAT    EPW16284   6.265   3.749   2.022  0.0446 -0.2106 -0.4611
 3895WAT      O16285   5.116   5.316   2.549  0.0549 -0.1992 -0.2871
 3895WAT     H116286   5.142   5.233   2.563  1.7796 -0.0482 -2.1416
 3895WAT     H216287   5.178   5.363   2.589 -1.5642  0.2832  1.8184
 3895WAT    EPW16288   5.129   5.310   2.557  0.0287 -0.5505 -0.6040
 3896WAT      O16289   7.193   7.376   2.421 -0.3360 -0.1052 -0.0184
 3896WAT     H116290   7.246   7.445   2.416 -0.2481  0.1035  2.6147
 3896WAT     H216291   7.235   7.315   2.375  0.4185  1.0704 -0.9650
 3896WAT    EPW16292   7.207   7.377   2.414  0.3738  0.0701 -0.1981
 3897WAT      O16293   2.520   1.637   0.744 -0.2266 -0.1080 -0.0906
 3897WAT     H116294   2.556   1.625   0.665  3.5908 -2.0921  1.7045
 3897WAT     H216295   2.526   1.559   0.782 -1.8999  0.7873  2.2654
 3897WAT    EPW16296   2.526   1.624   0.738  0.1859  0.0814 -0.0527
 3898WAT      O16297   5.489   5.436   1.798 -0.2596 -0.0781 -0.0597
 3898WAT     H116298   5.482   5.354   1.828  0.7245 -1.0125 -2.1507
 3898WAT     H216299   5.556   5.469   1.843  0.6184 -1.1226 -0.5444
 3898WAT    EPW16300   5.498   5.429   1.809 -0.2517 -0.0504  0.1086
 3899WAT      O16301   7.242   1.859   1.814  0.4038  0.6492  0.0507
 3899WAT     H116302   7.329   1.848   1.819  0.1874 -1.0687  0.9152
 3899WAT     H216303   7.211   1.792   1.861 -1.4332  0.2095 -1.6689
 3899WAT    EPW16304   7.250   1.847   1.822 -0.1487  0.2389 -0.0332
 3900WAT      O16305   5.295   3.111   0.647  0.2168 -0.2236 -0.1590
 3900WAT     H116306   5.219   3.072   0.628 -0.4974  0.8073  0.4373
 3900WAT     H216307   5.287   3.129   0.732  0.4470  1.3318 -0.4417
 3900WAT    EPW16308   5.283   3.108   0.657  0.1148 -0.7006  0.4528
 3901WAT      O16309   5.743   4.175   0.539  0.5037 -0.6380  0.4272
 3901WAT     H116310   5.669   4.129   0.540  0.1848 -0.1365  1.0671
 3901WAT     H216311   5.748   4.204   0.456  0.3379 -1.2259  0.2115
 3901WAT    EPW16312   5.733   4.173   0.527 -0.2378 -0.1220 -0.5360
 3902WAT      O16313   5.603   5.029   3.746 -0.2408  0.5197 -0.3768
 3902WAT     H116314   5.586   5.039   3.661  0.3937  1.9688 -0.3593
 3902WAT     H216315   5.544   5.080   3.785 -1.1631 -0.8722  0.1516
 3902WAT    EPW16316   5.592   5.038   3.739 -0.1210 -0.2396 -0.0253
 3903WAT      O16317   6.477   1.998   0.236  0.1598  0.3112  0.0825
 3903WAT     H116318   6.413   1.991   0.295 -0.4768  0.0844 -0.6182
 3903WAT     H216319   6.494   2.084   0.235 -2.2365  0.8978 -1.8319
 3903WAT    EPW16320   6.470   2.010   0.244  0.0071  0.5225 -0.3126
 3904WAT      O16321   0.833   3.292   2.399  0.0955 -0.0957 -0.2968
 3904WAT     H116322   0.835   3.211   2.429 -0.0038 -0.0980 -0.2978
 3904WAT     H216323   0.830   3.341   2.472  2.1451 -0.0158 -0.1996
 3904WAT    EPW16324   0.833   3.287   2.414  0.2251  0.6583 -0.4477
 3905WAT      O16325   2.410   2.686   3.204  0.0078 -0.2539  0.6180
 3905WAT     H116326   2.473   2.741   3.181 -0.7882  0.5836  0.3862
 3905WAT     H216327   2.381   2.655   3.127  0.0136 -0.4999  0.7133
 3905WAT    EPW16328   2.415   2.689   3.189  0.2904 -0.0541  0.0091
 3906WAT      O16329   4.091   4.218   3.029 -0.0144 -0.3667 -0.4645
 3906WAT     H116330   4.044   4.151   2.998  1.3156 -1.5693  0.0494
 3906WAT     H216331   4.164   4.181   3.059 -0.3702  0.9542  2.3723
 3906WAT    EPW16332   4.095   4.203   3.029 -0.2032 -0.8456  0.0539
 3907WAT      O16333   4.630   4.916   2.709 -0.0375  0.0477  0.0409
 3907WAT     H116334   4.589   4.978   2.662  0.3772  0.1192 -0.2347
 3907WAT     H216335   4.601   4.842   2.674 -0.3203  0.0866  0.1856
 3907WAT    EPW16336   4.620   4.914   2.697 -0.4138  0.0542 -0.6202
 3908WAT      O16337   5.114   7.355   1.113  0.7258  0.1219 -0.3868
 3908WAT     H116338   5.075   7.388   1.184  0.9885 -2.3575  1.0500
 3908WAT     H216339   5.127   7.271   1.135  1.4792 -0.5601 -3.1251
 3908WAT    EPW16340   5.110   7.348   1.127 -0.3283  0.0595 -0.0054
 3909WAT      O16341   1.940   7.846   6.512 -0.2899 -0.4318 -0.4714
 3909WAT     H116342   2.017   7.805   6.515  0.1441  0.2401 -1.6410
 3909WAT     H216343   1.936   7.886   6.589  1.3078  0.8299 -0.9834
 3909WAT    EPW16344   1.951   7.846   6.524  0.3660  0.0855 -0.1587
 3910WAT      O16345   3.372   4.974   0.313  0.0565 -1.0118 -0.0105
 3910WAT     H116346   3.398   5.017   0.241  0.9392 -0.8501  0.3844
 3910WAT     H216347   3.376   4.890   0.289  1.9936 -1.0655  0.3154
 3910WAT    EPW16348   3.377   4.968   0.298 -0.4306 -0.3228 -0.3904
 3911WAT      O16349   3.769   3.015   5.709  0.0110 -0.3613 -0.1895
 3911WAT     H116350   3.706   2.958   5.690 -0.6835 -0.2756  1.6396
 3911WAT     H216351   3.771   3.015   5.797 -0.1249  2.5185 -0.0962
 3911WAT    EPW16352   3.760   3.006   5.719 -0.0832  0.4795  0.1838
 3912WAT      O16353   3.104   6.217   1.162 -0.2965 -0.1670 -0.3693
 3912WAT     H116354   3.171   6.268   1.184  1.5742 -0.4798 -4.4522
 3912WAT     H216355   3.110   6.150   1.216  2.9963 -0.3324 -0.7789
 3912WAT    EPW16356   3.115   6.215   1.173  0.3070  0.5458 -0.1013
 3913WAT      O16357   5.727   4.429   0.895 -0.5271  0.1666  0.4236
 3913WAT     H116358   5.717   4.508   0.931  0.4383  1.0258 -1.0469
 3913WAT     H216359   5.646   4.400   0.885 -1.0736  1.9178 -0.8834
 3913WAT    EPW16360   5.714   4.436   0.899 -0.6654 -0.0921 -0.2973
 3914WAT      O16361   4.807   5.694   5.922  0.1269 -0.1501 -0.3577
 3914WAT     H116362   4.803   5.777   5.898 -0.9935 -0.2032 -0.4211
 3914WAT     H216363   4.740   5.685   5.978  0.9815 -0.7110  0.6189
 3914WAT    EPW16364   4.796   5.705   5.927  0.0502 -0.2504 -0.4423
 3915WAT      O16365   5.099   5.896   2.200  0.2113  0.3735 -0.4287
 3915WAT     H116366   5.043   5.850   2.250 -1.2474 -1.1426 -3.2086
 3915WAT     H216367   5.170   5.846   2.200  0.6932  0.9985  1.0172
 3915WAT    EPW16368   5.101   5.882   2.207 -0.0851 -0.0655  0.5510
 3916WAT      O16369   2.231   4.344   7.125 -0.3902  0.6730 -0.1702
 3916WAT     H116370   2.271   4.422   7.121 -0.4187  0.6879 -0.1672
 3916WAT     H216371   2.180   4.344   7.055  0.5536  0.1333 -0.8870
 3916WAT    EPW16372   2.230   4.356   7.114 -0.1441 -0.0362 -0.8904
 3917WAT      O16373   3.780   2.512   3.798  0.2730  0.6186  0.2090
 3917WAT     H116374   3.700   2.477   3.800  0.4140  0.2750 -0.1290
 3917WAT     H216375   3.780   2.559   3.725  0.4855  0.3549  0.0363
 3917WAT    EPW16376   3.768   2.514   3.788 -0.5378 -0.9563  0.5392
 3918WAT      O16377   4.630   2.943   1.705 -0.0393  0.1927  0.4790
 3918WAT     H116378   4.652   2.959   1.788 -1.1031 -0.4672  0.9155
 3918WAT     H216379   4.704   2.916   1.668  1.1404  3.0245  0.4898
 3918WAT    EPW16380   4.644   2.942   1.712  0.0720  0.7155 -0.7766
 3919WAT      O16381   7.044   4.106   1.096  0.2681 -0.0587 -0.2450
 3919WAT     H116382   7.107   4.048   1.113 -0.4710 -1.0753 -0.8666
 3919WAT     H216383   6.984   4.059   1.054 -1.4811  0.5883  1.3796
 3919WAT    EPW16384   7.044   4.090   1.092  0.2136  0.4303  0.3559
 3920WAT      O16385   5.283   4.144   4.823 -0.1635 -0.1092 -0.1933
 3920WAT     H116386   5.201   4.131   4.851 -1.1158  0.7992 -2.3342
 3920WAT     H216387   5.278   4.219   4.778  1.8974  0.0624 -0.2302
 3920WAT    EPW16388   5.270   4.153   4.820  0.2612  0.0675 -0.3445
 3921WAT      O16389   6.076   6.395   1.641 -0.8460  0.0627 -1.2118
 3921WAT     H116390   5.992   6.415   1.650 -0.8990 -0.7313  0.4866
 3921WAT     H216391   6.093   6.348   1.712  1.4497  1.5190 -0.7071
 3921WAT    EPW16392   6.066   6.391   1.652 -0.0563 -0.0781 -0.7816
 3922WAT      O16393   2.503   7.859   7.017  0.1123  0.8970 -0.4958
 3922WAT     H116394   2.588   7.863   6.997 -0.1332  0.6380 -1.6644
 3922WAT     H216395   2.475   7.941   7.003 -0.3936  0.3915 -2.9816
 3922WAT    EPW16396   2.511   7.872   7.012 -0.2927  0.3632 -0.4576
 3923WAT      O16397   5.717   6.461   4.014  0.4546 -0.3900 -0.0014
 3923WAT     H116398   5.710   6.394   3.959 -0.3439 -0.9779  0.8042
 3923WAT     H216399   5.800   6.456   4.041  0.1966 -1.5158  0.6280
 3923WAT    EPW16400   5.728   6.451   4.010 -0.3388 -0.2103  0.1331
 3924WAT      O16401   4.275   0.549   2.055  0.2428  0.3211 -0.5320
 3924WAT     H116402   4.285   0.471   2.018  0.5262  0.7433 -1.3699
 3924WAT     H216403   4.346   0.593   2.031 -1.2631  1.8458 -2.7188
 3924WAT    EPW16404   4.287   0.544   2.046  0.5413  0.3073 -0.4841
 3925WAT      O16405   0.174   7.036   2.125 -0.1666 -0.2449 -0.3949
 3925WAT     H116406   0.208   6.980   2.067 -0.0615 -0.4055 -0.1810
 3925WAT     H216407   0.119   7.085   2.077 -0.6957 -0.9066 -0.4880
 3925WAT    EPW16408   0.171   7.035   2.109 -0.0547 -0.6612 -0.2499
 3926WAT      O16409   5.855   4.345   7.988 -0.1606 -0.3090 -0.2796
 3926WAT     H116410   5.937   4.317   7.979  1.0250  2.0896  1.7164
 3926WAT     H216411   5.808   4.274   7.974  2.4145 -2.5339  1.3148
 3926WAT    EPW16412   5.860   4.331   7.985  0.2497  0.0761 -0.1614
 3927WAT      O16413   6.743   7.805   0.300 -0.1969 -0.3894  0.0853
 3927WAT     H116414   6.797   7.770   0.242  0.4947 -1.5430  1.3721
 3927WAT     H216415   6.665   7.772   0.278 -0.2886  0.7145 -1.3358
 3927WAT    EPW16416   6.739   7.795   0.289  0.1047  0.5293 -0.4311
 3928WAT      O16417   6.793   2.146   2.402  0.0706 -0.4362 -0.8623
 3928WAT     H116418   6.834   2.215   2.369  1.5934 -1.7680 -1.9076
 3928WAT     H216419   6.805   2.155   2.488  0.3656  0.5271 -0.9940
 3928WAT    EPW16420   6.801   2.158   2.410 -0.4549  0.0858 -0.5336
 3929WAT      O16421   7.470   4.580   1.517 -0.2523 -0.4866 -0.3034
 3929WAT     H116422   7.430   4.649   1.481  2.2691  0.7901 -0.9023
 3929WAT     H216423   7.509   4.614   1.588  0.8778 -1.3199 -0.5026
 3929WAT    EPW16424   7.470   4.595   1.523  0.1168 -0.6384  0.0934
 3930WAT      O16425   3.171   6.558   2.920 -0.1753  0.4386  0.3027
 3930WAT     H116426   3.212   6.540   2.994 -0.1583  0.9684  0.4285
 3930WAT     H216427   3.108   6.498   2.916  1.9155 -1.8440 -1.0162
 3930WAT    EPW16428   3.168   6.547   2.930  0.1576  0.6548  0.6723
 3931WAT      O16429   5.669   7.281   5.671  0.3863 -0.1740  0.1718
 3931WAT     H116430   5.644   7.300   5.753 -0.9172 -0.0133 -0.2345
 3931WAT     H216431   5.736   7.227   5.682 -0.2042 -0.7126  1.3682
 3931WAT    EPW16432   5.675   7.276   5.685 -0.1006  0.1490 -0.3167
 3932WAT      O16433   5.993   3.451   2.607  1.0556 -0.0658  0.1213
 3932WAT     H116434   5.964   3.519   2.560  0.9222  0.5823  1.1201
 3932WAT     H216435   5.921   3.404   2.620  1.2858 -0.8649 -1.2698
 3932WAT    EPW16436   5.978   3.454   2.602  0.1280  0.6807  0.1417
 3933WAT      O16437   5.882   5.729   2.316 -0.0849 -0.2049  0.0012
 3933WAT     H116438   5.908   5.801   2.273  1.5380 -1.6510 -1.6335
 3933WAT     H216439   5.806   5.709   2.279 -0.9075  1.0555  0.9788
 3933WAT    EPW16440   5.875   5.737   2.304  0.4701 -0.3487 -0.1807
 3934WAT      O16441   4.610   5.814   5.649  0.2537  0.4213 -0.1080
 3934WAT     H116442   4.660   5.783   5.585 -0.4519 -1.0380  0.0051
 3934WAT     H216443   4.550   5.861   5.606 -1.1133 -1.7417 -0.7597
 3934WAT    EPW16444   4.608   5.817   5.633  0.0442  0.0536  0.5238
 3935WAT      O16445   4.367   2.289   2.939 -0.1760  0.1005 -0.1575
 3935WAT     H116446   4.430   2.320   2.886 -1.6802  0.9265 -1.5554
 3935WAT     H216447   4.302   2.347   2.930 -2.3095 -2.2359 -1.1993
 3935WAT    EPW16448   4.367   2.302   2.930 -0.6201 -0.7678 -0.1291
 3936WAT      O16449   4.741   3.470   0.550 -0.3274  0.0375 -0.3038
 3936WAT     H116450   4.664   3.469   0.590 -0.3243 -1.4742 -0.2985
 3936WAT     H216451   4.742   3.547   0.509 -1.9548 -0.0476 -0.5455
 3936WAT    EPW16452   4.730   3.481   0.550 -0.2847  0.2970 -0.3910
 3937WAT      O16453   6.630   1.106   2.991 -0.5658  0.3582  0.8931
 3937WAT     H116454   6.609   1.064   3.064  0.5552 -0.5015  0.7480
 3937WAT     H216455   6.634   1.189   3.016  2.8071 -0.1779  2.6434
 3937WAT    EPW16456   6.628   1.112   3.006 -0.2091  0.6208  0.0589
 3938WAT      O16457   2.937   5.045   6.849 -0.0633 -0.3498  0.0440
 3938WAT     H116458   2.993   5.036   6.783  0.0659 -0.1335  0.1235
 3938WAT     H216459   2.912   5.128   6.844 -0.1910 -0.3814  0.1587
 3938WAT    EPW16460   2.942   5.056   6.839  0.0672  0.8799 -0.2960
 3939WAT      O16461   4.450   4.912   2.946  0.1824  0.2111  0.0812
 3939WAT     H116462   4.433   4.994   2.920  1.3920  0.2646 -0.6229
 3939WAT     H216463   4.503   4.881   2.884 -0.1973 -1.0891  0.3815
 3939WAT    EPW16464   4.456   4.920   2.933  0.6722  0.4968 -0.1000
 3940WAT      O16465   4.306   0.613   1.090  0.2348  0.4281  0.0600
 3940WAT     H116466   4.339   0.602   1.010  0.6328  1.4390  0.0636
 3940WAT     H216467   4.246   0.675   1.080 -0.7669 -0.4693  0.2992
 3940WAT    EPW16468   4.302   0.620   1.077 -0.1190 -0.2544 -0.5906
 3941WAT      O16469   5.700   1.362   2.402 -0.0870  0.2462  0.5484
 3941WAT     H116470   5.742   1.363   2.479  0.4702  0.0372  0.2550
 3941WAT     H216471   5.719   1.441   2.369  0.2318  0.0822  0.3355
 3941WAT    EPW16472   5.709   1.374   2.409 -0.3375 -0.0380  0.0457
 3942WAT      O16473   6.047   0.242   0.202  0.1188  0.2809 -0.6684
 3942WAT     H116474   5.986   0.232   0.140 -0.5678 -0.6493  0.1273
 3942WAT     H216475   6.093   0.310   0.174 -0.1479 -0.1404 -2.2244
 3942WAT    EPW16476   6.045   0.251   0.189 -0.0094  0.2740  0.5031
 3943WAT      O16477   1.788   0.376   1.686 -0.1445  0.0845 -0.4137
 3943WAT     H116478   1.704   0.355   1.691 -0.3412  0.3588 -2.1035
 3943WAT     H216479   1.788   0.463   1.694 -0.3350  0.3846 -2.8592
 3943WAT    EPW16480   1.776   0.386   1.688 -0.7197 -0.2795  0.3969
 3944WAT      O16481   6.492   3.316   4.207 -0.5728 -0.1532  0.0495
 3944WAT     H116482   6.500   3.229   4.205  0.6756 -0.0547 -1.4779
 3944WAT     H216483   6.414   3.331   4.171 -0.7216 -0.6406  0.1678
 3944WAT    EPW16484   6.482   3.306   4.201 -0.4166 -0.2317  0.3829
 3945WAT      O16485   2.756   4.233   0.084  0.8558  0.0862 -0.6378
 3945WAT     H116486   2.735   4.315   0.064  0.3498  0.3355  0.7977
 3945WAT     H216487   2.765   4.194   0.007  0.7588  1.4027 -1.3296
 3945WAT    EPW16488   2.755   4.239   0.070  0.1040 -0.8554 -0.2365
 3946WAT      O16489   7.138   0.949   1.475 -0.0505 -0.0913  0.3491
 3946WAT     H116490   7.209   0.994   1.450 -0.6377 -0.4804 -2.2687
 3946WAT     H216491   7.126   0.974   1.558  1.4052  2.2286 -0.0639
 3946WAT    EPW16492   7.147   0.959   1.484  0.1995 -0.4399 -0.6732
 3947WAT      O16493   3.445   3.339   7.082  0.3688  0.8741  0.0170
 3947WAT     H116494   3.439   3.298   7.159 -0.6544 -0.0505 -0.5191
 3947WAT     H216495   3.504   3.292   7.039 -0.6154  0.0778 -0.5051
 3947WAT    EPW16496   3.453   3.326   7.087 -0.1357  0.2325  0.1452
 3948WAT      O16497   7.123   4.463   3.667  0.0602  0.2825  0.1638
 3948WAT     H116498   7.043   4.435   3.645 -0.1679  2.4324 -2.1625
 3948WAT     H216499   7.108   4.517   3.734 -0.5382  1.0938 -0.6027
 3948WAT    EPW16500   7.109   4.467   3.674 -0.7366 -0.2292 -0.4596
 3949WAT      O16501   5.711   5.965   1.177 -0.2358  0.0351 -0.4123
 3949WAT     H116502   5.693   5.928   1.100 -0.0595 -0.4316 -0.2348
 3949WAT     H216503   5.637   6.006   1.198 -0.5555 -0.5176 -0.4485
 3949WAT    EPW16504   5.697   5.966   1.169  0.5619 -0.4567 -0.4694
 3950WAT      O16505   4.332   7.503   7.745  0.1190 -0.5483  0.4195
 3950WAT     H116506   4.386   7.456   7.795  0.1058 -0.2428  0.7299
 3950WAT     H216507   4.291   7.443   7.697  0.4697 -0.8130  0.4439
 3950WAT    EPW16508   4.334   7.487   7.745  0.6303 -0.0598 -0.1948
 3951WAT      O16509   4.694   4.472   7.891  0.2888  0.3178 -0.0535
 3951WAT     H116510   4.725   4.392   7.873  2.3990  0.7435  1.2581
 3951WAT     H216511   4.657   4.461   7.970 -2.4157 -0.0035 -1.2647
 3951WAT    EPW16512   4.693   4.459   7.900  0.2732  0.2691 -0.1853
 3952WAT      O16513   1.003   2.020   4.531  0.2213  0.3094 -0.2059
 3952WAT     H116514   0.931   2.046   4.488  1.4090  1.4034 -1.6738
 3952WAT     H216515   1.022   1.943   4.494 -0.6029 -0.3735  0.7442
 3952WAT    EPW16516   0.995   2.012   4.519  0.3684  0.5121 -0.2108
 3953WAT      O16517   3.192   7.661   3.594 -0.7541  0.0735 -0.3204
 3953WAT     H116518   3.270   7.670   3.555  0.8715  1.4471  2.8385
 3953WAT     H216519   3.141   7.718   3.553  0.4788  0.5676 -1.2251
 3953WAT    EPW16520   3.196   7.671   3.582 -0.3091  0.6605 -0.8526
 3954WAT      O16521   4.510   2.302   1.103  0.0008  0.9564 -0.2237
 3954WAT     H116522   4.449   2.260   1.149 -0.2457 -0.3269 -1.6684
 3954WAT     H216523   4.464   2.352   1.048  0.2616  0.6157 -0.7550
 3954WAT    EPW16524   4.494   2.303   1.102  0.5703 -0.0235 -0.1102
 3955WAT      O16525   2.644   4.873   0.595  0.6108  0.1195 -0.4931
 3955WAT     H116526   2.572   4.879   0.546  1.7394 -0.3274 -2.3003
 3955WAT     H216527   2.635   4.938   0.653 -0.1398  1.6163 -2.1890
 3955WAT    EPW16528   2.632   4.883   0.596 -0.0199 -0.3099  0.1607
 3956WAT      O16529   6.673   2.105   4.093  0.4008  0.0336  0.1116
 3956WAT     H116530   6.604   2.059   4.121  0.4955 -0.4463 -0.4256
 3956WAT     H216531   6.687   2.162   4.158 -1.3876  1.1290 -0.3792
 3956WAT    EPW16532   6.665   2.107   4.107 -0.2753  0.2110  0.2849
 3957WAT      O16533   6.645   1.755   1.487 -0.2161 -0.7623  0.3598
 3957WAT     H116534   6.659   1.676   1.520  0.5495 -0.8358 -0.1267
 3957WAT     H216535   6.671   1.749   1.405  2.6582  0.7412  1.0223
 3957WAT    EPW16536   6.651   1.743   1.480  0.0597 -0.4556  0.0386
 3958WAT      O16537   5.101   4.623   0.072  0.2430 -0.3392 -0.4113
 3958WAT     H116538   5.046   4.578   0.021  0.7947  0.0632 -1.3949
 3958WAT     H216539   5.166   4.567   0.086  0.4359 -0.2010 -0.7581
 3958WAT    EPW16540   5.102   4.608   0.067 -0.0815  0.5109  0.2756
 3959WAT      O16541   3.471   2.209   1.446  0.4706  0.9750  0.1818
 3959WAT     H116542   3.451   2.132   1.410 -0.3783  0.3812  1.8268
 3959WAT     H216543   3.426   2.209   1.520 -0.1850  3.4153 -0.1380
 3959WAT    EPW16544   3.462   2.197   1.451  0.5374 -0.1188  0.3719
 3960WAT      O16545   0.539   5.439   4.590 -0.2132 -0.1821  0.5247
 3960WAT     H116546   0.573   5.398   4.659 -0.8574 -1.0293  0.3622
 3960WAT     H216547   0.453   5.420   4.595 -0.0667 -1.7368 -1.4143
 3960WAT    EPW16548   0.531   5.430   4.601  0.1966 -0.3805  0.0526
 3961WAT      O16549   2.335   3.332   2.092 -0.2110  0.7548  0.0936
 3961WAT     H116550   2.398   3.390   2.077  0.5271 -0.1221 -0.2789
 3961WAT     H216551   2.266   3.366   2.051  0.7848  0.2857 -2.0728
 3961WAT    EPW16552   2.334   3.346   2.084  0.6116  0.1313  0.1754
 3962WAT      O16553   7.589   5.823   1.951 -0.1792 -0.4663 -0.5175
 3962WAT     H116554   7.575   5.873   1.882  0.4656  0.5070  0.0237
 3962WAT     H216555   7.535   5.756   1.940 -1.6935  0.7469 -0.8626
 3962WAT    EPW16556   7.579   5.821   1.939 -0.3778  0.0977 -0.0834
 3963WAT      O16557   0.059   8.063   1.766 -0.3707  0.3844 -0.1781
 3963WAT     H116558   0.132   8.020   1.784  0.1155  1.4886  0.6028
 3963WAT     H216559  -0.001   8.000   1.760  0.4156 -0.4394  0.3456
 3963WAT    EPW16560   0.061   8.048   1.768  0.1020 -0.4984 -0.3511
 3964WAT      O16561   6.497   2.549   3.983  0.5693  0.1541 -0.3337
 3964WAT     H116562   6.419   2.587   3.971 -2.0160 -4.0281  1.0161
 3964WAT     H216563   6.491   2.476   3.936  2.3416 -1.8729  2.3606
 3964WAT    EPW16564   6.485   2.544   3.974  0.0319 -0.5385  0.0031
 3965WAT      O16565   5.515   5.109   2.627 -0.2826  0.2156  0.2064
 3965WAT     H116566   5.520   5.114   2.540  0.4176 -2.1453  0.0491
 3965WAT     H216567   5.569   5.172   2.654 -0.4665  0.9434 -1.0375
 3965WAT    EPW16568   5.523   5.119   2.618  0.7222 -0.1342 -0.4137
 3966WAT      O16569   4.118   2.136   7.858 -0.3459 -0.2535 -0.4481
 3966WAT     H116570   4.157   2.136   7.936 -1.5845  0.4871  0.2111
 3966WAT     H216571   4.033   2.131   7.878 -0.8007  1.6839 -1.6266
 3966WAT    EPW16572   4.112   2.136   7.873 -0.0199  0.6808 -0.1627
 3967WAT      O16573   3.860   4.128   0.726  0.0356 -0.0664 -0.3554
 3967WAT     H116574   3.793   4.090   0.767 -0.6744  1.0314 -0.4588
 3967WAT     H216575   3.822   4.183   0.670  1.0171  0.8328 -0.1745
 3967WAT    EPW16576   3.845   4.131   0.724 -0.1828 -0.3416  0.2693
 3968WAT      O16577   4.987   1.838   2.119  0.0719  0.4175  0.0567
 3968WAT     H116578   4.955   1.758   2.133  0.7265  0.3782  1.5000
 3968WAT     H216579   4.942   1.889   2.174  0.7974  0.7479  0.3647
 3968WAT    EPW16580   4.976   1.834   2.129  0.4735 -0.2148  0.2128
 3969WAT      O16581   5.297   7.081   2.710  0.4849  0.3412  0.1812
 3969WAT     H116582   5.368   7.129   2.699  0.0448  1.2550  1.1854
 3969WAT     H216583   5.298   7.061   2.795  0.9387 -1.9148 -0.2986
 3969WAT    EPW16584   5.307   7.085   2.721  0.0386 -0.1501  0.6191
 3970WAT      O16585   6.892   5.069   0.784  0.5842  0.0808 -0.3736
 3970WAT     H116586   6.889   5.124   0.717 -2.6966  0.1531 -0.2946
 3970WAT     H216587   6.891   4.990   0.747  0.6934  0.1019 -0.4223
 3970WAT    EPW16588   6.892   5.065   0.769 -0.1533 -0.1111 -0.4208
 3971WAT      O16589   7.501   3.552   2.468 -0.0838 -0.0647 -0.0677
 3971WAT     H116590   7.455   3.579   2.398 -0.8923 -0.0838  0.4417
 3971WAT     H216591   7.444   3.504   2.512  0.4473 -0.1154  0.5692
 3971WAT    EPW16592   7.486   3.549   2.464  0.3402 -0.1978 -0.1225
 3972WAT      O16593   7.474   6.421   3.885 -0.0175 -0.3140  0.1083
 3972WAT     H116594   7.409   6.463   3.845  0.0063  1.0573  1.4184
 3972WAT     H216595   7.433   6.360   3.932 -0.5458  1.3818  1.9585
 3972WAT    EPW16596   7.458   6.418   3.886  0.1012  0.0972  0.0532
 3973WAT      O16597   7.278   6.530   3.721 -0.0255 -0.7772 -0.6224
 3973WAT     H116598   7.191   6.530   3.718 -0.1431  1.0194  0.7745
 3973WAT     H216599   7.302   6.571   3.648 -0.3794 -0.5431 -0.6042
 3973WAT    EPW16600   7.269   6.536   3.710  0.2121  0.8604 -0.5006
 3974WAT      O16601   3.790   7.503   1.888  0.2470  0.3058 -0.4218
 3974WAT     H116602   3.779   7.514   1.803 -0.7666  2.1320 -0.1049
 3974WAT     H216603   3.717   7.463   1.914 -0.0553  0.9670 -0.2279
 3974WAT    EPW16604   3.777   7.499   1.879  0.4405  0.2973  0.6370
 3975WAT      O16605   6.380   5.586   3.061  0.2205 -0.0191 -0.2136
 3975WAT     H116606   6.334   5.618   2.995 -0.8115 -1.6473 -0.3500
 3975WAT     H216607   6.363   5.640   3.127  0.2131  0.8749 -0.9409
 3975WAT    EPW16608   6.370   5.598   3.061  0.0222 -0.0920 -0.1238
 3976WAT      O16609   4.814   1.326   1.088 -0.5931  0.3313  0.6575
 3976WAT     H116610   4.777   1.401   1.065 -1.5679 -0.6121 -1.0195
 3976WAT     H216611   4.806   1.325   1.175 -0.8857  1.9770  0.6774
 3976WAT    EPW16612   4.807   1.337   1.097  0.0612 -0.0276  0.3096
 3977WAT      O16613   4.127   6.679   3.073  0.0651 -0.4021  0.1492
 3977WAT     H116614   4.107   6.598   3.098  1.3917 -1.4726 -1.9595
 3977WAT     H216615   4.203   6.669   3.032 -0.7229  1.5660 -1.9816
 3977WAT    EPW16616   4.135   6.666   3.071  0.4223 -0.1213  0.9156
 3978WAT      O16617   6.128   5.573   4.174  0.2573  0.2318  0.4425
 3978WAT     H116618   6.103   5.566   4.091  1.7546  0.6218 -0.0882
 3978WAT     H216619   6.158   5.655   4.179 -0.5191  0.4556  1.5798
 3978WAT    EPW16620   6.129   5.584   4.162  0.9124 -0.0984 -0.1238
 3979WAT      O16621   3.138   5.320   0.169  0.1342  0.0231  0.1868
 3979WAT     H116622   3.059   5.326   0.134 -0.6462  1.2125  1.9718
 3979WAT     H216623   3.192   5.316   0.100 -1.3595  0.9638 -1.0933
 3979WAT    EPW16624   3.135   5.320   0.154  0.2235  0.7571 -0.3618
 3980WAT      O16625   0.129   3.431   4.099  0.1711 -0.4167 -0.1384
 3980WAT     H116626   0.074   3.499   4.092 -3.9200 -3.1375  1.5561
 3980WAT     H216627   0.123   3.392   4.022  0.5491 -0.1845 -0.2867
 3980WAT    EPW16628   0.120   3.435   4.087  0.0568 -0.4667 -0.4057
 3981WAT      O16629   0.172   2.593   2.637 -0.4692 -0.3658 -0.4044
 3981WAT     H116630   0.255   2.620   2.630 -0.7502  0.5066 -0.4600
 3981WAT     H216631   0.176   2.533   2.700  0.0765  0.2420  0.1587
 3981WAT    EPW16632   0.185   2.588   2.645 -0.5056 -0.0229 -0.0835
 3982WAT      O16633   6.878   1.180   2.176 -0.3111  0.5796 -0.3412
 3982WAT     H116634   6.846   1.240   2.230 -3.8457 -1.7355  0.4704
 3982WAT     H216635   6.844   1.105   2.206  1.9511 -1.5561 -2.6355
 3982WAT    EPW16636   6.868   1.178   2.188 -0.0178 -0.0214  0.5146
 3983WAT      O16637   0.751   6.303   5.067 -0.1408 -0.1471 -0.1612
 3983WAT     H116638   0.730   6.244   5.008  0.6964 -0.7244  0.0938
 3983WAT     H216639   0.806   6.356   5.025 -1.1858  0.7077 -0.5051
 3983WAT    EPW16640   0.756   6.302   5.052 -0.1326 -0.1385  0.9023
 3984WAT      O16641   5.035   5.958   2.760  0.0421 -0.4332 -0.0707
 3984WAT     H116642   5.046   5.873   2.743  1.2863 -0.1925 -0.6137
 3984WAT     H216643   5.021   5.993   2.681  0.9251  0.0447 -0.0264
 3984WAT    EPW16644   5.035   5.951   2.746 -0.1534 -0.7361  0.5862
 3985WAT      O16645   6.770   3.002   3.221 -0.2721 -0.5975  0.0567
 3985WAT     H116646   6.760   3.075   3.268 -1.2472 -0.3549 -0.4817
 3985WAT     H216647   6.832   3.023   3.164  1.8916 -1.3284  2.0039
 3985WAT    EPW16648   6.778   3.016   3.220 -0.5218  0.1320 -0.3947
 3986WAT      O16649   5.351   1.771   1.857  0.5179 -0.1892 -0.6286
 3986WAT     H116650   5.347   1.707   1.798 -0.3962 -1.0025  0.2546
 3986WAT     H216651   5.390   1.733   1.925 -0.2316  0.1004 -0.0165
 3986WAT    EPW16652   5.356   1.756   1.858 -0.0823 -0.1994  0.3252
 3987WAT      O16653   5.929   1.799   7.404 -0.2651  0.1271  0.4414
 3987WAT     H116654   5.921   1.720   7.440 -0.6758 -0.0560 -0.0437
 3987WAT     H216655   5.948   1.850   7.472  0.6313 -0.4847  0.6715
 3987WAT    EPW16656   5.931   1.795   7.420 -0.1028 -0.1465 -0.3644
 3988WAT      O16657   1.018   4.760   1.186  0.2014  0.0073 -0.4857
 3988WAT     H116658   0.958   4.757   1.123  0.9640  1.5389 -1.3527
 3988WAT     H216659   1.085   4.715   1.154 -0.9111 -3.1147  1.1290
 3988WAT    EPW16660   1.019   4.753   1.172  0.3105 -0.2068 -0.0414
 3989WAT      O16661   1.790   4.949   5.319  0.3629 -0.2904 -0.3424
 3989WAT     H116662   1.857   4.988   5.357  0.8417 -0.3953 -1.0587
 3989WAT     H216663   1.737   5.015   5.296  1.3559  0.0160 -1.9118
 3989WAT    EPW16664   1.792   4.964   5.321 -0.0909 -0.2491 -0.0116
 3990WAT      O16665   7.272   2.883   1.481 -0.0971  0.3569  0.2563
 3990WAT     H116666   7.192   2.901   1.450 -0.3275 -0.2936  0.4403
 3990WAT     H216667   7.321   2.875   1.410 -0.2920  0.3543  0.1216
 3990WAT    EPW16668   7.267   2.884   1.466 -0.2113 -0.0809 -0.7021
 3991WAT      O16669   0.488   6.849   0.912  0.1915 -0.0618  0.5524
 3991WAT     H116670   0.554   6.882   0.865 -0.1473  3.6842  2.2911
 3991WAT     H216671   0.426   6.834   0.853  1.0449  0.9032 -0.6413
 3991WAT    EPW16672   0.489   6.852   0.897 -0.1741 -0.0439 -0.7063
 3992WAT      O16673   7.000   3.918   3.778  0.0201  0.3206 -0.2218
 3992WAT     H116674   6.998   3.953   3.858 -1.2709  0.6172 -0.3513
 3992WAT     H216675   6.955   3.975   3.730 -0.4974 -0.5860 -0.8386
 3992WAT    EPW16676   6.993   3.931   3.783  0.6837 -0.3010 -0.4316
 3993WAT      O16677   0.524   6.176   2.648  0.1893  0.1976 -0.5367
 3993WAT     H116678   0.482   6.127   2.590  0.7570 -0.7206 -0.1816
 3993WAT     H216679   0.491   6.256   2.635 -0.3671 -0.1753 -1.4680
 3993WAT    EPW16680   0.513   6.181   2.638  0.1342 -1.0603 -0.0374
 3994WAT      O16681   7.964   4.684   3.840 -0.2103  0.2773 -0.1326
 3994WAT     H116682   7.947   4.770   3.839  0.3420  0.3883 -0.0608
 3994WAT     H216683   7.901   4.651   3.789 -2.2659  0.3601  2.1706
 3994WAT    EPW16684   7.952   4.692   3.832 -0.4498  0.5372  0.1415
 3995WAT      O16685   4.076   4.071   1.282 -0.2675  0.2736 -0.0692
 3995WAT     H116686   3.990   4.077   1.293 -0.3173 -0.9176  0.2629
 3995WAT     H216687   4.086   4.073   1.195 -0.5116  1.5989 -0.0907
 3995WAT    EPW16688   4.065   4.072   1.271 -0.2402 -0.1426 -0.1781
 3996WAT      O16689   3.456   1.019   1.297 -0.6058  0.2705  0.1135
 3996WAT     H116690   3.430   1.055   1.221 -1.8412  0.9305  0.8100
 3996WAT     H216691   3.386   1.027   1.348 -0.1423 -1.1081  1.0217
 3996WAT    EPW16692   3.442   1.026   1.293 -0.6148  0.1153  0.3129
 3997WAT      O16693   5.481   5.247   0.602 -0.2405  0.1556  0.1788
 3997WAT     H116694   5.403   5.208   0.605 -0.4941  0.4030 -2.0186
 3997WAT     H216695   5.470   5.317   0.654 -1.8284  0.7166 -0.8427
 3997WAT    EPW16696   5.468   5.252   0.610 -0.4167 -0.6316  0.0711
 3998WAT      O16697   7.074   3.757   0.773 -0.1702 -0.0057  0.2041
 3998WAT     H116698   7.153   3.725   0.755  0.2706  0.5648  1.0738
 3998WAT     H216699   7.056   3.806   0.703 -0.3304 -1.1519 -0.5812
 3998WAT    EPW16700   7.083   3.759   0.760  1.0665 -1.1536 -0.1641
 3999WAT      O16701   4.916   5.354   2.111 -0.2128 -0.0504 -0.3597
 3999WAT     H116702   4.921   5.319   2.031 -0.2269 -1.5381  0.2619
 3999WAT     H216703   4.834   5.386   2.115  1.2192  5.0496 -2.8280
 3999WAT    EPW16704   4.904   5.354   2.100 -0.2547 -0.3336  0.3156
 4000WAT      O16705   1.536   5.157   3.104 -0.6582  0.2488 -0.0587
 4000WAT     H116706   1.497   5.163   3.181  0.1070 -1.2459  0.4997
 4000WAT     H216707   1.479   5.192   3.049 -1.2654  1.2539  1.1598
 4000WAT    EPW16708   1.522   5.163   3.107 -0.7462 -0.2195  0.1187
 4001WAT      O16709   5.068   2.270   0.069 -0.3421 -0.4834  0.2496
 4001WAT     H116710   5.023   2.216   0.121 -2.4232  0.9237  0.0573
 4001WAT     H216711   5.079   2.224  -0.004 -1.3172 -0.9671  0.3847
 4001WAT    EPW16712   5.063   2.255   0.066  0.1830 -0.6392  0.6192
 4002WAT      O16713   4.668   4.171   1.608 -0.1759  0.3088 -0.0741
 4002WAT     H116714   4.654   4.093   1.645  0.8240 -0.0111 -0.3379
 4002WAT     H216715   4.610   4.175   1.544 -0.0090 -0.3696 -0.2700
 4002WAT    EPW16716   4.657   4.160   1.604 -0.1090 -0.7308 -0.4907
 4003WAT      O16717   4.099   4.408   2.785  0.0815 -0.4150  0.2295
 4003WAT     H116718   4.037   4.458   2.820  2.6329  2.0190  1.6262
 4003WAT     H216719   4.116   4.349   2.848  0.5030  0.1394  0.6391
 4003WAT    EPW16720   4.092   4.406   2.799 -0.3800  0.0192  0.1495
 4004WAT      O16721   5.441   6.713   3.511  0.3351 -0.2289 -0.2349
 4004WAT     H116722   5.444   6.743   3.429  1.2359 -0.3044 -0.2489
 4004WAT     H216723   5.423   6.783   3.559 -1.1061 -0.3518 -0.5665
 4004WAT    EPW16724   5.439   6.728   3.506  0.5174  0.8790 -0.5367
 4005WAT      O16725   4.670   7.193   5.206 -0.4333  0.1684 -0.5479
 4005WAT     H116726   4.660   7.109   5.184 -1.5026 -0.1258  0.9341
 4005WAT     H216727   4.694   7.189   5.290 -1.1475  1.3632 -0.2703
 4005WAT    EPW16728   4.672   7.180   5.215 -0.2100 -0.1495 -0.2638
 4006WAT      O16729   2.910   0.969   3.780 -0.0448 -0.0740  0.3520
 4006WAT     H116730   2.899   1.038   3.727  0.3696 -0.0414  0.3057
 4006WAT     H216731   2.830   0.935   3.786 -0.0154 -0.3767 -0.7165
 4006WAT    EPW16732   2.896   0.974   3.773 -0.5778 -0.0089 -0.2418
 4007WAT      O16733   5.492   7.628   3.686  0.1251 -0.3606 -0.2789
 4007WAT     H116734   5.517   7.554   3.646  0.8392  0.6886 -1.8796
 4007WAT     H216735   5.465   7.601   3.764 -1.2626 -2.5471 -1.4107
 4007WAT    EPW16736   5.492   7.613   3.692 -0.1795 -0.0785 -0.0202
 4008WAT      O16737   5.476   4.483   1.890  0.5321 -0.2134 -0.4002
 4008WAT     H116738   5.506   4.541   1.948 -1.6069  1.0467 -0.4408
 4008WAT     H216739   5.498   4.517   1.813  1.3355 -0.7124 -0.4110
 4008WAT    EPW16740   5.484   4.496   1.887  1.0806 -0.2435  0.1783
 4009WAT      O16741   5.336   7.462   1.804 -0.2797 -0.3554  1.0070
 4009WAT     H116742   5.286   7.503   1.746 -1.1452 -0.5250  1.6273
 4009WAT     H216743   5.392   7.524   1.830  0.5380 -0.4491 -0.4670
 4009WAT    EPW16744   5.337   7.478   1.800 -0.0774 -0.0887 -0.4436
 4010WAT      O16745   8.031   7.592   2.302 -0.7523 -0.4869  0.5979
 4010WAT     H116746   8.114   7.608   2.281 -0.6878 -1.9914 -0.4746
 4010WAT     H216747   8.032   7.589   2.389  0.5464 -1.5260  0.5693
 4010WAT    EPW16748   8.043   7.594   2.312  0.2202 -0.1721  0.2717
 4011WAT      O16749   0.891   3.609   3.303  0.1165 -0.4290 -0.1046
 4011WAT     H116750   0.911   3.678   3.254 -0.9929 -1.2084 -1.7452
 4011WAT     H216751   0.908   3.635   3.385  0.3316  1.5287 -0.7456
 4011WAT    EPW16752   0.897   3.623   3.308  0.7593  0.0073 -0.0835
 4012WAT      O16753   1.252   0.327   0.292 -0.5389 -0.0370  0.0267
 4012WAT     H116754   1.271   0.346   0.375  0.2505 -1.2149  0.1294
 4012WAT     H216755   1.255   0.240   0.289  0.1103 -0.0019 -1.3781
 4012WAT    EPW16756   1.255   0.317   0.304 -0.8802  0.3786 -0.4153
 4013WAT      O16757   5.720   5.630   4.486 -0.4792 -0.0521 -0.4407
 4013WAT     H116758   5.658   5.647   4.427 -0.1431 -0.5491 -0.9574
 4013WAT     H216759   5.677   5.618   4.560 -0.8019  2.1467 -0.2199
 4013WAT    EPW16760   5.705   5.630   4.488 -0.0411 -0.2277  0.7282
 4014WAT      O16761   2.600   2.625   1.514 -0.0881  0.8042 -0.1952
 4014WAT     H116762   2.558   2.671   1.575 -0.4785 -0.5784  0.6139
 4014WAT     H216763   2.683   2.648   1.524  0.0164 -0.2405  1.6492
 4014WAT    EPW16764   2.606   2.635   1.524 -0.0463 -0.3387 -0.1456
 4015WAT      O16765   6.125   4.881   3.245 -0.3936  0.1316  0.6132
 4015WAT     H116766   6.115   4.924   3.169  1.2267  0.5555  0.5999
 4015WAT     H216767   6.044   4.867   3.271 -0.9825  1.0827 -0.5976
 4015WAT    EPW16768   6.112   4.885   3.237  0.5745  0.4190 -0.0994
 4016WAT      O16769   0.335   4.669   0.934  0.1811 -0.5013 -0.0741
 4016WAT     H116770   0.253   4.638   0.931  0.7653 -2.0368 -1.1848
 4016WAT     H216771   0.353   4.671   1.019 -0.7845 -0.7468  0.1518
 4016WAT    EPW16772   0.325   4.665   0.946 -0.6694 -0.3254  0.4504
 4017WAT      O16773   4.879   5.702   4.645 -0.7674  0.0193 -0.6624
 4017WAT     H116774   4.914   5.775   4.611 -0.9258  0.6974  0.5718
 4017WAT     H216775   4.795   5.707   4.620 -0.7568  0.2029 -0.6673
 4017WAT    EPW16776   4.872   5.714   4.636 -0.0321  0.8870  0.3798
 4018WAT      O16777   6.319   6.002   3.604  0.4757 -0.1387 -0.0249
 4018WAT     H116778   6.324   6.019   3.689  2.5484 -0.7980  0.0236
 4018WAT     H216779   6.385   6.048   3.569 -0.8917  0.8850 -1.4512
 4018WAT    EPW16780   6.329   6.012   3.611  0.1935 -0.0713  0.6053
 4019WAT      O16781   0.658   4.581   1.475  0.3928 -0.0818  0.0222
 4019WAT     H116782   0.694   4.655   1.447  0.2250 -0.7612 -2.2635
 4019WAT     H216783   0.572   4.597   1.471  0.3229 -0.6150 -1.3634
 4019WAT    EPW16784   0.650   4.594   1.470  0.3142  0.3255 -0.8057
 4020WAT      O16785   5.839   4.390   5.169 -0.3851 -0.2956 -0.9472
 4020WAT     H116786   5.873   4.458   5.126 -0.6538 -0.7467 -1.9207
 4020WAT     H216787   5.785   4.427   5.226  0.0553  0.3375 -0.9245
 4020WAT    EPW16788   5.836   4.406   5.171  0.2430  0.4604  0.0877
 4021WAT      O16789   3.962   5.016   4.084  0.1494  0.0231  0.2301
 4021WAT     H116790   3.950   4.935   4.113  1.7097 -0.5283 -0.5017
 4021WAT     H216791   4.036   5.041   4.123 -2.0382  2.5429  3.2849
 4021WAT    EPW16792   3.971   5.008   4.094  0.1899  0.1291 -0.6141
 4022WAT      O16793   2.500   1.812   4.602  0.1023 -0.0428  0.0662
 4022WAT     H116794   2.417   1.837   4.612 -0.0224 -0.7355  0.9531
 4022WAT     H216795   2.493   1.734   4.563  0.2867 -0.4775  0.8826
 4022WAT    EPW16796   2.486   1.804   4.598  0.3095 -0.1529 -0.5120
 4023WAT      O16797   7.751   0.243   0.546 -0.4114 -0.0071 -0.2582
 4023WAT     H116798   7.786   0.303   0.599  1.5151 -2.1966  1.1588
 4023WAT     H216799   7.728   0.179   0.600  1.2143 -2.1619 -1.9277
 4023WAT    EPW16800   7.753   0.242   0.561  0.2051  0.2789  0.0523
 4024WAT      O16801   0.096   1.623   4.976 -0.3926 -0.2935 -0.0156
 4024WAT     H116802   0.182   1.631   4.968 -0.2824 -0.4397  0.9423
 4024WAT     H216803   0.077   1.674   5.044 -0.7971 -1.7399  0.9997
 4024WAT    EPW16804   0.106   1.632   4.985 -0.3663 -0.8575 -0.5997
 4025WAT      O16805   5.321   6.041   2.801  0.1912  0.5613 -0.4140
 4025WAT     H116806   5.243   6.002   2.797  0.3367  0.3554 -1.8888
 4025WAT     H216807   5.376   5.981   2.770  0.6736  1.3195 -1.0738
 4025WAT    EPW16808   5.318   6.027   2.796  0.3120 -0.2671 -0.6111
 4026WAT      O16809   7.183   7.792   0.432 -0.1930 -0.0033  0.4856
 4026WAT     H116810   7.223   7.719   0.458  2.9109  1.5279  0.5067
 4026WAT     H216811   7.171   7.780   0.346 -0.6461 -0.9075  0.6691
 4026WAT    EPW16812   7.187   7.779   0.423 -0.1417 -0.3466 -0.8336
 4027WAT      O16813   7.585   0.365   3.348  0.0076 -0.0755 -0.9713
 4027WAT     H116814   7.563   0.312   3.414 -0.7851  1.0529 -0.2958
 4027WAT     H216815   7.665   0.337   3.325  0.0809 -0.8293  0.1136
 4027WAT    EPW16816   7.594   0.353   3.355  0.6370 -0.0316 -0.0327
 4028WAT      O16817   6.965   3.483   2.044  0.5916 -0.2600  0.3327
 4028WAT     H116818   7.028   3.484   1.984  0.2406 -0.2844 -0.0434
 4028WAT     H216819   6.892   3.478   1.997  0.3132 -0.3698  0.7664
 4028WAT    EPW16820   6.963   3.482   2.029  0.2859 -0.5140 -0.0410
 4029WAT      O16821   5.754   5.169   2.042  0.8707 -0.5629 -0.2150
 4029WAT     H116822   5.787   5.158   1.962  0.4876 -3.0220 -0.1348
 4029WAT     H216823   5.722   5.090   2.062 -0.8724  0.4917  1.5767
 4029WAT    EPW16824   5.754   5.155   2.033  0.2284  0.6169 -0.0696
 4030WAT      O16825   7.228   4.339   1.626  0.0667  0.3553  0.2797
 4030WAT     H116826   7.161   4.282   1.626  0.4397 -0.0894  0.6811
 4030WAT     H216827   7.191   4.414   1.602 -0.7489  0.2980  1.2653
 4030WAT    EPW16828   7.212   4.341   1.623  1.1881 -0.7723 -0.3544
 4031WAT      O16829   7.031   4.392   4.021  0.3232 -0.8354 -0.9771
 4031WAT     H116830   6.960   4.355   3.987 -1.4023  0.9701  0.4011
 4031WAT     H216831   7.039   4.354   4.098 -2.3844  2.2696  1.1438
 4031WAT    EPW16832   7.022   4.381   4.027 -0.0205 -0.6368  0.7677
 4032WAT      O16833   2.015   4.312   2.124 -0.1860  0.3209 -0.2688
 4032WAT     H116834   1.997   4.276   2.201 -0.1442 -1.4394 -1.0356
 4032WAT     H216835   2.027   4.243   2.071  1.3525  1.4489 -1.4983
 4032WAT    EPW16836   2.014   4.297   2.127 -0.3511 -0.6502  0.2956
 4033WAT      O16837   1.200   4.946   3.709  0.3700  0.1240  0.0367
 4033WAT     H116838   1.177   5.030   3.712  1.8357  0.5438  0.4323
 4033WAT     H216839   1.287   4.949   3.698  0.6571 -1.3097  1.5384
 4033WAT    EPW16840   1.210   4.959   3.708 -0.0573 -0.7246 -0.5486
 4034WAT      O16841   3.858   6.825   1.495 -0.0326  0.4655  0.1933
 4034WAT     H116842   3.811   6.899   1.490 -0.6111  0.1008  0.1432
 4034WAT     H216843   3.825   6.785   1.565  0.0425  0.0969  0.0197
 4034WAT    EPW16844   3.846   6.830   1.505 -0.1836 -0.0855 -0.5422
 4035WAT      O16845   6.078   5.557   2.433 -0.0212  0.4002  0.4746
 4035WAT     H116846   6.015   5.603   2.395  1.3279 -0.1246 -2.6978
 4035WAT     H216847   6.058   5.561   2.518 -2.2212  3.2969 -0.0312
 4035WAT    EPW16848   6.066   5.565   2.440 -0.1575 -0.2153 -0.5589
 4036WAT      O16849   5.608   5.592   1.384  0.3892  0.0066  0.1598
 4036WAT     H116850   5.660   5.531   1.419  0.4066 -0.2876 -0.3613
 4036WAT     H216851   5.664   5.645   1.343  0.2347 -1.0171 -1.4875
 4036WAT    EPW16852   5.624   5.591   1.383 -0.0446 -0.2443 -0.3029
 4037WAT      O16853   4.307   5.113   3.944 -0.0389  0.2301 -0.5109
 4037WAT     H116854   4.283   5.105   4.027 -1.7791 -2.3324 -1.1549
 4037WAT     H216855   4.358   5.044   3.930  0.9039  1.0508 -1.4243
 4037WAT    EPW16856   4.311   5.102   3.954 -0.0038 -0.5250 -0.6082
 4038WAT      O16857   0.348   2.465   4.093 -0.2499  0.0561 -0.0811
 4038WAT     H116858   0.345   2.413   4.163  2.0313 -1.3054 -0.8746
 4038WAT     H216859   0.317   2.541   4.122 -0.9393 -0.9265  1.9242
 4038WAT    EPW16860   0.343   2.469   4.107  0.3435 -0.3522  0.4054
 4039WAT      O16861   5.091   0.574   2.281 -0.6444  0.5285  0.2869
 4039WAT     H116862   5.046   0.641   2.313  0.9524  1.6791  0.2167
 4039WAT     H216863   5.138   0.546   2.350 -0.6755  0.0095  0.1029
 4039WAT    EPW16864   5.091   0.580   2.296  0.6544  0.5951 -0.0403
 4040WAT      O16865   0.082   3.519   1.533  0.3357  0.1524  0.2825
 4040WAT     H116866   0.095   3.522   1.619 -0.2345  1.0686  0.3474
 4040WAT     H216867  -0.004   3.506   1.526  0.7187 -3.0581 -0.1521
 4040WAT    EPW16868   0.071   3.518   1.545  0.0190 -0.2341  0.0325
 4041WAT      O16869   5.473   4.561   6.737  0.0346 -0.1833  0.4357
 4041WAT     H116870   5.529   4.561   6.803  0.1330 -1.2713  0.3714
 4041WAT     H216871   5.432   4.638   6.745  1.4421  0.5928  0.5434
 4041WAT    EPW16872   5.475   4.573   6.748  0.7278  0.4818 -0.1457
 4042WAT      O16873   3.287   0.648   3.576  0.0613 -0.7562 -0.5205
 4042WAT     H116874   3.319   0.647   3.495 -0.3238 -0.2393 -0.6855
 4042WAT     H216875   3.271   0.564   3.592 -3.6055 -0.6866 -2.5486
 4042WAT    EPW16876   3.289   0.635   3.566 -0.2814 -0.1594 -0.1545
 4043WAT      O16877   1.424   3.697   5.861 -0.1417 -0.2583  0.3643
 4043WAT     H116878   1.442   3.651   5.789 -0.6477  0.3917 -0.1879
 4043WAT     H216879   1.337   3.707   5.857  0.0050  1.1172  0.2333
 4043WAT    EPW16880   1.413   3.691   5.850  0.0504  0.2811 -0.1106
 4044WAT      O16881   6.921   3.266   2.186  0.3543 -0.3490 -0.1897
 4044WAT     H116882   6.911   3.345   2.150  0.0962 -0.6560 -0.8050
 4044WAT     H216883   7.004   3.246   2.169 -0.5857 -1.9973 -3.8369
 4044WAT    EPW16884   6.932   3.275   2.178  0.1279  0.7890  0.2359
 4045WAT      O16885   5.277   4.100   6.834 -0.3162 -0.1143  0.8272
 4045WAT     H116886   5.350   4.139   6.863 -0.1122  1.9706 -2.1042
 4045WAT     H216887   5.216   4.127   6.889  0.9216 -1.4455  3.0070
 4045WAT    EPW16888   5.279   4.109   6.846 -0.1777  0.3933 -0.2416
 4046WAT      O16889   4.262   0.277   3.892  0.1857 -0.1846  0.4525
 4046WAT     H116890   4.302   0.281   3.969  0.1085 -1.0480  0.5465
 4046WAT     H216891   4.324   0.299   3.835  0.9034 -1.7477  0.5763
 4046WAT    EPW16892   4.277   0.281   3.895 -0.4653 -0.3655 -0.3690
 4047WAT      O16893   7.409   4.684   3.092  0.3042 -0.0073 -0.0348
 4047WAT     H116894   7.427   4.731   3.164 -0.8381 -0.9970  0.9437
 4047WAT     H216895   7.365   4.740   3.042  0.3488  0.4487  0.4254
 4047WAT    EPW16896   7.405   4.699   3.095  0.1491  0.7391 -0.2931
 4048WAT      O16897   7.586   2.148   0.281 -0.5328  0.0646 -0.1060
 4048WAT     H116898   7.563   2.063   0.284 -1.2968  0.2658 -0.1131
 4048WAT     H216899   7.663   2.150   0.323 -1.5351 -0.2898  1.8541
 4048WAT    EPW16900   7.594   2.135   0.287 -0.2352 -0.1310 -0.4724
 4049WAT      O16901   4.129   7.346   1.046 -0.3404 -1.2394  0.1273
 4049WAT     H116902   4.202   7.303   1.024  1.5062 -0.0438  3.2125
 4049WAT     H216903   4.092   7.296   1.107 -2.3944 -1.9802 -1.6127
 4049WAT    EPW16904   4.134   7.333   1.052 -0.7722 -0.5444  0.2304
 4050WAT      O16905   5.397   1.994   2.145  0.1006 -0.2665  0.7513
 4050WAT     H116906   5.398   2.044   2.216 -1.1474 -0.8475  1.1884
 4050WAT     H216907   5.354   2.043   2.086 -0.0560 -0.3381  0.8069
 4050WAT    EPW16908   5.391   2.009   2.147  0.3849 -0.3991 -0.1832
 4051WAT      O16909   3.294   1.144   2.491  0.0062 -0.0797  0.2444
 4051WAT     H116910   3.336   1.134   2.567  0.8823  0.4708 -0.1505
 4051WAT     H216911   3.236   1.207   2.507  0.7036  0.5719  0.2714
 4051WAT    EPW16912   3.292   1.151   2.504 -0.0642 -0.5012 -0.3456
 4052WAT      O16913   4.025   2.686   2.734  0.4493 -0.6316 -0.3938
 4052WAT     H116914   4.070   2.663   2.805 -0.3001  1.6234  0.9300
 4052WAT     H216915   3.965   2.740   2.765 -0.1068  0.2110 -2.7316
 4052WAT    EPW16916   4.023   2.691   2.749 -0.2389 -0.0478 -0.5865
 4053WAT      O16917   6.568   5.501   4.427  0.1428  0.0936 -0.1864
 4053WAT     H116918   6.518   5.478   4.359  0.5612  0.9595 -0.8057
 4053WAT     H216919   6.562   5.588   4.427 -0.1801  0.0897  1.1487
 4053WAT    EPW16920   6.559   5.511   4.417 -0.4401 -0.1125 -0.5155
 4054WAT      O16921   1.104   2.619   3.131 -0.1666 -0.1415  0.4284
 4054WAT     H116922   1.065   2.636   3.207 -1.2741  0.1215 -0.1677
 4054WAT     H216923   1.118   2.533   3.134 -0.7112 -0.2281  0.7101
 4054WAT    EPW16924   1.100   2.609   3.143 -0.4191  0.2247  0.4405
 4055WAT      O16925   5.734   1.363   0.968  0.8106  0.3959  0.1507
 4055WAT     H116926   5.692   1.294   0.935  0.7671 -0.0018  1.0195
 4055WAT     H216927   5.813   1.360   0.930  0.5223  0.3815 -0.4700
 4055WAT    EPW16928   5.739   1.352   0.957  0.4617  0.6882 -0.2126
 4056WAT      O16929   7.151   7.143   2.105 -0.3663 -0.2556  0.2948
 4056WAT     H116930   7.200   7.131   2.034  0.7934  1.7142  0.6902
 4056WAT     H216931   7.209   7.165   2.166 -1.3309 -1.9472  1.9130
 4056WAT    EPW16932   7.167   7.145   2.103  0.9262 -0.2808  0.1580
 4057WAT      O16933   7.479   5.304   4.074  0.5903 -0.1204 -0.2063
 4057WAT     H116934   7.534   5.365   4.045  0.9139 -0.1265  0.3932
 4057WAT     H216935   7.470   5.322   4.159 -0.1976 -0.2263 -0.2535
 4057WAT    EPW16936   7.486   5.316   4.082 -0.3783  0.4818  0.0035
 4058WAT      O16937   3.504   1.824   3.167  0.4421  0.2085  0.0555
 4058WAT     H116938   3.526   1.757   3.217  2.4068  0.9076  0.2067
 4058WAT     H216939   3.480   1.786   3.092 -1.4348 -0.7742  1.0823
 4058WAT    EPW16940   3.504   1.808   3.163 -0.0557  0.1065 -0.4824
 4059WAT      O16941   6.659   0.834   4.416  0.2235 -0.2133  0.3132
 4059WAT     H116942   6.633   0.752   4.430  2.1029 -0.9289 -0.0371
 4059WAT     H216943   6.735   0.824   4.374  1.0070  1.6971  1.1778
 4059WAT    EPW16944   6.666   0.820   4.412 -0.3356  0.1511  0.2282
 4060WAT      O16945   3.555   6.559   1.910 -0.9126 -0.8180 -0.4395
 4060WAT     H116946   3.577   6.643   1.899 -2.8875  0.5098  3.6609
 4060WAT     H216947   3.618   6.528   1.962 -1.2481 -1.2485 -0.2773
 4060WAT    EPW16948   3.568   6.567   1.916  0.1336 -0.3898 -0.0490
 4061WAT      O16949   1.150   0.751   2.242 -0.1375  0.7976 -0.5843
 4061WAT     H116950   1.193   0.826   2.230  0.8242  0.4023  0.2120
 4061WAT     H216951   1.136   0.748   2.328 -1.3347  0.6627 -0.7682
 4061WAT    EPW16952   1.155   0.762   2.253  0.4549 -0.0719 -0.4451
 4062WAT      O16953   7.233   3.411   0.293  0.0927 -0.4559  0.6001
 4062WAT     H116954   7.150   3.389   0.309  0.4515 -2.5654 -0.1751
 4062WAT     H216955   7.229   3.497   0.280 -2.0123 -0.5477  0.3705
 4062WAT    EPW16956   7.220   3.421   0.293 -0.0523  0.0335 -0.2259
 4063WAT      O16957   3.680   5.315   1.525 -0.0620  0.2182  0.5643
 4063WAT     H116958   3.601   5.352   1.519 -0.3641 -0.1921  1.7331
 4063WAT     H216959   3.664   5.238   1.562  0.6900 -0.6521 -0.8487
 4063WAT    EPW16960   3.666   5.309   1.529  0.1970  0.2215 -0.5846
 4064WAT      O16961   4.912   5.588   2.765  0.0640 -0.1408 -0.5357
 4064WAT     H116962   4.874   5.536   2.706 -0.3246  0.2607 -0.6460
 4064WAT     H216963   4.849   5.645   2.786  0.1873 -0.2791  0.2721
 4064WAT    EPW16964   4.897   5.588   2.760  1.2258  0.6262 -0.6146
 4065WAT      O16965   7.413   6.128   2.779  0.3665  0.5763  0.1576
 4065WAT     H116966   7.447   6.163   2.707  0.1841 -0.6302 -0.5351
 4065WAT     H216967   7.479   6.128   2.836  0.8640  0.3976 -0.4172
 4065WAT    EPW16968   7.428   6.133   2.777 -0.2197 -0.0127 -0.0597
 4066WAT      O16969   3.049   3.218   0.382  0.1027 -0.6392  0.0730
 4066WAT     H116970   2.967   3.249   0.389  0.5764  1.3354 -1.8950
 4066WAT     H216971   3.094   3.267   0.439  0.4994  1.0751 -1.6024
 4066WAT    EPW16972   3.043   3.230   0.392 -0.6406  0.4352  0.1838
 4067WAT      O16973   1.836   4.178   2.927 -0.2773 -0.8477 -0.2539
 4067WAT     H116974   1.813   4.117   2.985 -4.6314 -1.1480 -1.9062
 4067WAT     H216975   1.760   4.203   2.892  1.5477  3.2631 -1.9998
 4067WAT    EPW16976   1.821   4.173   2.930 -0.0821  0.1963 -0.5454
 4068WAT      O16977   1.197   1.951   4.737 -0.3164  0.0407 -0.1981
 4068WAT     H116978   1.138   1.990   4.686 -0.8650 -2.8209 -1.9284
 4068WAT     H216979   1.273   1.963   4.695  0.4364  3.1277  1.6877
 4068WAT    EPW16980   1.200   1.959   4.723 -0.2204 -0.1935 -0.4555
 4069WAT      O16981   1.497   4.961   0.589  0.2406 -0.2652 -0.0211
 4069WAT     H116982   1.538   4.884   0.584  0.6063 -0.0291 -0.8869
 4069WAT     H216983   1.501   4.982   0.673  1.1677 -0.6437  0.0353
 4069WAT    EPW16984   1.503   4.953   0.601 -0.0536 -0.0806 -0.9532
 4070WAT      O16985   4.486   4.040   2.160 -0.3233  0.4741  0.1342
 4070WAT     H116986   4.509   3.956   2.165 -1.5820  0.1701  1.4638
 4070WAT     H216987   4.532   4.069   2.092  1.3997 -0.8818  0.6100
 4070WAT    EPW16988   4.496   4.032   2.151  0.1932  0.2733 -0.3093
 4071WAT      O16989   5.442   5.324   4.610 -0.0110  0.0414  0.0679
 4071WAT     H116990   5.446   5.296   4.527  0.5334 -0.9061  0.3944
 4071WAT     H216991   5.372   5.283   4.642  0.1730 -0.1319  0.2565
 4071WAT    EPW16992   5.432   5.314   4.602 -0.5213  0.1128  0.1532
 4072WAT      O16993   7.427   1.202   1.809 -0.7931 -0.0146 -0.7907
 4072WAT     H116994   7.449   1.128   1.849  0.3834  0.4901 -0.4467
 4072WAT     H216995   7.491   1.214   1.750 -0.0507  1.4857  0.2220
 4072WAT    EPW16996   7.440   1.193   1.806 -0.0521  0.0038 -0.4780
 4073WAT      O16997   5.783   7.059   2.710  0.0345 -0.0337  0.0097
 4073WAT     H116998   5.721   7.113   2.680 -1.8395 -1.4527  1.1114
 4073WAT     H216999   5.805   7.013   2.639  1.8645  2.1836 -1.0210
 4073WAT    EPW17000   5.777   7.061   2.695 -0.5796 -0.3461 -0.0669
 4074WAT      O17001   1.167   5.931   1.266  0.0128  0.5604  0.1032
 4074WAT     H117002   1.122   6.004   1.247  1.0452  1.2745  0.3461
 4074WAT     H217003   1.129   5.903   1.340 -0.9601  0.3417 -0.4526
 4074WAT    EPW17004   1.155   5.938   1.274  0.2062 -0.6840 -0.2334
 4075WAT      O17005   2.783   6.980   1.762 -0.3817  0.2520 -0.0003
 4075WAT     H117006   2.744   7.058   1.770 -0.6900  0.2332 -1.1620
 4075WAT     H217007   2.723   6.924   1.791 -0.6109  0.3587 -0.2621
 4075WAT    EPW17008   2.768   6.983   1.768  0.4177  0.0289  0.2751
 4076WAT      O17009   7.047   1.924   4.519  0.3356 -0.1278 -0.2423
 4076WAT     H117010   6.972   1.958   4.492 -0.0921 -1.9953 -1.5936
 4076WAT     H217011   7.033   1.909   4.604  0.5449  2.8480  0.4271
 4076WAT    EPW17012   7.034   1.927   4.528  0.2182  0.7518  0.2376
 4077WAT      O17013   6.002   7.657   3.841  0.3458 -0.1377  0.2135
 4077WAT     H117014   6.030   7.575   3.854 -1.5006 -0.7894  0.4493
 4077WAT     H217015   5.994   7.663   3.754 -0.1088 -0.4543  0.2258
 4077WAT    EPW17016   6.005   7.646   3.830 -0.0930  0.2822  0.1518
 4078WAT      O17017   6.512   6.853   2.713  0.5230 -0.3819 -0.3634
 4078WAT     H117018   6.496   6.804   2.784  0.1722  0.0587 -0.1320
 4078WAT     H217019   6.434   6.858   2.673  0.2368  1.0477  0.3011
 4078WAT    EPW17020   6.498   6.846   2.718  0.4993 -0.0432 -0.3053
 4079WAT      O17021   5.712   4.120   4.179 -0.7598  0.4596  0.1822
 4079WAT     H117022   5.760   4.053   4.208 -1.7112  0.4224  1.8139
 4079WAT     H217023   5.634   4.105   4.214 -1.0843  2.2484  0.3209
 4079WAT    EPW17024   5.708   4.108   4.189 -0.1585 -0.0194 -0.2930
 4080WAT      O17025   4.694   0.381   1.308 -0.2331  0.5684 -0.7316
 4080WAT     H117026   4.619   0.424   1.299 -1.0345 -0.8875 -1.3694
 4080WAT     H217027   4.743   0.411   1.243 -0.3935  1.2250 -0.5593
 4080WAT    EPW17028   4.690   0.392   1.297 -0.5626 -0.0741  0.4097
 4081WAT      O17029   5.136   4.104   2.942  0.8377  0.0995  0.1304
 4081WAT     H117030   5.103   4.126   3.020  0.7182 -1.2993  0.5004
 4081WAT     H217031   5.125   4.176   2.894 -2.3577 -0.1083  0.3458
 4081WAT    EPW17032   5.130   4.118   2.946 -0.1967 -0.3121  0.1459
 4082WAT      O17033   5.143   5.058   5.019  0.4062  0.1810 -0.6251
 4082WAT     H117034   5.079   5.042   4.961 -0.5107 -0.6365  0.5664
 4082WAT     H217035   5.214   5.026   4.980  0.2847  1.7205 -2.2827
 4082WAT    EPW17036   5.144   5.051   5.005 -0.7471 -0.2875  0.2214
 4083WAT      O17037   0.581   4.713   2.765  0.3143  0.2755 -0.7328
 4083WAT     H117038   0.601   4.683   2.686  1.1218 -3.3347  0.6524
 4083WAT     H217039   0.659   4.726   2.803 -0.0034 -0.7014  0.3103
 4083WAT    EPW17040   0.595   4.711   2.759 -0.1178 -0.1664 -0.8345
 4084WAT      O17041   1.233   4.594   5.487  0.2524 -0.7172  0.1577
 4084WAT     H117042   1.230   4.533   5.549  1.3790  0.1081  1.0752
 4084WAT     H217043   1.318   4.601   5.468 -0.0305 -0.7047 -1.2552
 4084WAT    EPW17044   1.245   4.586   5.493 -0.5799 -0.2064 -0.1172
 4085WAT      O17045   5.095   4.283   2.741  0.2631  0.2928  0.8640
 4085WAT     H117046   5.144   4.267   2.671 -0.9619 -0.5178  0.1614
 4085WAT     H217047   5.096   4.370   2.747 -1.6934  0.5877 -1.7440
 4085WAT    EPW17048   5.103   4.294   2.731 -0.0890  0.3228 -0.1196
 4086WAT      O17049   7.228   5.570   3.789 -0.0239 -0.2807  0.2590
 4086WAT     H117050   7.179   5.522   3.735  0.4162 -1.3759  0.8144
 4086WAT     H217051   7.211   5.537   3.868 -0.8471  1.4480  0.8720
 4086WAT    EPW17052   7.218   5.558   3.793 -0.2399  0.2575 -0.5985
 4087WAT      O17053   5.504   3.294   1.374 -0.0047 -0.8238  0.1398
 4087WAT     H117054   5.448   3.327   1.433  0.4611 -0.0720  0.1674
 4087WAT     H217055   5.519   3.213   1.404 -1.2482 -1.1246  0.0094
 4087WAT    EPW17056   5.498   3.287   1.387  0.5996  0.3654 -0.3068
 4088WAT      O17057   5.271   2.425   3.427 -0.2381 -0.2147 -0.5324
 4088WAT     H117058   5.193   2.409   3.393 -0.5905  2.0409 -0.9747
 4088WAT     H217059   5.252   2.458   3.506  0.1460  1.3626 -1.0601
 4088WAT    EPW17060   5.257   2.428   3.434  0.2658  0.4906  0.0501
 4089WAT      O17061   5.255   4.847   7.136 -0.4657  0.1907 -0.2545
 4089WAT     H117062   5.314   4.905   7.111 -0.4377  0.0474 -0.5292
 4089WAT     H217063   5.294   4.770   7.122 -1.0498  0.0717 -1.3249
 4089WAT    EPW17064   5.269   4.844   7.130 -0.4782  0.0645 -0.3337
 4090WAT      O17065   4.063   6.267   0.292  0.2111  0.5824  0.4336
 4090WAT     H117066   4.070   6.335   0.238 -0.2355  0.1942 -0.1168
 4090WAT     H217067   3.989   6.228   0.267 -0.4177  0.8293  1.8159
 4090WAT    EPW17068   4.054   6.271   0.280 -0.4781 -0.2636  0.7919
 4091WAT      O17069   4.010   5.690   6.595 -0.6731  0.2519  0.3865
 4091WAT     H117070   3.968   5.658   6.665  1.4976 -1.9482  0.8140
 4091WAT     H217071   4.080   5.729   6.629 -0.8250  1.3190 -0.4705
 4091WAT    EPW17072   4.014   5.691   6.611  0.3250 -0.4137 -0.7705
 4092WAT      O17073   0.500   4.276   1.013 -0.1058 -0.4209  0.6830
 4092WAT     H117074   0.509   4.338   0.952 -0.0202 -1.4331 -0.3761
 4092WAT     H217075   0.524   4.316   1.087 -0.4481  0.9161  0.1002
 4092WAT    EPW17076   0.505   4.291   1.015 -0.2974  0.4030 -0.4811
 4093WAT      O17077   2.888   1.940   3.340 -0.1407  0.2713 -0.4090
 4093WAT     H117078   2.950   1.952   3.401  2.7720 -0.6951 -2.9448
 4093WAT     H217079   2.883   2.017   3.301 -0.3657  0.2840 -0.3539
 4093WAT    EPW17080   2.896   1.953   3.344  0.5256  0.2801 -0.5675
 4094WAT      O17081   3.138   0.503   1.484  0.0654 -0.1155  0.5642
 4094WAT     H117082   3.067   0.495   1.534  0.3041 -0.6218  0.8322
 4094WAT     H217083   3.171   0.422   1.482 -0.1367 -0.1794 -0.7079
 4094WAT    EPW17084   3.132   0.490   1.491  0.2322 -0.2952 -0.6254
 4095WAT      O17085   3.598   7.196   0.349 -0.5237  0.0745 -0.0445
 4095WAT     H117086   3.678   7.230   0.358 -0.5743  0.0157  0.7290
 4095WAT     H217087   3.562   7.243   0.286 -0.6182  1.5410  1.0515
 4095WAT    EPW17088   3.604   7.208   0.341 -0.0177 -0.0307 -0.4502
 4096WAT      O17089   2.256   4.157   5.547 -0.0813  0.5718 -0.8592
 4096WAT     H117090   2.291   4.232   5.577 -0.3698  2.1433 -3.9849
 4096WAT     H217091   2.325   4.107   5.530  0.0803 -1.2747  3.9029
 4096WAT    EPW17092   2.271   4.161   5.549 -0.2757 -0.3354 -0.1761
 4097WAT      O17093   1.943   0.256   7.289 -0.4522 -0.3891  0.1440
 4097WAT     H117094   1.877   0.201   7.304 -0.6188  0.3287  2.3572
 4097WAT     H217095   1.924   0.326   7.338  2.2171 -0.3867  1.3491
 4097WAT    EPW17096   1.930   0.258   7.298 -0.3099  0.5229 -0.1619
 4098WAT      O17097   4.587   0.542   3.156 -0.0233  0.2082  0.8867
 4098WAT     H117098   4.552   0.471   3.120 -0.9931  0.2621  1.6837
 4098WAT     H217099   4.655   0.510   3.201 -1.1602 -0.4316  2.2416
 4098WAT    EPW17100   4.592   0.527   3.157 -0.1697 -0.4699 -0.4196
 4099WAT      O17101   6.246   5.285   5.371 -0.2601 -0.2067 -0.2725
 4099WAT     H117102   6.292   5.274   5.298 -3.3788 -1.3926 -2.2409
 4099WAT     H217103   6.223   5.369   5.368 -1.4490 -0.5499 -1.4015
 4099WAT    EPW17104   6.250   5.295   5.360 -0.3496 -0.1324 -0.0135
 4100WAT      O17105   6.441   1.480   1.780  0.1611 -0.3331 -0.2920
 4100WAT     H117106   6.361   1.494   1.747 -0.5576  0.1835  1.5220
 4100WAT     H217107   6.462   1.556   1.816  0.4263 -1.1074  1.2944
 4100WAT    EPW17108   6.432   1.493   1.780 -0.3478  0.0964 -0.2250
 4101WAT      O17109   0.398   0.478   0.305  0.3118  0.4349 -0.1419
 4101WAT     H117110   0.341   0.502   0.243  0.6787 -0.1573 -0.7264
 4101WAT     H217111   0.461   0.437   0.260  1.0021  0.7231  0.5368
 4101WAT    EPW17112   0.399   0.476   0.289  0.2475 -0.2066 -1.1502
 4102WAT      O17113   0.883   3.471   0.802 -0.0205 -0.5574  0.3619
 4102WAT     H117114   0.811   3.486   0.849  0.0514 -0.2143  0.3630
 4102WAT     H217115   0.945   3.464   0.862  0.4005  1.6751  0.2671
 4102WAT    EPW17116   0.881   3.472   0.818 -0.6080 -0.6909  1.0096
 4103WAT      O17117   4.978   7.139   2.796  0.6381 -0.7891  0.3866
 4103WAT     H117118   5.002   7.056   2.786 -1.1736 -1.3998  0.6257
 4103WAT     H217119   4.992   7.154   2.880 -2.9587 -2.3696  1.5008
 4103WAT    EPW17120   4.983   7.129   2.807  0.3190 -0.2060  0.6630
 4104WAT      O17121   7.641   3.479   0.556  0.2258  0.0244  0.4700
 4104WAT     H117122   7.565   3.506   0.523  0.5008  1.5458  0.9938
 4104WAT     H217123   7.635   3.392   0.554 -0.6365  0.0891 -1.5067
 4104WAT    EPW17124   7.629   3.470   0.551  0.6024  0.6781 -0.1736
 4105WAT      O17125   2.772   5.728   1.572 -0.0448 -0.1438  0.4439
 4105WAT     H117126   2.695   5.688   1.581  0.4237 -1.1273  0.1591
 4105WAT     H217127   2.820   5.695   1.637  0.4461 -0.2895  0.0117
 4105WAT    EPW17128   2.767   5.717   1.583 -0.3960  0.6794 -0.2254
 4106WAT      O17129   3.155   2.085   2.110  0.7054 -0.6799 -0.4360
 4106WAT     H117130   3.208   2.062   2.045 -0.5224 -1.6694 -1.1091
 4106WAT     H217131   3.111   2.012   2.128 -3.3929  0.9436 -2.6734
 4106WAT    EPW17132   3.156   2.071   2.103 -0.4288  0.3183 -0.1764
 4107WAT      O17133   5.052   2.525   0.649 -0.1152 -0.1651 -0.2598
 4107WAT     H117134   4.970   2.554   0.661  0.1583  0.9887 -1.0636
 4107WAT     H217135   5.055   2.509   0.563  0.1078 -1.5193 -0.0240
 4107WAT    EPW17136   5.040   2.527   0.638  0.1133 -0.4678  0.3406
 4108WAT      O17137   2.550   1.025   1.033  0.6991  0.1266 -0.0125
 4108WAT     H117138   2.588   0.960   1.077  1.1221  0.8121  0.6702
 4108WAT     H217139   2.618   1.069   0.999  0.4709  0.6951  0.2524
 4108WAT    EPW17140   2.566   1.022   1.035 -1.1010 -0.4302 -0.1520
 4109WAT      O17141   1.862   5.766   6.406 -0.2465  0.2718 -0.6588
 4109WAT     H117142   1.868   5.757   6.492 -1.4866  1.6074 -0.3927
 4109WAT     H217143   1.796   5.822   6.396 -2.6865 -2.6287 -2.6176
 4109WAT    EPW17144   1.853   5.773   6.417 -0.2197 -0.7969  0.4233
 4110WAT      O17145   0.070   4.553   0.925  0.4809 -0.0031  0.4765
 4110WAT     H117146   0.050   4.468   0.928  0.5866 -0.0114  1.0343
 4110WAT     H217147   0.031   4.581   0.852  1.3301 -0.7522 -0.2762
 4110WAT    EPW17148   0.061   4.545   0.915 -0.9654 -0.6662 -0.0925
 4111WAT      O17149   6.333   3.595   1.796 -0.1796  0.4132  0.1927
 4111WAT     H117150   6.253   3.576   1.767  0.2907  0.6237 -1.3561
 4111WAT     H217151   6.322   3.668   1.842 -0.7946  0.8964 -0.6815
 4111WAT    EPW17152   6.320   3.603   1.798 -0.0035 -0.2871  0.1648
 4112WAT      O17153   1.635   4.565   1.154 -0.3480 -0.4201  0.6854
 4112WAT     H117154   1.574   4.507   1.175 -1.1626  0.3442  0.5046
 4112WAT     H217155   1.701   4.517   1.124 -1.1339 -1.2208  0.2106
 4112WAT    EPW17156   1.636   4.549   1.153 -0.4282 -0.2662  0.0398
 4113WAT      O17157   2.850   3.759   6.154 -0.7936  0.4206  0.0526
 4113WAT     H117158   2.800   3.688   6.162 -1.9344  1.1330 -0.5449
 4113WAT     H217159   2.919   3.741   6.205 -1.3522 -0.8399  0.4055
 4113WAT    EPW17160   2.853   3.746   6.162  0.2582 -0.6606  0.9727
 4114WAT      O17161   0.231   6.382   2.227  0.0523 -0.0768  0.3510
 4114WAT     H117162   0.209   6.346   2.303  0.2250 -1.2889 -0.1475
 4114WAT     H217163   0.269   6.458   2.250 -1.7450  0.5811  1.3489
 4114WAT    EPW17164   0.233   6.388   2.242 -0.1164  0.1002  0.2770
 4115WAT      O17165   6.468   6.303   0.560  0.6968 -0.1691 -0.1687
 4115WAT     H117166   6.533   6.333   0.509  1.0559 -0.5516  0.0506
 4115WAT     H217167   6.397   6.313   0.511  0.7907  1.0340 -0.1029
 4115WAT    EPW17168   6.467   6.309   0.545  0.4060  0.2896 -0.3528
 4116WAT      O17169   3.254   2.946   0.929 -0.2557  0.8022 -0.1918
 4116WAT     H117170   3.217   3.008   0.880  1.3872  1.1579 -1.0561
 4116WAT     H217171   3.196   2.881   0.927 -1.0134  1.4773 -1.1257
 4116WAT    EPW17172   3.240   2.946   0.921  0.3652 -0.5138 -0.3816
 4117WAT      O17173   7.577   4.506   0.870  0.1683 -0.0219  1.2277
 4117WAT     H117174   7.627   4.442   0.838 -2.3891 -2.6209  1.9610
 4117WAT     H217175   7.588   4.498   0.957  0.4018  1.0909  1.3123
 4117WAT    EPW17176   7.586   4.495   0.878  0.5946 -0.3661  0.9464
 4118WAT      O17177   4.229   5.229   7.455  0.0271  0.2222 -0.2165
 4118WAT     H117178   4.179   5.284   7.501 -1.4925 -0.9099 -0.4293
 4118WAT     H217179   4.227   5.263   7.375  0.8330  0.9784  0.0708
 4118WAT    EPW17180   4.221   5.242   7.450 -0.0523 -0.3791 -0.0502
 4119WAT      O17181   6.777   4.507   0.242 -0.3888 -0.3838 -0.4298
 4119WAT     H117182   6.808   4.529   0.164  1.6912 -2.3025 -0.2625
 4119WAT     H217183   6.713   4.564   0.256 -0.5902  0.2615 -3.3507
 4119WAT    EPW17184   6.772   4.519   0.233  0.1217  0.4920  0.3775
 4120WAT      O17185   4.480   4.063   2.850  0.2210  0.4724  0.0825
 4120WAT     H117186   4.441   4.092   2.922  0.3742 -0.7030  0.6526
 4120WAT     H217187   4.562   4.048   2.875  0.3952  0.4927 -0.4592
 4120WAT    EPW17188   4.487   4.065   2.864 -0.2911 -0.5196 -0.4203
 4121WAT      O17189   3.126   2.958   3.069  0.0621 -0.1716  0.1938
 4121WAT     H117190   3.159   2.940   2.990 -0.5404 -1.5922  0.2277
 4121WAT     H217191   3.107   3.043   3.064 -2.6970 -0.7555 -2.3136
 4121WAT    EPW17192   3.128   2.968   3.057 -0.4199  0.3861 -0.1843
 4122WAT      O17193   5.723   1.270   1.219 -0.1139 -0.1596  0.1115
 4122WAT     H117194   5.761   1.316   1.155 -1.5975  1.5196  0.3790
 4122WAT     H217195   5.639   1.293   1.215 -0.7806 -2.2166  0.8557
 4122WAT    EPW17196   5.717   1.280   1.209 -0.3653  0.1165 -0.1848
 4123WAT      O17197   6.340   2.862   1.192  0.0112  0.2602  0.0124
 4123WAT     H117198   6.296   2.899   1.257  1.0734  0.8010  0.4589
 4123WAT     H217199   6.389   2.802   1.231  0.1190  0.0851 -0.3821
 4123WAT    EPW17200   6.341   2.859   1.207  0.3169 -0.2884  0.4908
 4124WAT      O17201   0.246   2.872   3.366  0.2801 -0.3452 -0.5502
 4124WAT     H117202   0.284   2.951   3.367 -1.6190  0.6127 -0.0975
 4124WAT     H217203   0.308   2.820   3.399  0.4781  1.5180  2.4038
 4124WAT    EPW17204   0.261   2.876   3.371  0.5654  0.6740 -0.5821
 4125WAT      O17205   4.143   6.379   2.215  0.4697 -0.2595 -0.0684
 4125WAT     H117206   4.227   6.386   2.190  0.1290  0.2554 -1.1252
 4125WAT     H217207   4.149   6.371   2.302  1.5250  2.6861  0.2544
 4125WAT    EPW17208   4.156   6.379   2.225 -0.1900 -0.0070  0.5720
 4126WAT      O17209   3.889   6.287   6.262 -0.2074 -0.4695 -0.1162
 4126WAT     H117210   3.846   6.251   6.195  0.0477 -0.5134 -0.2605
 4126WAT     H217211   3.883   6.228   6.325  0.8460 -1.1166 -0.5883
 4126WAT    EPW17212   3.882   6.273   6.261 -0.4948 -0.6637 -0.6480
 4127WAT      O17213   5.256   2.014   5.688  0.0855 -0.1296 -0.7802
 4127WAT     H117214   5.220   2.057   5.754 -0.2832 -1.6484  0.0544
 4127WAT     H217215   5.225   2.055   5.617 -1.2602  0.1821 -0.0416
 4127WAT    EPW17216   5.246   2.027   5.687  0.3418 -0.0251  0.0323
 4128WAT      O17217   5.575   3.812   0.821 -0.6780 -0.4808 -0.0740
 4128WAT     H117218   5.556   3.811   0.736 -0.2095 -0.5745 -0.1830
 4128WAT     H217219   5.629   3.880   0.828 -0.7607 -0.4408  0.1603
 4128WAT    EPW17220   5.580   3.822   0.809 -0.2579  0.5209 -0.0676
 4129WAT      O17221   1.170   1.253   3.672  0.4402 -0.1274  0.1619
 4129WAT     H117222   1.201   1.260   3.591 -0.6725  1.7620 -0.1478
 4129WAT     H217223   1.242   1.240   3.720  1.2063 -0.3915 -0.9948
 4129WAT    EPW17224   1.185   1.252   3.667  0.5073  0.0292  0.4223
 4130WAT      O17225   4.482   1.925   0.875  0.3811 -0.2666 -0.2321
 4130WAT     H117226   4.453   1.877   0.808  0.1948 -1.9614  1.0042
 4130WAT     H217227   4.409   1.961   0.907 -0.3713 -3.3440  1.9586
 4130WAT    EPW17228   4.467   1.924   0.870 -0.5984 -0.9579 -0.0174
 4131WAT      O17229   4.668   0.712   0.166 -0.2574 -0.3664 -0.0170
 4131WAT     H117230   4.728   0.757   0.209 -1.3109  1.1264 -0.0359
 4131WAT     H217231   4.697   0.630   0.170  3.0985  0.4804 -2.1872
 4131WAT    EPW17232   4.681   0.706   0.173 -0.4392  0.1973 -0.3468
 4132WAT      O17233   1.207   2.267   1.022  0.3724 -0.4357  0.8238
 4132WAT     H117234   1.200   2.353   1.010 -0.4978 -0.4524  1.1434
 4132WAT     H217235   1.146   2.249   1.082 -1.1185 -1.6174 -0.9015
 4132WAT    EPW17236   1.197   2.277   1.029 -0.9596 -0.4508 -0.6422
 4133WAT      O17237   5.327   7.159   3.672 -0.1333  0.2436 -0.2383
 4133WAT     H117238   5.271   7.162   3.606 -0.0823  2.2657 -0.2331
 4133WAT     H217239   5.394   7.207   3.645 -0.1670  1.2261  1.3103
 4133WAT    EPW17240   5.329   7.166   3.658 -0.4487  0.4578 -0.4400
 4134WAT      O17241   4.648   4.505   1.254  0.3047  0.1572 -0.1214
 4134WAT     H117242   4.714   4.506   1.311  0.8975  0.2458 -0.7884
 4134WAT     H217243   4.652   4.426   1.218  1.2913  0.7818 -1.5269
 4134WAT    EPW17244   4.658   4.494   1.257  0.2582 -0.2509  0.2783
 4135WAT      O17245   6.876   0.327   2.234  0.1951  0.3127  0.0260
 4135WAT     H117246   6.937   0.280   2.275  0.2662 -0.4775 -0.9246
 4135WAT     H217247   6.849   0.384   2.294  1.7871  0.6063  0.4927
 4135WAT    EPW17248   6.881   0.328   2.249  0.2880  0.0209  0.3867
 4136WAT      O17249   1.649   5.380   1.467  0.5727  0.4224 -0.1188
 4136WAT     H117250   1.618   5.312   1.423 -2.0774  2.3297 -1.4950
 4136WAT     H217251   1.595   5.387   1.536  0.8253  1.0760  0.0278
 4136WAT    EPW17252   1.636   5.371   1.471 -0.4058 -0.2675 -0.2179
 4137WAT      O17253   6.017   3.314   3.499  0.0527 -0.2221  0.6900
 4137WAT     H117254   6.066   3.248   3.527 -0.4550 -0.2368  1.5914
 4137WAT     H217255   5.937   3.281   3.497 -0.2606  0.4455  1.4901
 4137WAT    EPW17256   6.012   3.300   3.503  0.1606 -0.1735  0.1808
 4138WAT      O17257   7.008   0.861   2.094 -0.5597  0.2759  0.4076
 4138WAT     H117258   7.024   0.811   2.163 -0.6946 -1.3499 -0.6912
 4138WAT     H217259   7.058   0.827   2.031 -1.6081  0.7260 -0.7178
 4138WAT    EPW17260   7.018   0.849   2.095  0.1639 -0.7475 -0.2651
 4139WAT      O17261   7.654   4.209   1.762  0.1807 -0.9335  0.5538
 4139WAT     H117262   7.604   4.260   1.812  0.7892 -1.4901  1.7869
 4139WAT     H217263   7.600   4.179   1.701 -0.4946  0.0934  0.6402
 4139WAT    EPW17264   7.639   4.212   1.760 -0.6583 -0.3189 -0.0047
 4140WAT      O17265   5.140   3.062   1.249  0.0836  0.5017 -0.4176
 4140WAT     H117266   5.086   3.096   1.190 -1.7109 -0.7748  0.3939
 4140WAT     H217267   5.087   3.027   1.308  1.7585 -1.8476 -0.1498
 4140WAT    EPW17268   5.124   3.062   1.249 -0.3611 -0.2360 -0.2349
 4141WAT      O17269   3.834   4.957   1.305  0.3579 -0.0953  0.4109
 4141WAT     H117270   3.782   4.925   1.243 -0.7583  0.2298  1.1490
 4141WAT     H217271   3.785   4.951   1.377  1.1388  0.7516  1.0275
 4141WAT    EPW17272   3.819   4.951   1.306  0.5712  0.3055  0.0588
 4142WAT      O17273   5.947   3.655   2.417  0.1582  0.5245  0.6158
 4142WAT     H117274   5.909   3.618   2.348  1.2646  0.9774 -0.2696
 4142WAT     H217275   6.004   3.710   2.382  1.1037  0.4142  1.9043
 4142WAT    EPW17276   5.950   3.658   2.402 -0.5191 -0.4407 -0.3235
 4143WAT      O17277   6.662   6.373   3.682 -0.0306  0.1999 -0.5706
 4143WAT     H117278   6.724   6.426   3.651  1.5213 -0.2663  1.5372
 4143WAT     H217279   6.598   6.428   3.705 -0.1563  0.7454 -2.0886
 4143WAT    EPW17280   6.662   6.389   3.681 -1.0373  0.7756 -0.4958
 4144WAT      O17281   6.179   2.211   1.772  0.6155 -0.0931  0.9219
 4144WAT     H117282   6.108   2.229   1.726  1.2055  1.7654  0.6273
 4144WAT     H217283   6.160   2.242   1.852 -0.0412 -2.4337  1.7557
 4144WAT    EPW17284   6.166   2.218   1.777  0.3273 -0.2960 -0.4447
 4145WAT      O17285   6.482   2.852   2.933  0.0517 -0.2639 -0.1306
 4145WAT     H117286   6.476   2.911   2.997 -0.2760  2.3081 -2.3757
 4145WAT     H217287   6.566   2.830   2.934  1.5369  4.2706 -2.3928
 4145WAT    EPW17288   6.493   2.857   2.943 -0.1892  0.6399 -0.2741
 4146WAT      O17289   7.250   7.189   2.675  0.2875  0.2406 -0.8136
 4146WAT     H117290   7.165   7.177   2.657  0.5235  0.7876 -2.5069
 4146WAT     H217291   7.257   7.275   2.683  0.5836  0.1471  0.0216
 4146WAT    EPW17292   7.238   7.200   2.673  0.1295 -0.2611 -0.3351
 4147WAT      O17293   4.437   2.392   0.389 -0.3928 -0.2741 -0.0197
 4147WAT     H117294   4.403   2.351   0.320 -0.6629 -0.4019  0.1849
 4147WAT     H217295   4.436   2.476   0.365 -0.3474 -0.3334 -0.2286
 4147WAT    EPW17296   4.432   2.399   0.375  0.0001 -0.3228 -0.4358
 4148WAT      O17297   3.104   2.936   0.581 -0.0810  0.1221 -0.0357
 4148WAT     H117298   3.040   2.944   0.522  0.5192  2.6317 -0.4575
 4148WAT     H217299   3.084   2.996   0.641  1.2057  0.0354  0.5099
 4148WAT    EPW17300   3.091   2.946   0.581  0.2075  0.2105 -0.4896
 4149WAT      O17301   7.969   2.094   1.394 -0.2661  0.0110 -0.1656
 4149WAT     H117302   7.920   2.022   1.393  0.5211 -0.5449  0.3642
 4149WAT     H217303   7.992   2.102   1.477 -0.1056  0.7148 -0.2719
 4149WAT    EPW17304   7.965   2.085   1.406  0.5299  0.2621 -0.0603
 4150WAT      O17305   4.264   5.788   6.748  0.3303  0.1297  0.5450
 4150WAT     H117306   4.345   5.817   6.732  0.2697 -0.0425 -0.0795
 4150WAT     H217307   4.267   5.766   6.832  1.2625 -0.9130  0.2610
 4150WAT    EPW17308   4.276   5.789   6.758 -0.1432  0.4447  0.8243
 4151WAT      O17309   3.661   5.047   1.050  0.0194 -0.1986  0.4417
 4151WAT     H117310   3.603   4.983   1.064  0.5391 -0.5955  0.7930
 4151WAT     H217311   3.727   5.007   1.011 -0.9838  0.6978 -2.4443
 4151WAT    EPW17312   3.662   5.032   1.047 -0.3774  0.6173 -0.0923
 4152WAT      O17313   7.925   3.362   0.919  0.2962 -0.3208 -0.2923
 4152WAT     H117314   7.981   3.408   0.870  0.8516 -0.6232  0.0465
 4152WAT     H217315   7.945   3.279   0.900 -0.5005 -0.4309 -0.6784
 4152WAT    EPW17316   7.937   3.356   0.909  0.1415 -0.4420 -0.3575
 4153WAT      O17317   4.900   7.666  -0.010  0.3481 -0.6857 -0.2409
 4153WAT     H117318   4.922   7.749  -0.025  2.9027 -1.2942 -0.2775
 4153WAT     H217319   4.941   7.648   0.065 -0.1769 -1.9151 -0.2353
 4153WAT    EPW17320   4.909   7.676  -0.001  0.0840  0.2273 -0.0164
 4154WAT      O17321   3.381   4.035   6.931  0.3556  0.4810 -0.1371
 4154WAT     H117322   3.425   4.068   6.863  0.3139  0.9422  0.0595
 4154WAT     H217323   3.364   4.104   6.980  2.4611 -0.1187  1.5747
 4154WAT    EPW17324   3.385   4.050   6.928 -0.4351  0.1820 -0.2331
 4155WAT      O17325   7.703   3.369   4.958 -0.0734  0.1576 -0.6255
 4155WAT     H117326   7.643   3.403   4.905  0.5881  2.4128 -0.0444
 4155WAT     H217327   7.675   3.389   5.038  0.0181 -1.3223 -0.1954
 4155WAT    EPW17328   7.690   3.377   4.962  0.1098 -0.0822  0.2271
 4156WAT      O17329   5.705   4.291   0.261 -0.0617 -0.1565 -0.1322
 4156WAT     H117330   5.703   4.373   0.291  1.0182  0.2414 -1.0921
 4156WAT     H217331   5.627   4.282   0.223 -1.3133 -0.5378  2.2831
 4156WAT    EPW17332   5.693   4.302   0.260 -0.4176  0.4005 -0.3554
 4157WAT      O17333   4.645   6.359   1.117 -0.6268 -0.2143  0.1018
 4157WAT     H117334   4.561   6.355   1.093 -0.3721 -1.4319 -0.6843
 4157WAT     H217335   4.652   6.295   1.175 -0.5565  0.8548  1.3205
 4157WAT    EPW17336   4.633   6.349   1.122  0.3067 -0.0092 -0.0663
 4158WAT      O17337   6.743   0.866   1.459 -0.2261 -0.4509 -0.5661
 4158WAT     H117338   6.802   0.898   1.403 -0.0901 -1.0661 -0.7766
 4158WAT     H217339   6.790   0.813   1.510 -0.3318  0.1503  0.1815
 4158WAT    EPW17340   6.759   0.863   1.458 -0.5648  0.2358  0.4406
 4159WAT      O17341   4.811   1.633   2.195  0.0479  0.0955  0.5687
 4159WAT     H117342   4.733   1.669   2.183  0.5066  1.1889  0.6939
 4159WAT     H217343   4.806   1.598   2.274  0.1080  1.4046  1.1869
 4159WAT    EPW17344   4.799   1.633   2.205 -0.4921  0.2679 -0.0049
 4160WAT      O17345   5.327   7.160   7.978 -0.6467 -0.0103  0.1126
 4160WAT     H117346   5.258   7.167   7.926 -0.8092  0.2860  0.3640
 4160WAT     H217347   5.297   7.184   8.056 -0.9158 -2.2970  0.7866
 4160WAT    EPW17348   5.313   7.165   7.982  0.0034  0.3425  0.6017
 4161WAT      O17349   0.156   5.197   0.384 -0.2956 -0.2615 -0.4365
 4161WAT     H117350   0.155   5.115   0.353 -1.3053 -0.6607  0.5704
 4161WAT     H217351   0.127   5.188   0.466 -0.2350  1.0878 -0.2441
 4161WAT    EPW17352   0.151   5.183   0.392  0.5733 -0.5145  0.3284
 4162WAT      O17353   1.313   2.988   4.873  0.1115  0.0155  0.2109
 4162WAT     H117354   1.312   2.993   4.786 -0.4811  2.4775  0.3096
 4162WAT     H217355   1.351   3.062   4.897  0.1710 -0.5875  2.0823
 4162WAT    EPW17356   1.319   3.000   4.863 -0.2521 -0.7325  0.5899
 4163WAT      O17357   2.545   4.119   0.226 -0.6465  0.2196  0.5531
 4163WAT     H117358   2.606   4.167   0.185 -2.2654  1.8777 -0.0262
 4163WAT     H217359   2.570   4.124   0.310  0.9936 -0.6674  0.1610
 4163WAT    EPW17360   2.558   4.127   0.233 -0.3154 -0.0493  0.2304
 4164WAT      O17361   3.761   3.491   1.942 -0.2072  0.1427 -0.4893
 4164WAT     H117362   3.806   3.502   1.869  0.6640  3.8397  0.4320
 4164WAT     H217363   3.821   3.497   2.005 -1.4517  1.4234  0.6480
 4164WAT    EPW17364   3.776   3.493   1.941  0.4291  0.1372  0.0623
 4165WAT      O17365   6.670   5.862   2.512  0.0129  0.2435  0.3964
 4165WAT     H117366   6.702   5.896   2.586 -0.6729 -0.3793  0.9982
 4165WAT     H217367   6.604   5.812   2.539  0.6968 -1.2286 -0.4692
 4165WAT    EPW17368   6.665   5.860   2.527 -0.2133 -0.0174 -0.6853
 4166WAT      O17369   3.023   0.133   1.865 -0.0593  0.4505  0.3698
 4166WAT     H117370   3.036   0.097   1.786 -2.8226  0.2217 -0.0691
 4166WAT     H217371   3.001   0.065   1.915 -1.5567  0.9821  0.4805
 4166WAT    EPW17372   3.022   0.117   1.860 -0.6052  0.2085 -0.2175
 4167WAT      O17373   4.463   7.777   1.014  0.0987 -0.2259  0.3999
 4167WAT     H117374   4.389   7.789   1.058  0.8061 -0.3956  1.7057
 4167WAT     H217375   4.470   7.849   0.965 -0.6386  0.0582  0.6986
 4167WAT    EPW17376   4.453   7.789   1.013  0.0348  0.1052 -0.4973
 4168WAT      O17377   1.226   7.305   2.693 -0.2438  0.3088  0.0505
 4168WAT     H117378   1.244   7.222   2.712  1.2648 -0.2419 -3.2220
 4168WAT     H217379   1.266   7.319   2.617 -1.2440  3.7789 -0.0294
 4168WAT    EPW17380   1.234   7.295   2.684  0.3537  0.0777  0.2422
 4169WAT      O17381   4.330   0.279   7.883 -0.8373 -0.2461  0.5578
 4169WAT     H117382   4.363   0.358   7.899  1.7023 -0.9460 -0.6349
 4169WAT     H217383   4.348   0.235   7.957 -0.2131 -0.2795  0.3918
 4169WAT    EPW17384   4.338   0.284   7.896  0.0539 -0.3045 -0.5056
 4170WAT      O17385   3.640   3.429   2.300 -0.1249 -0.8472  0.0772
 4170WAT     H117386   3.657   3.498   2.249 -1.2266 -1.3652 -1.0417
 4170WAT     H217387   3.630   3.464   2.379  0.1928  0.1617 -0.3085
 4170WAT    EPW17388   3.641   3.444   2.304  0.6202 -0.0759  0.4744
 4171WAT      O17389   3.094   6.817   1.893 -0.6059 -0.5438 -0.0741
 4171WAT     H117390   3.018   6.856   1.911 -0.0942  0.7108 -0.5398
 4171WAT     H217391   3.126   6.797   1.972  0.5467  2.8395  0.4762
 4171WAT    EPW17392   3.087   6.819   1.908 -0.1377  0.0706 -0.3345
 4172WAT      O17393   4.464   3.137   5.701  0.6288 -0.3489  0.2638
 4172WAT     H117394   4.547   3.163   5.699  0.4037  0.9437  3.0227
 4172WAT     H217395   4.431   3.178   5.771 -2.1333 -1.4499 -0.2463
 4172WAT    EPW17396   4.471   3.147   5.711  0.0778  0.1723 -0.5503
 4173WAT      O17397   6.945   4.083   1.373  0.1492  0.6908 -0.4809
 4173WAT     H117398   6.889   4.016   1.375 -1.0578  1.6591 -0.4783
 4173WAT     H217399   6.975   4.081   1.291  2.8160 -1.8941  0.3750
 4173WAT    EPW17400   6.941   4.072   1.361 -0.2124  0.0306  0.9538
 4174WAT      O17401   4.523   5.687   5.319 -0.1329 -0.2417 -0.4198
 4174WAT     H117402   4.484   5.626   5.366 -0.4892 -1.7536 -2.5521
 4174WAT     H217403   4.601   5.653   5.300  1.1765  1.5292  1.3458
 4174WAT    EPW17404   4.529   5.673   5.323 -0.1943  0.6576 -0.0165
 4175WAT      O17405   1.155   3.549   4.563  0.6854 -0.8087  0.1216
 4175WAT     H117406   1.181   3.487   4.507  2.3559  0.0877 -0.1656
 4175WAT     H217407   1.220   3.608   4.560  0.4039 -0.2899  2.3178
 4175WAT    EPW17408   1.169   3.549   4.555  0.0125 -0.1888 -0.0439
 4176WAT      O17409   5.408   2.416   2.152 -0.5817  0.3811  0.1193
 4176WAT     H117410   5.471   2.476   2.147 -0.5767  0.4184  0.5683
 4176WAT     H217411   5.434   2.354   2.097 -0.0946  0.3452  0.3853
 4176WAT    EPW17412   5.421   2.416   2.143  0.2305 -0.0358 -0.1175
 4177WAT      O17413   2.039   7.707   2.998  0.1245 -1.0299  0.2145
 4177WAT     H117414   2.123   7.726   2.989 -0.1343  0.5839  0.8179
 4177WAT     H217415   2.037   7.654   3.067  0.6932 -1.5288 -0.1502
 4177WAT    EPW17416   2.051   7.702   3.007 -0.7263 -0.2255 -0.0116
 4178WAT      O17417   3.300   7.575   4.973 -0.0309 -0.3695  0.6699
 4178WAT     H117418   3.277   7.496   4.942 -1.7547  0.1459  0.5231
 4178WAT     H217419   3.252   7.584   5.045  0.9149  0.1510  1.2633
 4178WAT    EPW17420   3.290   7.564   4.979 -0.2121  0.1643  0.5316
 4179WAT      O17421   7.581   6.665   3.272 -0.1402  0.0723  0.1269
 4179WAT     H117422   7.503   6.639   3.301 -0.7326  0.0218 -1.4294
 4179WAT     H217423   7.573   6.660   3.185  1.8654 -0.7296 -0.0616
 4179WAT    EPW17424   7.568   6.660   3.264 -0.2390  0.2939 -0.0308
 4180WAT      O17425   8.106   5.110   0.627  0.7752 -0.7961 -0.1722
 4180WAT     H117426   8.048   5.073   0.573  1.1732 -0.7654 -0.6253
 4180WAT     H217427   8.115   5.052   0.691 -0.1832 -0.5525  0.1972
 4180WAT    EPW17428   8.099   5.096   0.629 -0.0041  0.3651 -0.3512
 4181WAT      O17429   2.132   2.422   6.631 -0.1065 -0.3797  0.0203
 4181WAT     H117430   2.177   2.361   6.587  0.0897  0.6710 -1.2982
 4181WAT     H217431   2.169   2.497   6.606 -1.6752  0.4290 -0.0419
 4181WAT    EPW17432   2.144   2.424   6.621  0.5316 -0.6879 -0.2605
 4182WAT      O17433   3.589   4.594   1.506 -0.4751  0.0859  0.6218
 4182WAT     H117434   3.521   4.643   1.533 -1.2027 -0.7367  0.3387
 4182WAT     H217435   3.554   4.546   1.441  0.5686  0.1672 -0.0165
 4182WAT    EPW17436   3.574   4.594   1.500 -0.2228 -0.9756 -0.4018
 4183WAT      O17437   3.206   5.740   2.793  0.5094  0.5657  0.4007
 4183WAT     H117438   3.213   5.688   2.863 -1.6103 -2.4057 -1.3456
 4183WAT     H217439   3.285   5.738   2.758  0.6577 -1.0436  0.7443
 4183WAT    EPW17440   3.219   5.732   2.798  0.5352 -0.0466 -0.3190
 4184WAT      O17441   5.275   7.160   7.086 -0.5382 -0.5694  0.2225
 4184WAT     H117442   5.251   7.084   7.123 -0.3917 -0.3363  0.8154
 4184WAT     H217443   5.222   7.167   7.017  0.1757 -1.7309 -0.4650
 4184WAT    EPW17444   5.263   7.150   7.081 -0.6415  0.1287  0.6748
 4185WAT      O17445   5.836   6.928   4.958 -0.3604 -0.1628 -0.3413
 4185WAT     H117446   5.906   6.892   4.996 -0.8599 -1.6653 -0.7424
 4185WAT     H217447   5.792   6.858   4.928 -2.2201  0.7064  0.2306
 4185WAT    EPW17448   5.840   6.912   4.959  0.1675 -0.1185 -0.3040
 4186WAT      O17449   1.720   7.133   7.778 -0.0118  0.0888 -0.3007
 4186WAT     H117450   1.778   7.140   7.843 -0.6645  0.1484  0.2921
 4186WAT     H217451   1.722   7.049   7.757 -0.8826 -0.2439  0.8453
 4186WAT    EPW17452   1.729   7.122   7.784  0.1459 -0.1501  0.0141
 4187WAT      O17453   2.133   5.636   1.203  0.6719 -0.3617  0.1272
 4187WAT     H117454   2.088   5.711   1.204 -0.3915 -0.9825  0.3449
 4187WAT     H217455   2.194   5.647   1.264 -1.1538 -0.6403  2.1066
 4187WAT    EPW17456   2.135   5.649   1.212 -0.1648 -0.0432  0.0751
 4188WAT      O17457   5.574   4.509   3.158  0.4912  0.0465 -0.2432
 4188WAT     H117458   5.547   4.490   3.077 -1.3963 -1.2033  0.6005
 4188WAT     H217459   5.506   4.551   3.193  1.5884  1.2929  0.4704
 4188WAT    EPW17460   5.560   4.512   3.151  0.1678  0.2806  0.2142
 4189WAT      O17461   5.830   2.711   5.044  0.5777 -0.6482  0.2477
 4189WAT     H117462   5.806   2.658   4.979 -0.2611  0.9682 -0.8171
 4189WAT     H217463   5.759   2.716   5.094  0.2008  0.4228 -0.3514
 4189WAT    EPW17464   5.816   2.704   5.042 -0.1875 -0.1331 -1.2174
 4190WAT      O17465   3.822   0.712   2.991 -0.3103 -0.4008 -0.1127
 4190WAT     H117466   3.751   0.746   3.030  0.1526 -0.0525  0.4465
 4190WAT     H217467   3.841   0.642   3.040  0.2439  0.0084  0.2640
 4190WAT    EPW17468   3.814   0.707   3.004 -0.2350 -0.2122  0.3354
 4191WAT      O17469   5.549   5.795   0.600 -0.2222 -0.1442  0.6358
 4191WAT     H117470   5.581   5.716   0.621 -1.4246 -0.3818  1.7103
 4191WAT     H217471   5.480   5.803   0.653 -0.2730  1.5273  0.3487
 4191WAT    EPW17472   5.544   5.784   0.611 -0.7398  0.2503  0.6318
 4192WAT      O17473   4.962   6.318   7.325  0.4322 -0.2716 -0.2359
 4192WAT     H117474   5.046   6.339   7.320  0.0105  1.4768 -0.3545
 4192WAT     H217475   4.940   6.301   7.243  0.0992  1.7152 -0.5996
 4192WAT    EPW17476   4.971   6.318   7.312 -0.0713 -0.7000 -0.3765
 4193WAT      O17477   3.361   1.111   1.023 -0.4035  0.4549 -0.7916
 4193WAT     H117478   3.326   1.181   0.984 -0.0830  0.8503 -0.3830
 4193WAT     H217479   3.320   1.044   0.985 -2.7913  0.9261  0.7368
 4193WAT    EPW17480   3.349   1.111   1.012 -0.0450  0.4912 -0.0379
 4194WAT      O17481   6.525   3.529   4.780  0.5983 -0.4566  0.6728
 4194WAT     H117482   6.477   3.591   4.817  0.5957  0.0566 -0.1625
 4194WAT     H217483   6.595   3.571   4.750  0.6392 -0.8627  0.1746
 4194WAT    EPW17484   6.528   3.544   4.781 -0.1400 -0.0818  0.4221
 4195WAT      O17485   1.054   1.043   0.965  0.0712 -0.0878  0.1522
 4195WAT     H117486   0.969   1.056   0.980  0.3267  0.6038  1.0963
 4195WAT     H217487   1.067   0.961   0.989 -0.7519 -0.9567 -2.0722
 4195WAT    EPW17488   1.043   1.033   0.971  0.1876  0.8739 -0.3856
 4196WAT      O17489   2.869   5.977   0.280 -0.0054 -0.1739  0.0795
 4196WAT     H117490   2.936   5.969   0.334 -0.1120 -1.3324  0.0747
 4196WAT     H217491   2.850   5.894   0.259 -0.2446  0.2143 -1.3726
 4196WAT    EPW17492   2.876   5.964   0.285  0.5854 -0.0567  0.3569
 4197WAT      O17493   5.275   1.586   1.162  0.8453  0.1010 -0.5866
 4197WAT     H117494   5.356   1.557   1.172  0.3243 -1.1378  0.3627
 4197WAT     H217495   5.244   1.587   1.244 -0.1641  0.3317 -0.9590
 4197WAT    EPW17496   5.282   1.582   1.176  0.3032  1.0287  0.2583
 4198WAT      O17497   4.090   3.993   0.739  0.4909  0.5654 -0.9464
 4198WAT     H117498   4.013   4.034   0.739  0.6191  0.8684  0.6262
 4198WAT     H217499   4.069   3.910   0.753  0.4731  0.8293  0.8793
 4198WAT    EPW17500   4.075   3.987   0.741 -0.5407  0.1218  0.3475
 4199WAT      O17501   5.528   5.901   4.673 -0.0705  0.5471  0.4000
 4199WAT     H117502   5.486   5.825   4.673 -0.7868  0.9297 -0.5938
 4199WAT     H217503   5.471   5.955   4.711 -1.1182  1.3755 -2.1868
 4199WAT    EPW17504   5.514   5.898   4.679 -0.2162  0.1702 -0.2333
 4200WAT      O17505   7.027   0.074   2.250  0.0163  0.0331  0.4389
 4200WAT     H117506   6.957   0.051   2.204 -0.4327 -0.2129  1.2456
 4200WAT     H217507   7.046   0.003   2.297  0.1900  0.4335  0.9872
 4200WAT    EPW17508   7.020   0.060   2.250  0.4636 -0.1609  0.3344
 4201WAT      O17509   6.621   1.353   3.112  0.0300  0.1859 -0.4356
 4201WAT     H117510   6.702   1.385   3.105  0.2530 -0.0897  0.6588
 4201WAT     H217511   6.571   1.417   3.081  0.6818  0.2096 -1.5003
 4201WAT    EPW17512   6.626   1.367   3.107  0.4220 -0.4626 -0.3940
 4202WAT      O17513   3.487   2.384   1.226  0.1135 -0.2404 -0.2276
 4202WAT     H117514   3.454   2.316   1.182  0.7579 -0.5140 -0.3072
 4202WAT     H217515   3.493   2.355   1.308  0.6087 -0.3675 -0.3055
 4202WAT    EPW17516   3.483   2.370   1.232 -0.9145 -0.0742  0.3954
 4203WAT      O17517   3.544   0.674   3.353 -0.1483 -0.2804  0.5563
 4203WAT     H117518   3.561   0.748   3.397  0.9231  0.2785 -0.7342
 4203WAT     H217519   3.459   0.681   3.334 -0.3739 -0.0287  1.5915
 4203WAT    EPW17520   3.534   0.686   3.357 -0.2757 -0.0128 -0.5263
 4204WAT      O17521   6.562   1.266   5.205 -0.7394  0.3016  0.0648
 4204WAT     H117522   6.587   1.183   5.195 -1.1624 -0.1434  2.2214
 4204WAT     H217523   6.476   1.261   5.219 -0.6515  1.0116  0.9767
 4204WAT    EPW17524   6.553   1.253   5.205 -0.0118  0.1759 -0.4196
 4205WAT      O17525   5.035  -0.005   3.621 -0.3032 -0.5459  0.0467
 4205WAT     H117526   5.029   0.075   3.656 -1.4010 -0.0338 -1.2223
 4205WAT     H217527   5.054  -0.056   3.689  1.4740  0.9108  0.7204
 4205WAT    EPW17528   5.037  -0.001   3.636 -0.3640 -0.2323  0.0199
 4206WAT      O17529   2.825   6.661   6.142  0.4266  0.0752  0.6503
 4206WAT     H117530   2.791   6.592   6.185  0.7048  0.3266  1.2877
 4206WAT     H217531   2.851   6.627   6.066 -3.9547  0.3971 -1.2652
 4206WAT    EPW17532   2.824   6.646   6.137 -0.6037 -0.4061  0.2875
 4207WAT      O17533   5.174   0.938   7.484  0.2930  0.1856  0.1291
 4207WAT     H117534   5.257   0.912   7.488  0.3982  0.4824 -0.0372
 4207WAT     H217535   5.129   0.864   7.479  0.6461  0.0410 -1.2992
 4207WAT    EPW17536   5.179   0.924   7.484 -0.8747 -0.0218 -0.6852
 4208WAT      O17537   4.303   4.238   5.913 -0.2686  0.1044 -0.5457
 4208WAT     H117538   4.271   4.283   5.846 -3.0363  0.9988  1.2073
 4208WAT     H217539   4.260   4.269   5.982  0.3969 -2.6559  1.3080
 4208WAT    EPW17540   4.292   4.249   5.913 -0.6585 -0.1432 -0.0592
 4209WAT      O17541   6.099   0.228   1.465  0.8442  0.3239 -0.0016
 4209WAT     H117542   6.143   0.161   1.432 -0.5508 -0.7881  0.2887
 4209WAT     H217543   6.019   0.196   1.478  0.4197  1.7186  1.1917
 4209WAT    EPW17544   6.094   0.214   1.462 -0.2430 -0.4255 -0.2917
 4210WAT      O17545   6.956   7.476   3.353 -0.1122  0.3092  0.4856
 4210WAT     H117546   6.964   7.562   3.340 -0.7678  0.2761 -0.2307
 4210WAT     H217547   6.973   7.442   3.274 -0.9925 -0.1358  0.4758
 4210WAT    EPW17548   6.960   7.484   3.339  0.2068 -0.2490  0.0688
 4211WAT      O17549   0.822   2.012   1.117 -0.3517  0.2575  0.2710
 4211WAT     H117550   0.788   2.014   1.197 -2.1283 -0.2637 -0.4130
 4211WAT     H217551   0.898   2.053   1.126 -1.4163  2.1062  1.8301
 4211WAT    EPW17552   0.828   2.018   1.130 -0.1095  0.0739 -0.1364
 4212WAT      O17553   7.379   2.359   2.113 -0.0692 -0.4176  0.5577
 4212WAT     H117554   7.304   2.359   2.068 -0.4937  0.5449  1.2311
 4212WAT     H217555   7.379   2.283   2.155  0.2094 -1.2232 -0.8384
 4212WAT    EPW17556   7.368   2.348   2.112  0.7370 -0.4145 -0.9038
 4213WAT      O17557   5.205   3.829   6.782 -0.2789  0.3417  0.8063
 4213WAT     H117558   5.213   3.798   6.701  1.1430  0.3567  0.9023
 4213WAT     H217559   5.222   3.915   6.772 -1.1782  0.5452  0.9722
 4213WAT    EPW17560   5.209   3.837   6.769 -0.3970 -0.0626 -0.0637
 4214WAT      O17561   4.220   5.813   1.639  0.4974 -0.5040 -0.2808
 4214WAT     H117562   4.202   5.786   1.720  0.3852 -0.8616 -0.4214
 4214WAT     H217563   4.143   5.807   1.597  0.7179 -1.0769 -0.6185
 4214WAT    EPW17564   4.206   5.808   1.644  0.2184  0.2726  0.2556
 4215WAT      O17565   1.666   5.336   1.126  0.0271  0.4663  0.0232
 4215WAT     H117566   1.614   5.285   1.174 -0.5121 -0.3628 -1.3831
 4215WAT     H217567   1.611   5.396   1.095  0.0397  0.0447 -0.8415
 4215WAT    EPW17568   1.650   5.337   1.128 -0.0619  0.4067 -0.1739
 4216WAT      O17569   2.706   6.828   0.647  0.5739 -0.0111  0.1630
 4216WAT     H117570   2.707   6.814   0.561 -2.1360 -0.1638  0.0702
 4216WAT     H217571   2.760   6.767   0.678  1.6913  0.1270 -1.4252
 4216WAT    EPW17572   2.714   6.817   0.639 -0.7689  1.0825 -0.3708
 4217WAT      O17573   1.056   5.697   1.115  0.8738 -0.1662 -0.0171
 4217WAT     H117574   1.040   5.782   1.122  0.9447 -0.1018 -0.5753
 4217WAT     H217575   1.024   5.676   1.037  0.6596 -0.6998  0.2046
 4217WAT    EPW17576   1.049   5.706   1.105  0.5496  0.3986  0.4361
 4218WAT      O17577   7.020   2.249   1.588 -0.0506 -0.0847 -0.5797
 4218WAT     H117578   6.972   2.236   1.516 -0.1612 -3.1054 -0.1205
 4218WAT     H217579   6.966   2.292   1.641 -0.2062  1.5888 -2.0084
 4218WAT    EPW17580   7.005   2.253   1.585 -0.2340 -0.4376 -0.3465
 4219WAT      O17581   4.672   7.666   7.859 -0.0505  0.2643 -0.6458
 4219WAT     H117582   4.694   7.743   7.894 -1.6868  0.4599  0.0717
 4219WAT     H217583   4.735   7.612   7.886  1.8100  1.5452 -2.1797
 4219WAT    EPW17584   4.684   7.669   7.868 -0.2641 -0.5357  0.9807
 4220WAT      O17585   6.080   0.293   5.120  0.1223  0.0616  0.0412
 4220WAT     H117586   6.050   0.285   5.202 -3.4940  1.6959 -0.9363
 4220WAT     H217587   6.031   0.237   5.075 -0.3489  1.5967 -1.4426
 4220WAT    EPW17588   6.068   0.283   5.126 -0.0481 -0.6060  0.1213
 4221WAT      O17589   2.006   7.031   6.467 -0.0414  0.0422  0.3799
 4221WAT     H117590   2.062   7.027   6.534  0.7812 -1.7712 -0.3467
 4221WAT     H217591   1.931   7.056   6.505  1.1982  2.7029  1.3609
 4221WAT    EPW17592   2.003   7.034   6.483  0.1882 -0.0841  0.6734
 4222WAT      O17593   6.801   8.021   1.112  0.2769  0.2779  0.6454
 4222WAT     H117594   6.852   7.955   1.088  1.5541  1.4029  0.1415
 4222WAT     H217595   6.749   7.986   1.173 -1.8991 -2.2529 -2.3461
 4222WAT    EPW17596   6.801   8.006   1.118  0.0412  0.1354  0.0549
 4223WAT      O17597   7.265   1.327   3.295  0.2090 -0.0726 -0.7370
 4223WAT     H117598   7.291   1.371   3.224 -2.4390  1.9321 -0.5934
 4223WAT     H217599   7.195   1.282   3.266 -0.7374  0.5553  0.4929
 4223WAT    EPW17600   7.258   1.327   3.280  0.5799 -0.3273 -0.4776
 4224WAT      O17601   7.196   7.307   1.621 -0.4004  0.1149 -0.5991
 4224WAT     H117602   7.242   7.365   1.668  0.5923 -1.1207  0.0261
 4224WAT     H217603   7.115   7.339   1.623  0.4097  2.5802 -2.0517
 4224WAT    EPW17604   7.191   7.320   1.628  0.4247 -0.5153  0.3598
 4225WAT      O17605   6.546   5.559   1.376 -0.1093 -0.3392 -0.1787
 4225WAT     H117606   6.488   5.621   1.392 -0.4949 -0.9942  1.0877
 4225WAT     H217607   6.505   5.485   1.400  1.1380 -0.8397  0.4931
 4225WAT    EPW17608   6.532   5.557   1.382 -0.1113  0.2530 -0.1536
 4226WAT      O17609   4.061   3.709   0.718  0.1790 -0.1505  0.5661
 4226WAT     H117610   4.030   3.637   0.756 -0.3423  1.4546  3.6140
 4226WAT     H217611   4.146   3.695   0.713 -0.0424 -1.3943  0.0723
 4226WAT    EPW17612   4.069   3.697   0.723  0.2803 -0.0251  0.4550
 4227WAT      O17613   2.537   1.403   0.889 -0.2050 -0.2577  0.2997
 4227WAT     H117614   2.456   1.370   0.891 -0.4114  0.2717  1.9411
 4227WAT     H217615   2.587   1.332   0.888 -0.6520 -0.6073 -1.5871
 4227WAT    EPW17616   2.532   1.387   0.889  0.3408 -0.3392 -0.5558
 4228WAT      O17617   5.703   1.596   0.242 -0.6980  0.1886 -0.0150
 4228WAT     H117618   5.720   1.672   0.281  0.3568 -0.1415  0.1969
 4228WAT     H217619   5.705   1.615   0.157  0.8453  0.1756 -0.0122
 4228WAT    EPW17620   5.706   1.610   0.236 -0.5610  0.3244 -0.2973
 4229WAT      O17621   3.989   0.258   0.310 -0.4773  0.1969 -0.6319
 4229WAT     H117622   3.969   0.297   0.386 -3.0792 -0.7616 -0.7354
 4229WAT     H217623   4.021   0.180   0.335  1.5439  0.9852 -0.5269
 4229WAT    EPW17624   3.991   0.252   0.325  0.1802 -0.8328 -0.1712
 4230WAT      O17625   4.529   2.056   5.633  0.1298 -0.1258 -0.1248
 4230WAT     H117626   4.516   2.069   5.547  1.7160 -2.0516 -0.7521
 4230WAT     H217627   4.581   2.122   5.656 -0.0821  0.2580 -0.7128
 4230WAT    EPW17628   4.535   2.068   5.623  0.0187 -0.0522 -0.1209
 4231WAT      O17629   1.439   7.674   4.539 -0.2174  0.9109 -0.2026
 4231WAT     H117630   1.364   7.632   4.525 -0.2259  1.1529 -0.9295
 4231WAT     H217631   1.424   7.717   4.614  0.2426 -1.3631  1.3171
 4231WAT    EPW17632   1.425   7.674   4.548 -0.1810 -0.1713 -0.4057
 4232WAT      O17633   0.641   1.295   0.034 -0.2001 -0.1936 -0.3148
 4232WAT     H117634   0.711   1.322   0.079 -0.3443  0.4548 -0.4801
 4232WAT     H217635   0.605   1.369   0.005 -0.8771 -0.5334 -0.3501
 4232WAT    EPW17636   0.646   1.310   0.036 -0.0000  0.5075  0.8111
 4233WAT      O17637   7.656   1.975   2.034 -0.3004 -0.1956 -0.1961
 4233WAT     H117638   7.663   1.934   2.111  0.8983  1.0619  0.4186
 4233WAT     H217639   7.739   1.979   2.006  0.0581  3.4574  0.7709
 4233WAT    EPW17640   7.669   1.970   2.041 -0.3358 -0.4303  0.7690
 4234WAT      O17641   6.280   4.376  -0.000 -0.4085 -0.3519  0.4416
 4234WAT     H117642   6.227   4.309   0.019 -0.4659 -1.2211 -2.3008
 4234WAT     H217643   6.224   4.443  -0.010 -0.6061 -0.4393  0.9344
 4234WAT    EPW17644   6.264   4.376   0.001  0.0088 -0.2741  0.5622
 4235WAT      O17645   5.235   3.162   1.576 -0.2466  0.0602 -0.2398
 4235WAT     H117646   5.223   3.089   1.529 -1.1313 -0.8565  1.3376
 4235WAT     H217647   5.191   3.147   1.649  1.7567  1.0843  1.2802
 4235WAT    EPW17648   5.227   3.149   1.580  0.2290 -0.2307 -0.6659
 4236WAT      O17649   0.316   2.385   3.634 -0.4937  0.6660 -0.5597
 4236WAT     H117650   0.399   2.384   3.662 -1.1411  1.0343  1.5692
 4236WAT     H217651   0.271   2.354   3.702 -2.2274  1.5463 -1.2454
 4236WAT    EPW17652   0.322   2.380   3.648  0.3186  0.0193 -0.2236
 4237WAT      O17653   1.495   1.285   2.228  0.4161  0.2761  0.5305
 4237WAT     H117654   1.454   1.261   2.301  0.7475  1.5475  1.1624
 4237WAT     H217655   1.430   1.296   2.171  0.1106 -0.2034  0.7725
 4237WAT    EPW17656   1.479   1.283   2.231  0.1126  0.4720 -0.3379
 4238WAT      O17657   0.121   2.186   1.921 -0.2386  0.2696  0.0167
 4238WAT     H117658   0.196   2.153   1.894 -0.5598 -0.9789  0.5780
 4238WAT     H217659   0.096   2.238   1.856  0.7249  0.1101 -0.4927
 4238WAT    EPW17660   0.128   2.189   1.908  0.1135 -0.5204 -0.5818
 4239WAT      O17661   4.486   6.076   3.406 -0.9433 -0.6841 -0.6043
 4239WAT     H117662   4.437   6.004   3.408 -0.8054 -0.7670  0.1136
 4239WAT     H217663   4.455   6.120   3.338 -1.9261 -0.7915 -0.2344
 4239WAT    EPW17664   4.474   6.072   3.396  0.2619 -0.7632 -0.0219
 4240WAT      O17665   4.834   0.611   4.531  0.5065 -0.1109 -0.0040
 4240WAT     H117666   4.863   0.531   4.550  1.5730  0.4383  0.7585
 4240WAT     H217667   4.825   0.649   4.610 -1.4411  0.0545 -0.2505
 4240WAT    EPW17668   4.837   0.605   4.546  0.5365 -0.3681 -0.3337
 4241WAT      O17669   3.273   6.352   3.827 -0.0462 -0.1193 -0.5207
 4241WAT     H117670   3.305   6.404   3.765  3.0067 -0.7614  0.3433
 4241WAT     H217671   3.290   6.272   3.797  0.5539 -0.4533  0.6479
 4241WAT    EPW17672   3.280   6.348   3.813  0.2760 -0.1703 -0.6025
 4242WAT      O17673   5.336   0.088   7.118 -0.0887  0.0410 -0.1985
 4242WAT     H117674   5.380   0.071   7.192 -0.1532 -0.2759 -0.2345
 4242WAT     H217675   5.257   0.110   7.146 -0.0207  0.2405 -0.1565
 4242WAT    EPW17676   5.331   0.089   7.133 -0.2209 -0.2075  0.1061
 4243WAT      O17677   6.331   3.868   2.269  0.2497  0.0054  0.1369
 4243WAT     H117678   6.361   3.807   2.324 -0.1266 -0.9379 -0.6655
 4243WAT     H217679   6.388   3.933   2.277  1.8847 -1.2637 -0.4973
 4243WAT    EPW17680   6.344   3.869   2.278 -0.4121  0.4041  0.4428
 4244WAT      O17681   4.836   3.680   6.498  0.3449 -0.4450 -0.2792
 4244WAT     H117682   4.758   3.641   6.491  0.3919 -1.1448  2.2963
 4244WAT     H217683   4.892   3.613   6.504  1.1425  0.0615 -1.5469
 4244WAT    EPW17684   4.833   3.664   6.498 -0.2861  0.6996 -0.3913
 4245WAT      O17685   2.772   0.583   5.269  0.6155 -0.2098  0.1198
 4245WAT     H117686   2.843   0.611   5.311  0.1871  1.2192 -0.0470
 4245WAT     H217687   2.771   0.630   5.196 -0.2193 -0.5777 -0.1176
 4245WAT    EPW17688   2.782   0.594   5.265 -0.4123 -0.2267  0.0585
 4246WAT      O17689   6.156   4.501   5.903 -0.1447  0.6330 -0.2679
 4246WAT     H117690   6.207   4.570   5.919 -0.4279  0.6503  0.6351
 4246WAT     H217691   6.075   4.536   5.902 -0.3062  0.2862  0.3981
 4246WAT    EPW17692   6.151   4.516   5.905  0.0613  0.0689  0.1173
 4247WAT      O17693   4.173   6.931   1.302  0.3919 -0.3849  0.1295
 4247WAT     H117694   4.178   6.854   1.342 -0.6268 -1.3915 -1.5509
 4247WAT     H217695   4.128   6.914   1.229 -1.7049  2.2149  0.6551
 4247WAT    EPW17696   4.167   6.917   1.297 -0.1372  0.2571 -0.2390
 4248WAT      O17697   7.246   5.752   0.384  0.5125  0.0299  0.5862
 4248WAT     H117698   7.328   5.728   0.368  1.3781  2.6381  0.6227
 4248WAT     H217699   7.250   5.791   0.462 -0.9113 -0.3245  0.8729
 4248WAT    EPW17700   7.259   5.754   0.393  0.5693 -0.4543 -0.6250
 4249WAT      O17701   6.378   5.639   1.730 -0.3195  0.1495 -0.5009
 4249WAT     H117702   6.380   5.649   1.816 -0.1629  0.0596 -0.4945
 4249WAT     H217703   6.460   5.615   1.710 -0.6453 -0.9913 -0.5366
 4249WAT    EPW17704   6.390   5.637   1.740 -0.1485 -0.3151  0.6850
 4250WAT      O17705   4.306   7.944   5.940  0.0874  0.1883 -0.6268
 4250WAT     H117706   4.267   7.911   5.869 -0.7982 -0.3054  0.0713
 4250WAT     H217707   4.270   8.023   5.949 -0.4771 -0.1189 -0.1961
 4250WAT    EPW17708   4.295   7.951   5.931  0.1404  0.1866 -0.6032
 4251WAT      O17709   3.541   1.188   7.144  0.4932 -0.0164 -0.3482
 4251WAT     H117710   3.576   1.140   7.081  1.4863  0.4704 -0.1835
 4251WAT     H217711   3.501   1.252   7.101  0.2343 -0.2930 -0.5205
 4251WAT    EPW17712   3.540   1.190   7.128 -0.1683  0.1493 -0.4276
 4252WAT      O17713   2.375   7.527   2.167 -0.2188 -0.0045  0.3822
 4252WAT     H117714   2.300   7.534   2.211 -0.9904 -1.8606 -0.5161
 4252WAT     H217715   2.377   7.601   2.120 -2.3725 -0.6009 -0.8041
 4252WAT    EPW17716   2.364   7.539   2.166 -0.9925  0.0971  0.2285
 4253WAT      O17717   3.810   1.115   0.757 -0.4007  0.3083  0.2853
 4253WAT     H117718   3.757   1.139   0.821  0.7765 -1.0361  1.8428
 4253WAT     H217719   3.832   1.033   0.777  0.5033  0.0521 -1.4996
 4253WAT    EPW17720   3.806   1.106   0.769  0.2089  0.0012  0.2437
 4254WAT      O17721   6.789   2.000   4.395 -0.4352 -0.7930  0.2178
 4254WAT     H117722   6.710   1.993   4.431 -0.8610 -1.0142 -0.7219
 4254WAT     H217723   6.792   1.933   4.339  1.3076 -2.1775  1.8291
 4254WAT    EPW17724   6.778   1.989   4.392  0.6938 -0.2931 -0.0369
 4255WAT      O17725   2.990   4.583   4.644 -0.0426 -0.2506 -0.0632
 4255WAT     H117726   2.959   4.626   4.713 -0.3621 -1.4136  0.5489
 4255WAT     H217727   3.066   4.551   4.672  0.8931  1.0586 -0.9713
 4255WAT    EPW17728   2.996   4.584   4.658  0.0160 -0.1717  0.1113
 4256WAT      O17729   5.034   1.395   0.480 -0.1559  0.5316  0.3024
 4256WAT     H117730   5.091   1.370   0.419  0.1172  1.0697  0.3288
 4256WAT     H217731   5.001   1.469   0.448 -1.1383  0.0329  0.1085
 4256WAT    EPW17732   5.038   1.402   0.466  0.2942 -0.1134 -0.0900
 4257WAT      O17733   3.226   2.832   6.502  0.1594 -0.2685  0.2854
 4257WAT     H117734   3.262   2.755   6.481  1.4735  0.4215 -0.0686
 4257WAT     H217735   3.294   2.884   6.514 -0.3932 -0.1668  4.9276
 4257WAT    EPW17736   3.241   2.828   6.501 -0.7625  0.0739 -0.6495
 4258WAT      O17737   6.782   2.664   0.761  0.3801  0.5215  0.1451
 4258WAT     H117738   6.740   2.647   0.835  0.5569  1.3954  0.4507
 4258WAT     H217739   6.861   2.630   0.774  0.0532 -0.3923 -0.1179
 4258WAT    EPW17740   6.787   2.656   0.774 -0.6028 -0.0746 -0.0432
 4259WAT      O17741   5.764   1.813   1.739 -0.0655  0.7215 -0.7658
 4259WAT     H117742   5.709   1.751   1.716 -0.0680  0.2006  0.5359
 4259WAT     H217743   5.811   1.776   1.803  0.6973  1.6789 -0.7450
 4259WAT    EPW17744   5.763   1.799   1.745 -0.3821 -0.1233  0.0431
 4260WAT      O17745   4.410   3.625   6.659 -0.1100 -0.0093  0.1987
 4260WAT     H117746   4.382   3.697   6.700  0.2372  0.0362  0.3607
 4260WAT     H217747   4.371   3.560   6.702  0.8719 -0.0108  1.1364
 4260WAT    EPW17748   4.400   3.626   6.671 -0.4239  0.2373  0.1978
 4261WAT      O17749   3.702   0.004   5.106 -0.4277 -0.1660 -0.3552
 4261WAT     H117750   3.629   0.019   5.152  0.7420 -1.7474  2.2375
 4261WAT     H217751   3.760   0.058   5.143 -0.0239  0.3845 -1.7550
 4261WAT    EPW17752   3.700   0.014   5.118 -0.1211 -0.3124  0.2680
 4262WAT      O17753   5.850   1.544   7.498  0.1115 -0.0290  0.4634
 4262WAT     H117754   5.845   1.476   7.444 -1.1092  0.3440  0.0467
 4262WAT     H217755   5.896   1.515   7.565  0.5283 -0.9250 -0.1928
 4262WAT    EPW17756   5.856   1.530   7.500  0.2692  0.1582  0.0836
 4263WAT      O17757   6.898   3.238   4.471 -0.1799  0.0298  0.3549
 4263WAT     H117758   6.916   3.210   4.551 -0.4773  0.2937  0.5168
 4263WAT     H217759   6.837   3.298   4.484 -0.8654 -0.5412 -0.1392
 4263WAT    EPW17760   6.892   3.243   4.484  0.1479 -0.3290 -0.0796
 4264WAT      O17761   3.634   7.240   0.678  0.1589  0.6777  0.1193
 4264WAT     H117762   3.679   7.301   0.634  2.0775 -0.7638 -0.0439
 4264WAT     H217763   3.561   7.230   0.631  0.7068  1.4410 -0.9313
 4264WAT    EPW17764   3.630   7.248   0.664 -0.6200 -0.0737  0.4249
 4265WAT      O17765   2.213   1.843   6.311 -0.5377 -0.1272  0.3198
 4265WAT     H117766   2.278   1.830   6.255  0.3323  0.0967  1.2426
 4265WAT     H217767   2.237   1.796   6.381 -1.2665  0.1322  0.7603
 4265WAT    EPW17768   2.226   1.834   6.313  0.1964  0.1910 -0.4640
 4266WAT      O17769   5.467   2.373   3.675  0.2376  0.0453 -0.0315
 4266WAT     H117770   5.465   2.393   3.760  1.2000  0.6580 -0.1351
 4266WAT     H217771   5.531   2.423   3.644 -0.3683  0.1265 -1.2041
 4266WAT    EPW17772   5.476   2.383   3.683 -0.3472 -0.5146 -0.1122
 4267WAT      O17773   0.728   1.214   1.393 -0.0163 -0.0482 -0.4403
 4267WAT     H117774   0.707   1.140   1.351 -0.9890 -0.9270  1.4629
 4267WAT     H217775   0.682   1.275   1.351 -0.5080 -0.7987 -1.0210
 4267WAT    EPW17776   0.718   1.212   1.380 -0.6886  0.3057  0.4903
 4268WAT      O17777   4.048   6.204   1.292  0.2281 -0.4694  0.0268
 4268WAT     H117778   3.985   6.224   1.235 -1.0432 -2.9264  0.4295
 4268WAT     H217779   4.050   6.273   1.346 -1.5871  0.0083 -0.4633
 4268WAT    EPW17780   4.039   6.217   1.292 -0.1612  0.2066  0.3687
 4269WAT      O17781   6.887   0.229   3.244  0.2553 -0.3057 -0.3058
 4269WAT     H117782   6.847   0.217   3.167  0.7493  0.7733 -0.7585
 4269WAT     H217783   6.861   0.309   3.268 -0.0717 -0.7259  0.7772
 4269WAT    EPW17784   6.877   0.239   3.236 -0.0784 -0.0893 -0.4731
 4270WAT      O17785   4.647   4.709   5.612 -0.2831 -0.7910  0.2965
 4270WAT     H117786   4.639   4.628   5.645 -1.5657 -1.5711 -1.7087
 4270WAT     H217787   4.605   4.704   5.536 -2.1148  2.2957  0.9276
 4270WAT    EPW17788   4.640   4.696   5.606  0.1175 -0.1757  0.2608
 4271WAT      O17789   4.278   3.807   7.255  0.0802  0.3912  0.5641
 4271WAT     H117790   4.332   3.796   7.323  1.8402 -0.8115 -0.9223
 4271WAT     H217791   4.220   3.865   7.284 -0.3547 -1.4011  3.7052
 4271WAT    EPW17792   4.278   3.814   7.269  0.2703  0.6965  0.2255
 4272WAT      O17793   2.786   5.774   7.140 -0.2825  0.1585 -0.5801
 4272WAT     H117794   2.741   5.704   7.114 -2.5266  0.7735  1.3582
 4272WAT     H217795   2.762   5.835   7.083 -0.0839 -0.0625 -0.9096
 4272WAT    EPW17796   2.776   5.772   7.128  0.3198 -0.0500 -0.7198
 4273WAT      O17797   4.853   0.546   6.263 -1.0875  0.3291 -0.2937
 4273WAT     H117798   4.787   0.549   6.320  1.1290  0.0906  2.5469
 4273WAT     H217799   4.848   0.464   6.232 -0.7685 -0.5658  1.7965
 4273WAT    EPW17800   4.842   0.534   6.267 -0.0049  0.7856 -0.0145
 4274WAT      O17801   6.871   4.415   0.471 -0.1973 -0.1105 -0.4208
 4274WAT     H117802   6.842   4.454   0.398  3.5255  1.5587 -1.2666
 4274WAT     H217803   6.932   4.359   0.441  0.5899 -0.2568  1.3180
 4274WAT    EPW17804   6.876   4.413   0.456 -0.0095 -0.3408  0.4096
 4275WAT      O17805   5.498   5.442   5.903 -0.5248 -0.0460 -0.3938
 4275WAT     H117806   5.555   5.491   5.858  1.8554  0.0638  2.4510
 4275WAT     H217807   5.524   5.361   5.888 -0.3489 -0.0630 -0.0085
 4275WAT    EPW17808   5.510   5.437   5.894 -0.3235 -0.3435  0.6878
 4276WAT      O17809   3.194   2.226   2.347 -0.3533  0.1163 -0.2380
 4276WAT     H117810   3.195   2.174   2.277 -2.0171  0.1445 -0.3074
 4276WAT     H217811   3.206   2.170   2.413  0.1527 -0.0424 -0.4545
 4276WAT    EPW17812   3.196   2.210   2.346  0.2192  0.3391 -0.4727
 4277WAT      O17813   5.314   0.720   7.792 -0.1575  0.0983  0.1286
 4277WAT     H117814   5.384   0.672   7.814  0.4815  0.8799 -0.1606
 4277WAT     H217815   5.334   0.749   7.712 -1.9888 -1.8514 -1.1420
 4277WAT    EPW17816   5.327   0.717   7.784 -0.0917  0.2166  0.0049
 4278WAT      O17817   3.425   6.935   1.162 -0.3741  0.3923 -0.2336
 4278WAT     H117818   3.472   6.927   1.234 -1.2976  0.0836  0.3527
 4278WAT     H217819   3.461   6.877   1.107  0.3523  0.6584 -0.0390
 4278WAT    EPW17820   3.437   6.925   1.164 -0.2863 -0.5527 -0.0631
 4279WAT      O17821   5.646   2.134   6.465  0.1550  0.0701  0.2471
 4279WAT     H117822   5.732   2.119   6.477  0.0349 -0.4607  0.4928
 4279WAT     H217823   5.632   2.102   6.385  0.1470 -0.0272  0.2871
 4279WAT    EPW17824   5.657   2.127   6.455  0.7226  0.3416 -0.9108
 4280WAT      O17825   7.369   2.643   0.729  0.1718  0.0295 -0.3448
 4280WAT     H117826   7.374   2.640   0.816 -0.9356 -1.2345 -0.3116
 4280WAT     H217827   7.397   2.564   0.704 -1.2144 -0.2676 -1.0309
 4280WAT    EPW17828   7.374   2.631   0.738  0.2444  0.2522  0.2834
 4281WAT      O17829   2.615   1.456   6.939  0.1424 -0.6418 -0.0130
 4281WAT     H117830   2.627   1.448   7.025  0.8610  1.2830  0.1034
 4281WAT     H217831   2.689   1.426   6.904  0.4434 -0.0669  0.1225
 4281WAT    EPW17832   2.628   1.450   6.946 -0.0646 -0.1224  0.0476
 4282WAT      O17833   3.249   1.816   7.449 -0.0906 -0.0440 -0.2983
 4282WAT     H117834   3.199   1.808   7.378  0.7180  0.9771 -1.0137
 4282WAT     H217835   3.328   1.789   7.422  0.0673 -0.3301  0.4223
 4282WAT    EPW17836   3.253   1.810   7.435 -0.0851  0.8440 -0.0782
 4283WAT      O17837   4.491   3.196   4.940 -0.6574 -0.1135  0.1615
 4283WAT     H117838   4.545   3.260   4.915 -0.0168  0.2756  2.3093
 4283WAT     H217839   4.535   3.123   4.920 -0.9682  0.0915 -1.4077
 4283WAT    EPW17840   4.506   3.195   4.933  0.0397  0.9591  0.0757
 4284WAT      O17841   6.169   3.703   6.298 -0.5370  0.4347 -0.3276
 4284WAT     H117842   6.215   3.701   6.372 -0.7200  2.3928 -0.1172
 4284WAT     H217843   6.086   3.696   6.326 -0.5260 -0.8727 -0.5415
 4284WAT    EPW17844   6.163   3.702   6.313 -0.6200  0.4385  0.7490
 4285WAT      O17845   4.555   1.337   0.785 -0.0281 -0.0099 -0.3231
 4285WAT     H117846   4.534   1.328   0.701  0.4301  0.2029 -0.4617
 4285WAT     H217847   4.635   1.301   0.790  0.7912  1.6957 -0.3856
 4285WAT    EPW17848   4.564   1.330   0.773  0.0891 -0.0744  0.2592
 4286WAT      O17849   7.108   3.326   4.299 -0.4968  0.1088 -0.2859
 4286WAT     H117850   7.076   3.337   4.219 -0.9560  0.7646 -0.0207
 4286WAT     H217851   7.039   3.302   4.346 -0.2728 -0.0574 -0.0327
 4286WAT    EPW17852   7.093   3.324   4.294  0.0064 -0.6017 -0.2675
 4287WAT      O17853   1.839   1.815   2.773  0.4689 -0.3372  0.6983
 4287WAT     H117854   1.764   1.810   2.818  0.0582  0.0500  0.0783
 4287WAT     H217855   1.885   1.874   2.817 -0.3009  0.7381  0.1179
 4287WAT    EPW17856   1.835   1.823   2.786 -0.3282 -0.1550 -0.4544
 4288WAT      O17857   2.183   0.425   0.936  0.1741  0.1664 -0.3244
 4288WAT     H117858   2.175   0.339   0.947  1.1669  0.2279  1.0953
 4288WAT     H217859   2.172   0.436   0.850  0.9425 -1.4770 -0.6699
 4288WAT    EPW17860   2.180   0.414   0.925  0.1194  0.2512 -0.5602
 4289WAT      O17861   5.737   7.208   4.655 -0.1151  0.5745 -0.5187
 4289WAT     H117862   5.798   7.151   4.631  1.5499  2.0409  0.0123
 4289WAT     H217863   5.729   7.195   4.741 -1.7040 -0.6136 -0.7980
 4289WAT    EPW17864   5.745   7.198   4.664  0.8107  0.2345  0.0023
 4290WAT      O17865   4.960   5.725   0.202  0.2740  0.0687 -0.1295
 4290WAT     H117866   4.991   5.648   0.175  0.8464  0.7331 -1.4056
 4290WAT     H217867   5.029   5.765   0.237  0.3869  0.7128 -1.0780
 4290WAT    EPW17868   4.975   5.719   0.203 -0.6748  0.4988 -0.6806
 4291WAT      O17869   2.388   3.618   0.223  0.1801 -0.2339 -0.3440
 4291WAT     H117870   2.408   3.678   0.163 -0.2052 -0.2496 -0.4906
 4291WAT     H217871   2.415   3.654   0.298 -0.0033  0.1009 -0.4373
 4291WAT    EPW17872   2.395   3.632   0.225 -0.1713 -0.3307  0.1135
 4292WAT      O17873   2.581   2.409   6.181  0.4591  0.4408  0.0571
 4292WAT     H117874   2.598   2.477   6.233 -0.3319 -0.3443  1.4352
 4292WAT     H217875   2.654   2.361   6.186  1.0825  1.2313 -1.0507
 4292WAT    EPW17876   2.594   2.412   6.190 -0.4747  0.1767 -0.4346
 4293WAT      O17877   6.667   1.130   1.549 -0.3277 -0.3370  0.2899
 4293WAT     H117878   6.675   1.127   1.636  1.3119  0.6461  0.2217
 4293WAT     H217879   6.689   1.050   1.523 -2.0036 -1.0075  0.8093
 4293WAT    EPW17880   6.672   1.118   1.558 -0.2911 -0.2392 -0.3357
 4294WAT      O17881   4.261   4.207   2.107 -0.5109 -0.1636 -0.5272
 4294WAT     H117882   4.197   4.171   2.155 -0.1828 -1.8992 -1.3123
 4294WAT     H217883   4.321   4.144   2.103  1.1764  1.3149 -0.0505
 4294WAT    EPW17884   4.260   4.192   2.114  0.3904 -0.0793 -0.2704
 4295WAT      O17885   2.787   6.486   2.621  0.2678 -0.4327 -0.0642
 4295WAT     H117886   2.842   6.533   2.572  1.9487 -1.8003  0.4170
 4295WAT     H217887   2.779   6.535   2.693  2.1049 -0.8703  0.4904
 4295WAT    EPW17888   2.794   6.500   2.625 -0.1174 -0.5468 -0.4726
 4296WAT      O17889   5.371   4.810   1.935  0.1050 -0.0303  0.5556
 4296WAT     H117890   5.300   4.860   1.929  0.2955  0.3455  1.3783
 4296WAT     H217891   5.393   4.814   2.019  3.0442  2.5826 -0.1251
 4296WAT    EPW17892   5.364   4.818   1.946 -0.4073 -0.3976  0.0225
 4297WAT      O17893   2.269   2.275   6.270  0.2867 -0.3172 -0.2758
 4297WAT     H117894   2.316   2.294   6.199 -1.3659 -0.2744 -1.4169
 4297WAT     H217895   2.302   2.328   6.331 -0.7749  2.6395 -2.0304
 4297WAT    EPW17896   2.281   2.286   6.268  0.3650  0.5921  0.0874
 4298WAT      O17897   5.978   0.342   6.940  0.7634  0.2564 -0.4548
 4298WAT     H117898   5.999   0.359   7.023  1.1383 -1.4401 -0.1589
 4298WAT     H217899   5.902   0.300   6.946  0.5036  0.6378 -1.0206
 4298WAT    EPW17900   5.970   0.338   6.953  0.1685 -0.9147  0.5053
 4299WAT      O17901   3.053   1.448   7.426  0.1824 -0.8238  0.1977
 4299WAT     H117902   3.044   1.504   7.360  1.0481 -0.9856 -0.0826
 4299WAT     H217903   2.974   1.444   7.462 -0.0468  0.0589 -0.1932
 4299WAT    EPW17904   3.040   1.455   7.421 -0.0193 -0.0284 -0.1089
 4300WAT      O17905   5.107   4.141   1.125  0.0700  0.4005  0.2375
 4300WAT     H117906   5.096   4.075   1.181  1.3943  0.3283  0.4395
 4300WAT     H217907   5.028   4.150   1.089 -0.2342 -1.0419  0.4703
 4300WAT    EPW17908   5.094   4.132   1.128  0.2770 -0.0457 -0.2549
 4301WAT      O17909   1.860   7.269   4.835  0.0159  0.3199  0.1230
 4301WAT     H117910   1.890   7.205   4.887 -1.4827  1.7159  2.8951
 4301WAT     H217911   1.801   7.228   4.786 -0.4252 -0.6124  1.3502
 4301WAT    EPW17912   1.856   7.253   4.836 -0.3525  0.5768 -0.1636
 4302WAT      O17913   5.331   2.388   7.522 -0.3017 -0.0375  0.3481
 4302WAT     H117914   5.308   2.408   7.440  1.5265 -0.6969 -0.3842
 4302WAT     H217915   5.324   2.301   7.525 -0.3595 -0.0157  0.8894
 4302WAT    EPW17916   5.327   2.378   7.510 -0.2500  0.3635 -0.0832
 4303WAT      O17917   7.254   6.261   0.619  0.1254  0.0037 -0.1365
 4303WAT     H117918   7.196   6.231   0.561  0.1316 -0.7839  0.2565
 4303WAT     H217919   7.241   6.347   0.618 -0.9932 -0.1533 -0.1252
 4303WAT    EPW17920   7.244   6.269   0.610  0.5308  0.1019  0.4080
 4304WAT      O17921   5.858   1.647   6.718  0.1444 -0.2323 -0.2550
 4304WAT     H117922   5.858   1.678   6.636  2.6253  0.0508 -0.2160
 4304WAT     H217923   5.805   1.702   6.760  1.9592  2.1723 -0.8646
 4304WAT    EPW17924   5.850   1.660   6.712  0.2017  0.2330 -0.3613
 4305WAT      O17925   4.777   6.659   7.738 -0.3182  0.1186 -0.2114
 4305WAT     H117926   4.698   6.623   7.741 -0.5103  0.4882 -0.7734
 4305WAT     H217927   4.830   6.590   7.730 -0.8583 -0.0328 -4.2749
 4305WAT    EPW17928   4.773   6.643   7.738  0.1205 -1.0566 -0.4251
 4306WAT      O17929   4.959   7.831   2.126  0.5937  0.3033 -0.0334
 4306WAT     H117930   5.017   7.873   2.176 -1.1437  0.9628  1.5454
 4306WAT     H217931   4.888   7.828   2.175 -0.6906 -0.6347 -1.8291
 4306WAT    EPW17932   4.957   7.837   2.141  0.3948 -0.2834  0.5471
 4307WAT      O17933   6.103   0.669   1.505  0.1680 -0.2257 -0.0266
 4307WAT     H117934   6.048   0.737   1.507  1.2023  0.6646 -0.5932
 4307WAT     H217935   6.118   0.656   1.420  1.5076  0.1551  0.1204
 4307WAT    EPW17936   6.097   0.677   1.493 -0.1072  0.3555  0.2985
 4308WAT      O17937   6.515   7.791   2.563  0.0945  0.4122 -0.5943
 4308WAT     H117938   6.490   7.765   2.483 -1.1098  0.4657 -0.2547
 4308WAT     H217939   6.564   7.725   2.592 -0.0916  0.0503 -1.0839
 4308WAT    EPW17940   6.519   7.778   2.555  0.6137  0.5261 -0.1325
 4309WAT      O17941   4.135   0.928   0.076 -0.1240  0.5030  0.1180
 4309WAT     H117942   4.117   0.962  -0.002  0.0351 -2.8128 -1.5234
 4309WAT     H217943   4.212   0.964   0.096 -0.5974  2.1099 -0.7926
 4309WAT    EPW17944   4.144   0.938   0.067  0.2352 -0.2226  0.0529
 4310WAT      O17945   6.077   3.956   1.628  0.3596 -0.3107  0.1371
 4310WAT     H117946   6.057   4.006   1.560  1.1289 -0.1628  0.0170
 4310WAT     H217947   6.077   4.011   1.695 -0.7284 -0.5153  0.3247
 4310WAT    EPW17948   6.074   3.971   1.628  0.3217 -0.0613  0.1739
 4311WAT      O17949   2.639   7.969   5.919 -0.2477  0.4578  0.1636
 4311WAT     H117950   2.616   8.053   5.917 -0.8684  0.2795 -0.4235
 4311WAT     H217951   2.563   7.927   5.913 -0.0258 -0.1583  1.3385
 4311WAT    EPW17952   2.624   7.976   5.918 -0.8455  0.6652  0.1592
 4312WAT      O17953   7.202   5.487   1.856 -0.1450 -0.5149  0.4674
 4312WAT     H117954   7.121   5.482   1.887 -0.9262 -2.1470 -1.5905
 4312WAT     H217955   7.190   5.513   1.773  1.7969  3.7496  1.2603
 4312WAT    EPW17956   7.189   5.490   1.848  0.1063  0.1749 -0.1148
 4313WAT      O17957   5.000   2.953   7.593 -0.1198 -0.4126  0.1672
 4313WAT     H117958   4.991   3.005   7.524  2.3574  1.5065  1.1090
 4313WAT     H217959   4.925   2.963   7.636 -1.1264 -0.5077 -1.4880
 4313WAT    EPW17960   4.988   2.962   7.589  0.3407  0.0720 -0.6386
 4314WAT      O17961   4.542   1.319   6.848  0.0084  0.3558  0.7178
 4314WAT     H117962   4.544   1.359   6.926  1.5330 -2.5995  2.3643
 4314WAT     H217963   4.605   1.358   6.803  0.5454  0.7090  1.7575
 4314WAT    EPW17964   4.551   1.331   6.853  0.7575 -0.4025 -0.8538
 4315WAT      O17965   2.786   3.330   7.892 -0.0128 -0.2132  0.4761
 4315WAT     H117966   2.711   3.298   7.924 -0.5567  0.0079 -0.5495
 4315WAT     H217967   2.763   3.407   7.857  0.8314  0.1891  0.7788
 4315WAT    EPW17968   2.771   3.337   7.892 -0.0916 -0.5327  1.0888
 4316WAT      O17969   6.158   0.758   0.292  0.5563 -0.7108 -0.1269
 4316WAT     H117970   6.166   0.842   0.317  0.9029 -0.9199  0.4826
 4316WAT     H217971   6.226   0.747   0.238  0.5382 -0.6104 -0.1717
 4316WAT    EPW17972   6.169   0.769   0.288  0.0254  0.5890 -0.2603
 4317WAT      O17973   2.592   2.364   5.193 -0.0080 -0.0037 -0.2559
 4317WAT     H117974   2.576   2.443   5.228 -0.1085  0.6898 -1.7854
 4317WAT     H217975   2.520   2.319   5.212 -0.1739  0.4364  0.1944
 4317WAT    EPW17976   2.579   2.369   5.201 -0.1075  0.2521 -0.1702
 4318WAT      O17977   5.374   5.904   1.701 -0.2207  0.1146  0.2950
 4318WAT     H117978   5.303   5.903   1.751  0.3143  2.6860  1.2788
 4318WAT     H217979   5.370   5.829   1.657 -0.7924 -2.3310  4.0814
 4318WAT    EPW17980   5.363   5.893   1.701  0.2361  0.0397 -0.0556
 4319WAT      O17981   7.586   1.484   3.921 -0.4417  0.0635  0.9232
 4319WAT     H117982   7.508   1.446   3.913  0.3148 -1.1574 -2.6493
 4319WAT     H217983   7.577   1.560   3.880  0.5311 -0.7524 -0.9201
 4319WAT    EPW17984   7.573   1.489   3.914 -0.1803 -0.1011 -0.0727
 4320WAT      O17985   2.398   1.153   0.116 -0.0673  0.6304 -0.5767
 4320WAT     H117986   2.457   1.133   0.177 -0.2942  1.0789 -0.2037
 4320WAT     H217987   2.446   1.191   0.053 -0.0595  1.7081  0.0680
 4320WAT    EPW17988   2.414   1.155   0.115 -0.2772 -0.2182 -0.5022
 4321WAT      O17989   1.449   4.703   0.280 -0.0928  0.1761 -0.6785
 4321WAT     H117990   1.412   4.777   0.252 -0.4314 -0.4288 -1.8873
 4321WAT     H217991   1.489   4.672   0.209 -1.3847 -1.6789 -0.6718
 4321WAT    EPW17992   1.450   4.710   0.266  0.2185  0.1081 -0.0449
 4322WAT      O17993   5.185   0.390   5.813 -0.4821  0.2342 -1.1254
 4322WAT     H117994   5.253   0.401   5.867 -0.4673 -0.5455 -0.9735
 4322WAT     H217995   5.129   0.342   5.861 -1.0092  0.5985 -1.3621
 4322WAT    EPW17996   5.187   0.385   5.828  0.4325  0.2146 -0.0156
 4323WAT      O17997   6.215   3.488   4.995 -0.1484  0.3551  0.3302
 4323WAT     H117998   6.222   3.401   4.989  0.9587  0.5037 -0.6324
 4323WAT     H217999   6.211   3.502   5.081 -2.4930 -0.7805  0.4994
 4323WAT    EPW18000   6.215   3.477   5.007 -0.1532 -0.5049  0.5965
 4324WAT      O18001   0.547   3.592   0.772 -0.0691 -0.0508 -0.0178
 4324WAT     H118002   0.575   3.644   0.837 -0.6517  1.5139 -0.9725
 4324WAT     H218003   0.465   3.617   0.759 -1.0666 -2.6056  0.7948
 4324WAT    EPW18004   0.539   3.603   0.780  0.3438  0.0803  0.2664
 4325WAT      O18005   2.376   7.959   4.708 -0.0923  0.4859  0.2979
 4325WAT     H118006   2.347   7.903   4.648 -0.7726 -2.5624  3.1811
 4325WAT     H218007   2.304   8.000   4.736 -0.5741 -1.4013  2.0328
 4325WAT    EPW18008   2.361   7.957   4.703 -0.3879 -0.4155  0.0442
 4326WAT      O18009   3.491   2.354   3.228 -0.2258  0.0914  0.5105
 4326WAT     H118010   3.491   2.356   3.315  0.8891 -0.1699  0.5370
 4326WAT     H218011   3.506   2.436   3.205 -0.0916  0.0848  0.5743
 4326WAT    EPW18012   3.493   2.366   3.237 -0.4400  0.4207 -0.8142
 4327WAT      O18013   4.348   5.773   5.824  0.5303  0.2441 -0.3582
 4327WAT     H118014   4.410   5.825   5.792  1.0352 -0.2568 -0.2099
 4327WAT     H218015   4.352   5.787   5.910 -0.1027  0.7933 -0.4088
 4327WAT    EPW18016   4.357   5.783   5.832 -0.0575 -0.7255  0.3289
 4328WAT      O18017   6.362   4.466   5.423  0.1548 -0.2753 -0.0424
 4328WAT     H118018   6.434   4.434   5.387  0.7071  1.0101 -0.1245
 4328WAT     H218019   6.377   4.552   5.427 -0.3228 -0.2394  2.2391
 4328WAT    EPW18020   6.375   4.474   5.418  0.2312 -0.3116 -0.8182
 4329WAT      O18021   4.478   2.803   5.607 -0.1448  0.1660 -0.0114
 4329WAT     H118022   4.427   2.836   5.669  0.6472  2.4718 -0.4943
 4329WAT     H218023   4.422   2.777   5.545 -0.8163 -0.0027  0.6495
 4329WAT    EPW18024   4.462   2.804   5.607 -0.7969 -0.2531 -0.5762
 4330WAT      O18025   5.509   0.108   0.023  0.3483  0.2044  0.1613
 4330WAT     H118026   5.535   0.059   0.090  0.8708  1.2627  0.7590
 4330WAT     H218027   5.483   0.183   0.060  0.3717  0.7003 -0.7803
 4330WAT    EPW18028   5.509   0.112   0.038  0.0537 -0.6835  0.1457
 4331WAT      O18029   5.037   7.756   4.654 -0.0023 -0.0585  0.6077
 4331WAT     H118030   5.105   7.783   4.703  0.0206  0.0883  0.4972
 4331WAT     H218031   5.035   7.814   4.589 -0.7757  0.4528  1.0741
 4331WAT    EPW18032   5.047   7.769   4.652  0.9671  0.5465  0.0504
 4332WAT      O18033   3.940   6.891   7.894 -0.5598  0.8445 -0.0471
 4332WAT     H118034   3.891   6.928   7.832 -0.5181  0.3441 -0.3776
 4332WAT     H218035   3.907   6.811   7.902  0.9348  0.0532 -1.1475
 4332WAT    EPW18036   3.928   6.885   7.886  0.0478  0.1586 -0.1060
 4333WAT      O18037   3.128   5.953   2.949 -0.2382 -0.0066  0.3868
 4333WAT     H118038   3.119   6.034   2.918 -1.4086 -0.4815 -0.5957
 4333WAT     H218039   3.145   5.906   2.878 -0.4059 -0.7540  0.8309
 4333WAT    EPW18040   3.129   5.958   2.934 -0.1418 -0.2117 -0.1154
 4334WAT      O18041   6.512   2.843   0.274 -0.5427 -0.6901 -0.4705
 4334WAT     H118042   6.482   2.925   0.282 -0.8282 -0.6708 -1.5258
 4334WAT     H218043   6.483   2.803   0.346 -2.0537 -0.3529 -0.8634
 4334WAT    EPW18044   6.503   2.849   0.286  0.5878  0.0796 -0.5891
 4335WAT      O18045   5.560   3.882   6.008  0.3806 -0.3805 -0.3812
 4335WAT     H118046   5.515   3.872   6.083 -0.1937 -0.0260 -0.6640
 4335WAT     H218047   5.516   3.832   5.952  1.3448 -1.3625 -0.2849
 4335WAT    EPW18048   5.547   3.873   6.011 -0.8140  0.2264 -0.9160
 4336WAT      O18049   4.098   1.592   1.073  0.1166  0.3996  0.1725
 4336WAT     H118050   4.054   1.663   1.046 -1.8435 -0.7078  0.3196
 4336WAT     H218051   4.052   1.526   1.040  0.8314 -0.8618  1.6186
 4336WAT    EPW18052   4.085   1.593   1.064  0.0705 -0.1728  0.0668
 4337WAT      O18053   7.469   1.468   2.558  0.1867 -0.5950  0.5101
 4337WAT     H118054   7.395   1.514   2.564 -0.4272 -1.0898 -2.1756
 4337WAT     H218055   7.528   1.526   2.531  0.8830 -0.1896  2.6986
 4337WAT    EPW18056   7.467   1.483   2.555  0.2784  0.7969  0.1908
 4338WAT      O18057   1.092   2.063   3.139  0.0597  0.0872 -0.0444
 4338WAT     H118058   1.088   2.053   3.052 -0.3710 -0.7754  0.0663
 4338WAT     H218059   1.163   2.018   3.162  0.4598  0.7240  0.0103
 4338WAT    EPW18060   1.102   2.055   3.129 -0.2958 -0.2033  0.2955
 4339WAT      O18061   5.264   4.784   1.198  0.5765  0.0874  0.0318
 4339WAT     H118062   5.188   4.827   1.194  0.5860  0.0448 -1.1204
 4339WAT     H218063   5.242   4.706   1.228  0.2625  0.2904  0.3392
 4339WAT    EPW18064   5.249   4.779   1.202  0.4147 -0.3885  0.3733
 4340WAT      O18065   3.480   2.780   6.726 -0.2778  0.1901  0.0212
 4340WAT     H118066   3.464   2.840   6.666 -1.6632 -0.5246 -0.3623
 4340WAT     H218067   3.566   2.769   6.722 -0.4034 -0.5965 -2.6121
 4340WAT    EPW18068   3.490   2.787   6.717  0.0143 -0.4340  0.2925
 4341WAT      O18069   5.368   4.816   5.383 -0.4329  0.2486  0.4071
 4341WAT     H118070   5.380   4.776   5.307  0.0737  1.3313 -0.1132
 4341WAT     H218071   5.369   4.901   5.362  0.7188  0.6101  1.7327
 4341WAT    EPW18072   5.370   4.823   5.369 -0.6951 -0.2370 -0.1695
 4342WAT      O18073   0.881   7.399   3.654 -0.2545 -0.3080 -0.1024
 4342WAT     H118074   0.802   7.426   3.630 -1.3368 -2.9248  0.2006
 4342WAT     H218075   0.913   7.360   3.583  0.1903 -0.4704  0.1773
 4342WAT    EPW18076   0.874   7.397   3.640  0.1571 -0.2818  0.2529
 4343WAT      O18077   6.265   2.061   3.236 -0.3440  0.2026 -0.2435
 4343WAT     H118078   6.217   2.000   3.195 -1.6039  0.5529  0.6385
 4343WAT     H218079   6.223   2.135   3.217 -0.3085  0.4902  0.7475
 4343WAT    EPW18080   6.251   2.063   3.227 -0.2788 -0.0979 -0.4620
 4344WAT      O18081   2.625   4.376   6.785 -0.3511  0.5092  0.5949
 4344WAT     H118082   2.682   4.402   6.725  0.0063  1.2798  1.2592
 4344WAT     H218083   2.548   4.381   6.743 -0.0393  0.4378  0.0115
 4344WAT    EPW18084   2.622   4.381   6.770 -0.3407  0.2970 -0.2276
 4345WAT      O18085   4.797   1.436   2.741  0.0576  0.6734  0.1414
 4345WAT     H118086   4.816   1.505   2.791 -0.9094  0.5558  0.6929
 4345WAT     H218087   4.836   1.369   2.783 -0.7561  0.5741  0.7504
 4345WAT    EPW18088   4.806   1.436   2.754  0.2937 -0.4604  0.0819
 4346WAT      O18089   3.693   1.018   6.988  0.5864 -0.3621  0.2927
 4346WAT     H118090   3.678   0.991   6.907 -2.5089  1.5035  0.1051
 4346WAT     H218091   3.772   1.056   6.983 -0.4878  1.8086 -2.4711
 4346WAT    EPW18092   3.703   1.019   6.976 -0.0381  0.4512 -0.2724
 4347WAT      O18093   6.440   3.112   5.503 -0.5871  0.2622 -0.1195
 4347WAT     H118094   6.458   3.099   5.418 -0.8692 -1.1035 -0.0005
 4347WAT     H218095   6.430   3.198   5.509  3.3424  0.9345 -0.6743
 4347WAT    EPW18096   6.441   3.123   5.491  0.1151 -0.1639  0.2432
 4348WAT      O18097   6.320   3.876   5.175 -0.3520  0.7088  0.6241
 4348WAT     H118098   6.374   3.935   5.140  0.0206 -0.8511 -1.7055
 4348WAT     H218099   6.248   3.883   5.126 -0.3480 -0.6185  0.3856
 4348WAT    EPW18100   6.318   3.886   5.162 -0.1592 -0.0029 -0.2265
 4349WAT      O18101   4.938   3.863   4.575 -0.0252  0.0632 -0.9928
 4349WAT     H118102   4.916   3.851   4.658  0.5995  3.5296 -0.1760
 4349WAT     H218103   4.873   3.826   4.531 -1.9932  0.7983  1.1204
 4349WAT    EPW18104   4.926   3.856   4.581 -0.2705  0.0337  0.5512
 4350WAT      O18105   1.966   2.793   2.853  0.2670  0.5036  0.2451
 4350WAT     H118106   2.046   2.813   2.878  0.7558 -0.1597 -0.7157
 4350WAT     H218107   1.938   2.739   2.915  1.1468 -0.4718 -0.1822
 4350WAT    EPW18108   1.973   2.788   2.866 -0.1295 -0.0454  0.1747
 4351WAT      O18109   3.657   0.817   6.034 -0.3672 -0.1169 -1.1023
 4351WAT     H118110   3.675   0.883   5.981  0.7053 -1.3314 -2.3377
 4351WAT     H218111   3.735   0.788   6.060 -0.8612  0.6350  1.4790
 4351WAT    EPW18112   3.671   0.822   6.030 -0.0473 -0.0198  0.1845
 4352WAT      O18113   7.362   4.879   0.525 -0.0583 -0.0444  1.0386
 4352WAT     H118114   7.279   4.904   0.513  0.0922 -0.2037 -0.6147
 4352WAT     H218115   7.355   4.799   0.559 -0.5359  1.1183  3.9850
 4352WAT    EPW18116   7.348   4.871   0.528  0.4800  0.1413 -0.2542
 4353WAT      O18117   3.873   1.303   2.832  0.0739  0.2209  0.0812
 4353WAT     H118118   3.807   1.353   2.860 -0.2483 -0.2453  0.1683
 4353WAT     H218119   3.910   1.351   2.769 -0.4709  0.4100 -0.1041
 4353WAT    EPW18120   3.869   1.318   2.827 -0.7703 -0.1309  0.0399
 4354WAT      O18121   3.607   0.070   4.855 -0.2983 -0.0014  1.0498
 4354WAT     H118122   3.549   0.005   4.853 -0.7329  0.3640  1.7066
 4354WAT     H218123   3.657   0.051   4.924 -0.5124  0.4355  1.3263
 4354WAT    EPW18124   3.606   0.058   4.865  0.0202 -0.4303  0.2061
 4355WAT      O18125   4.760   5.716   3.872  0.1842 -0.1235  0.5414
 4355WAT     H118126   4.803   5.788   3.849  0.8835 -0.8902 -0.6516
 4355WAT     H218127   4.749   5.725   3.958 -0.7354  1.9082  0.2447
 4355WAT    EPW18128   4.765   5.728   3.881  0.0050 -0.0418 -0.2647
 4356WAT      O18129   3.018   1.967   5.416  0.0013  0.1880 -0.0914
 4356WAT     H118130   3.044   1.938   5.338  1.1847 -2.4728  1.1622
 4356WAT     H218131   2.983   2.044   5.399  0.9136  0.0386 -3.1434
 4356WAT    EPW18132   3.017   1.974   5.402 -0.0444  0.5187 -0.8605
 4357WAT      O18133   6.543   5.562   3.967  0.2204 -0.3056 -0.1129
 4357WAT     H118134   6.629   5.565   3.982  0.0844 -1.1465  0.9801
 4357WAT     H218135   6.537   5.523   3.889  0.8945  2.3842 -1.6106
 4357WAT    EPW18136   6.555   5.557   3.957 -0.1502 -0.2800 -0.1723
 4358WAT      O18137   4.943   1.354   7.374  0.3016 -0.1221  0.0080
 4358WAT     H118138   4.998   1.291   7.350  0.1692 -0.3986  0.4251
 4358WAT     H218139   4.961   1.419   7.319  0.6576 -0.4104 -0.2189
 4358WAT    EPW18140   4.954   1.355   7.362  0.3209 -0.2232 -0.3446
 4359WAT      O18141   2.763   1.276   1.651  0.0852  0.1805 -0.0612
 4359WAT     H118142   2.736   1.338   1.597 -1.2115  0.1819  0.5561
 4359WAT     H218143   2.754   1.312   1.730  1.6480  0.0647  0.1968
 4359WAT    EPW18144   2.758   1.290   1.655 -0.6065  0.0438 -0.2322
 4360WAT      O18145   3.039   7.635   6.775  0.3284 -0.6404 -0.0309
 4360WAT     H118146   3.058   7.644   6.690 -0.1194 -1.5528 -0.2479
 4360WAT     H218147   3.094   7.689   6.814  1.6414 -1.3534 -0.8127
 4360WAT    EPW18148   3.050   7.644   6.768 -0.2039  0.3581 -0.4238
 4361WAT      O18149   2.394   3.144   3.580  0.2685 -0.1453  0.7250
 4361WAT     H118150   2.323   3.194   3.568  0.4797 -0.3643 -2.1990
 4361WAT     H218151   2.459   3.202   3.583  0.7409  0.0928 -4.4560
 4361WAT    EPW18152   2.393   3.160   3.579 -0.1398  0.0428 -0.1463
 4362WAT      O18153   1.352   0.167   3.684  0.4160  0.0258  0.1566
 4362WAT     H118154   1.439   0.180   3.679  0.1959  1.3585 -0.8243
 4362WAT     H218155   1.330   0.205   3.759  0.7728 -1.0754  0.8481
 4362WAT    EPW18156   1.362   0.174   3.694  0.2989 -0.4416 -0.1382
 4363WAT      O18157   5.148   4.033   5.829  0.4477 -0.0072  0.0810
 4363WAT     H118158   5.146   3.946   5.829 -1.6974 -0.0267  0.9526
 4363WAT     H218159   5.131   4.054   5.747 -2.0645 -0.4845  0.4137
 4363WAT    EPW18160   5.145   4.023   5.817 -0.3913 -0.0160  0.8127
 4364WAT      O18161   6.006   3.321   0.972 -0.0677 -0.5891 -0.4394
 4364WAT     H118162   6.083   3.360   0.960 -0.7640  0.7813 -0.7266
 4364WAT     H218163   6.022   3.262   1.034  1.3192 -0.6917 -0.8706
 4364WAT    EPW18164   6.020   3.318   0.979 -0.0579  0.4421 -0.0227
 4365WAT      O18165   3.011   2.980   0.103 -0.0463  0.9645  0.1403
 4365WAT     H118166   3.083   2.993   0.151  0.3184 -1.0016  0.1883
 4365WAT     H218167   3.017   3.042   0.042  1.6699  0.9030  0.1851
 4365WAT    EPW18168   3.022   2.991   0.101  0.1854  0.2174 -0.3499
 4366WAT      O18169   7.016   0.950   3.294 -0.0671  0.5412  0.5424
 4366WAT     H118170   6.948   0.902   3.322  0.1617 -0.0613  0.1026
 4366WAT     H218171   7.085   0.908   3.324  0.1429  0.5162  0.0360
 4366WAT    EPW18172   7.016   0.937   3.302 -0.2388  0.1394  0.5201
 4367WAT      O18173   0.016   4.345   0.539  0.1093 -0.5030 -0.3524
 4367WAT     H118174  -0.058   4.373   0.503 -0.1870 -0.5545  0.2087
 4367WAT     H218175   0.077   4.369   0.482 -0.2987 -0.1228 -0.6344
 4367WAT    EPW18176   0.014   4.352   0.525  0.2074  0.0303 -0.3879
 4368WAT      O18177   5.390   1.736   5.320  0.1483  0.1142  0.0125
 4368WAT     H118178   5.323   1.740   5.376  0.8958 -0.2657  0.9559
 4368WAT     H218179   5.351   1.716   5.244 -0.8823  0.6398  0.3759
 4368WAT    EPW18180   5.374   1.734   5.317 -0.3241  0.2431 -0.0348
 4369WAT      O18181   5.266   1.321   1.313 -0.7095 -0.4030 -0.0459
 4369WAT     H118182   5.238   1.344   1.234 -2.7063  0.5153  0.8512
 4369WAT     H218183   5.194   1.289   1.352  0.3231 -1.2745  1.2391
 4369WAT    EPW18184   5.251   1.320   1.307  0.3077 -0.5179  0.5881
 4370WAT      O18185   4.900   0.832   6.206 -0.1149 -0.0679 -0.6146
 4370WAT     H118186   4.898   0.747   6.229  0.4616  0.6027  2.2896
 4370WAT     H218187   4.937   0.830   6.127  0.4537 -2.4754 -0.3889
 4370WAT    EPW18188   4.905   0.819   6.198  0.1762 -0.6191  0.0385
 4371WAT      O18189   7.575   7.288   3.681 -0.2109  0.0283 -0.2388
 4371WAT     H118190   7.522   7.357   3.680  0.9061  0.9447  1.2099
 4371WAT     H218191   7.634   7.307   3.742 -0.7395 -2.8350  1.4068
 4371WAT    EPW18192   7.576   7.301   3.690 -0.5400 -0.2336 -0.4206
 4372WAT      O18193   6.191   7.116   2.959  0.0905 -0.1469  0.0236
 4372WAT     H118194   6.151   7.041   2.980 -0.2009 -0.2433 -0.8443
 4372WAT     H218195   6.164   7.172   3.020 -0.1888 -0.5943  0.3110
 4372WAT    EPW18196   6.181   7.113   2.971 -0.0853 -0.2249  0.3147
 4373WAT      O18197   5.661   0.498   5.390 -0.0819  0.1923 -0.1043
 4373WAT     H118198   5.720   0.552   5.424  0.1630  0.4951 -0.9646
 4373WAT     H218199   5.598   0.496   5.449 -0.5723  2.2482 -0.4831
 4373WAT    EPW18200   5.661   0.506   5.403  0.0942  0.1453 -0.0923
 4374WAT      O18201   5.930   2.120   6.179  0.3449  0.1098  0.1785
 4374WAT     H118202   5.846   2.125   6.157  0.7082 -0.5977 -1.5554
 4374WAT     H218203   5.934   2.054   6.235  0.0764 -1.7087 -1.8393
 4374WAT    EPW18204   5.918   2.111   6.184 -0.2301  0.1934 -0.1959
 4375WAT      O18205   6.579   7.705   0.555 -0.1414 -0.4954 -0.7483
 4375WAT     H118206   6.629   7.709   0.627 -2.0023 -1.2717  0.6659
 4375WAT     H218207   6.549   7.787   0.548  0.1523 -0.3833 -0.7551
 4375WAT    EPW18208   6.582   7.718   0.565  0.8002 -0.7838  0.0026
 4376WAT      O18209   3.932   0.155   5.188 -0.1297  0.5990 -0.2213
 4376WAT     H118210   3.959   0.233   5.162  0.2114  0.6462  0.2549
 4376WAT     H218211   3.991   0.132   5.249 -0.5459  0.2234  0.0471
 4376WAT    EPW18212   3.945   0.163   5.193 -0.1878  0.5511 -0.2039
 4377WAT      O18213   3.249   2.845   0.226  0.0220  0.0507 -0.1317
 4377WAT     H118214   3.265   2.850   0.311  0.9620 -1.3654 -0.1896
 4377WAT     H218215   3.300   2.779   0.199 -0.4012  0.3348 -1.7492
 4377WAT    EPW18216   3.259   2.836   0.235 -0.4511  0.1203 -0.3795
 4378WAT      O18217   5.346   0.176   5.438 -0.7639  0.2395 -0.0633
 4378WAT     H118218   5.281   0.119   5.450 -0.2464 -1.1497 -3.0162
 4378WAT     H218219   5.418   0.132   5.459 -0.5560  1.0901  1.1598
 4378WAT    EPW18220   5.347   0.161   5.443 -0.2330 -0.0125 -0.9008
 4379WAT      O18221   5.917   1.358   0.716  0.0158 -0.0767 -0.1596
 4379WAT     H118222   5.970   1.426   0.711 -1.4749  1.1701  0.2509
 4379WAT     H218223   5.876   1.358   0.639 -1.5235  0.8615  0.6029
 4379WAT    EPW18224   5.919   1.368   0.704 -0.4825  0.0484 -0.0543
 4380WAT      O18225   4.884   4.994   3.449 -1.2680  0.6747  0.4062
 4380WAT     H118226   4.809   4.951   3.436 -1.2178  0.6780  0.1081
 4380WAT     H218227   4.863   5.055   3.508 -1.4817  0.6307  0.3754
 4380WAT    EPW18228   4.870   4.997   3.456  0.9985 -0.7629  0.5108
 4381WAT      O18229   3.080   0.869   3.974  0.6071 -0.1209  0.0545
 4381WAT     H118230   3.029   0.896   3.908 -1.2388  0.0125  1.4437
 4381WAT     H218231   3.023   0.836   4.031  2.1273 -0.1603  1.6285
 4381WAT    EPW18232   3.064   0.868   3.973 -0.1166 -0.2831  0.1724
 4382WAT      O18233   5.041   4.664   4.650 -0.2074 -0.6151  0.7764
 4382WAT     H118234   4.977   4.715   4.679 -0.7856 -0.2141 -1.0350
 4382WAT     H218235   5.013   4.641   4.570  0.7747 -2.4651  0.9078
 4382WAT    EPW18236   5.027   4.668   4.642 -0.0783 -0.3378  0.1633
 4383WAT      O18237   3.268   7.852   6.074  0.2024  0.1374 -0.3682
 4383WAT     H118238   3.328   7.899   6.117  1.7253 -1.0148 -1.1148
 4383WAT     H218239   3.197   7.857   6.124  1.4775  0.0522  1.5144
 4383WAT    EPW18240   3.266   7.859   6.087  0.2715  0.0266 -0.1140
 4384WAT      O18241   6.328   2.954   0.626 -0.2072 -0.4382  0.5121
 4384WAT     H118242   6.241   2.950   0.632 -0.3875  0.9809 -0.8441
 4384WAT     H218243   6.354   2.936   0.708 -1.6890 -2.2212  0.6545
 4384WAT    EPW18244   6.319   2.951   0.639  0.6350  0.9740 -0.8171
 4385WAT      O18245   6.501   0.297   2.267 -0.0121  0.0941 -0.5718
 4385WAT     H118246   6.521   0.355   2.205  1.5235 -0.7895 -0.9779
 4385WAT     H218247   6.446   0.242   2.228  0.8371 -0.3746 -1.1462
 4385WAT    EPW18248   6.496   0.297   2.252 -0.0986 -0.2360 -0.3208
 4386WAT      O18249   6.709   6.276   4.461  0.0417  0.5543  0.3611
 4386WAT     H118250   6.626   6.298   4.472 -0.7237 -2.0396  0.3986
 4386WAT     H218251   6.724   6.295   4.377 -0.2296  2.0060  0.6194
 4386WAT    EPW18252   6.699   6.282   4.450  0.0656 -0.0962 -0.3758
 4387WAT      O18253   6.427   5.192   4.875 -0.3772 -0.1206  0.4481
 4387WAT     H118254   6.497   5.140   4.870 -0.8656 -0.6900 -1.0154
 4387WAT     H218255   6.451   5.263   4.831 -0.3132  0.1928  0.9783
 4387WAT    EPW18256   6.441   5.194   4.868  0.0775 -0.6325  0.3106
 4388WAT      O18257   2.651   3.518   6.128 -0.2436 -0.4214  0.8303
 4388WAT     H118258   2.675   3.436   6.109  0.1092 -0.8934  3.0940
 4388WAT     H218259   2.599   3.508   6.197 -0.1988  1.2782  1.1398
 4388WAT    EPW18260   2.647   3.504   6.135 -0.2117  0.2532  0.0725
 4389WAT      O18261   3.852   2.081   6.260  0.1568  0.2281  0.0464
 4389WAT     H118262   3.798   2.017   6.236 -1.0433  0.7755  1.1459
 4389WAT     H218263   3.853   2.135   6.191 -1.4468  0.6499  0.3080
 4389WAT    EPW18264   3.844   2.080   6.246  0.6724 -0.3797  0.2943
 4390WAT      O18265   5.091   4.198   7.259  0.0361 -1.1728  0.1684
 4390WAT     H118266   5.043   4.169   7.327 -0.0651  1.2404  1.2164
 4390WAT     H218267   5.100   4.283   7.275  1.9293 -0.9397 -1.7324
 4390WAT    EPW18268   5.085   4.206   7.272  1.0573 -0.2003 -0.4352
 4391WAT      O18269   4.900   1.611   2.921 -0.1770 -0.6508  0.4678
 4391WAT     H118270   4.966   1.668   2.919 -0.5818 -0.1827 -1.5260
 4391WAT     H218271   4.932   1.544   2.967  0.3863  1.0172  2.6837
 4391WAT    EPW18272   4.914   1.609   2.927 -0.7074 -0.1135 -0.3427
 4392WAT      O18273   4.956   2.789   4.225 -0.3260  0.5157 -0.5573
 4392WAT     H118274   4.894   2.813   4.282  0.4553  1.6865 -0.1807
 4392WAT     H218275   4.985   2.864   4.193  1.8932  0.1075  0.3164
 4392WAT    EPW18276   4.951   2.803   4.229  0.1053  0.2521 -0.6455
 4393WAT      O18277   4.574   2.391   4.743  0.4063 -0.4777  0.5153
 4393WAT     H118278   4.615   2.318   4.769  0.4645 -0.9541 -0.8614
 4393WAT     H218279   4.610   2.453   4.793  2.4059 -0.9698 -0.2240
 4393WAT    EPW18280   4.586   2.389   4.755 -0.3931  0.1702 -0.0280
 4394WAT      O18281   5.153   2.189   6.628  0.2754 -0.1142 -0.0450
 4394WAT     H118282   5.178   2.116   6.669 -0.7510 -0.5831 -0.2157
 4394WAT     H218283   5.095   2.225   6.683 -0.7450 -0.4918 -0.8304
 4394WAT    EPW18284   5.148   2.184   6.642 -0.2857  0.0029  0.5241
 4395WAT      O18285   5.302   2.804   5.470 -0.6863 -0.0643 -0.1552
 4395WAT     H118286   5.302   2.823   5.385 -1.4599 -2.5625 -0.7869
 4395WAT     H218287   5.219   2.786   5.487 -1.0241  2.7294  1.8101
 4395WAT    EPW18288   5.290   2.804   5.460 -0.0023 -0.2359  0.3326
 4396WAT      O18289   3.032   0.639   3.352 -0.1170  0.2780 -0.4430
 4396WAT     H118290   2.999   0.656   3.431 -1.4260  2.8912 -1.4126
 4396WAT     H218291   2.974   0.675   3.297  1.1099 -0.7640 -2.5732
 4396WAT    EPW18292   3.019   0.647   3.355  0.0609  0.1055 -0.0434
 4397WAT      O18293   0.416   6.396   3.821 -0.9242 -0.3233  0.2863
 4397WAT     H118294   0.351   6.340   3.838 -1.2403  0.1291  0.5998
 4397WAT     H218295   0.375   6.464   3.784 -0.5028 -0.4403 -0.4268
 4397WAT    EPW18296   0.400   6.398   3.818 -0.0786  0.7799  0.3706
 4398WAT      O18297   5.724   1.306   6.486 -0.9359 -0.2163 -0.0094
 4398WAT     H118298   5.723   1.305   6.399 -0.4834  0.1191 -0.0185
 4398WAT     H218299   5.750   1.226   6.508 -1.5286 -0.4623 -0.1682
 4398WAT    EPW18300   5.727   1.294   6.476  0.5678  0.6529 -0.1032
 4399WAT      O18301   4.497   6.413   0.418  0.4970 -0.3524  0.0446
 4399WAT     H118302   4.549   6.365   0.469 -0.8083 -0.0259  1.7809
 4399WAT     H218303   4.441   6.355   0.385  0.5538 -0.3869  0.0089
 4399WAT    EPW18304   4.496   6.397   0.421 -0.4073 -0.3898 -0.1289
 4400WAT      O18305   6.025   4.204   0.652 -0.5350  0.2345  0.1588
 4400WAT     H118306   6.028   4.244   0.729 -0.5117  0.7486 -0.1008
 4400WAT     H218307   5.940   4.208   0.630 -1.0537 -2.2978  1.3583
 4400WAT    EPW18308   6.013   4.210   0.660  0.7057 -0.4036 -0.6565
 4401WAT      O18309   7.444   0.941   4.107 -0.0521 -0.1288  0.0316
 4401WAT     H118310   7.448   1.022   4.139 -0.9657  0.0996 -0.3829
 4401WAT     H218311   7.361   0.934   4.080 -0.1044 -1.3411  0.4191
 4401WAT    EPW18312   7.432   0.952   4.108 -0.3339  0.1338  0.2364
 4402WAT      O18313   4.077   5.423   7.601  0.1184  0.2339 -0.6701
 4402WAT     H118314   4.098   5.494   7.555 -0.3485  1.6279  1.1614
 4402WAT     H218315   3.992   5.435   7.618  0.2215 -0.3869  0.3098
 4402WAT    EPW18316   4.067   5.435   7.597  0.3713  0.7449 -0.2935
 4403WAT      O18317   6.118   4.418   6.186  0.3295 -0.9419 -0.0814
 4403WAT     H118318   6.075   4.343   6.172 -0.3302 -0.6189  0.2057
 4403WAT     H218319   6.149   4.439   6.107 -0.7636 -0.7314 -0.4705
 4403WAT    EPW18320   6.116   4.410   6.173  0.0426 -0.0456 -0.3114
 4404WAT      O18321   6.102   7.174   5.107 -0.0345 -0.4577  0.4146
 4404WAT     H118322   6.052   7.243   5.128  1.4040  0.8133 -0.1390
 4404WAT     H218323   6.183   7.203   5.119  0.6232 -2.5312  1.4858
 4404WAT    EPW18324   6.107   7.189   5.112  0.3213  0.3324  0.2723
 4405WAT      O18325   7.831   3.118   1.163  0.1473 -0.1703 -0.1264
 4405WAT     H118326   7.776   3.076   1.217  1.9654 -2.7192 -0.0701
 4405WAT     H218327   7.824   3.074   1.088  2.8618 -1.3743  0.2199
 4405WAT    EPW18328   7.822   3.105   1.160 -0.2008  0.2808 -0.2104
 4406WAT      O18329   6.262   4.862   6.104  0.1078 -0.3818 -0.4511
 4406WAT     H118330   6.180   4.872   6.131  0.1417  0.2026 -0.5310
 4406WAT     H218331   6.254   4.823   6.026 -0.1485  0.3686 -0.8129
 4406WAT    EPW18332   6.249   4.858   6.096  0.9918 -0.3348  0.3618
 4407WAT      O18333   4.658   2.042   6.793  0.5038  0.3737  0.0961
 4407WAT     H118334   4.717   1.978   6.784  0.4231  0.2655  0.3268
 4407WAT     H218335   4.589   2.012   6.750  0.4474  0.2815  0.2501
 4407WAT    EPW18336   4.657   2.028   6.785 -0.2974 -0.1294 -0.5734
 4408WAT      O18337   5.967   5.463   0.215  0.1474 -0.2717 -0.2038
 4408WAT     H118338   5.962   5.390   0.264 -1.3199  0.5101  0.9018
 4408WAT     H218339   5.910   5.517   0.253  0.9446  1.3543 -1.2062
 4408WAT    EPW18340   5.958   5.460   0.228  0.4246 -0.8191 -0.3063
 4409WAT      O18341   6.499   0.129   5.040  0.5766  0.3859 -0.0304
 4409WAT     H118342   6.485   0.214   5.048  2.1084  0.7639 -0.9659
 4409WAT     H218343   6.564   0.124   4.981 -0.0948 -1.4571 -0.6829
 4409WAT    EPW18344   6.507   0.141   5.032  0.0223 -0.1513 -0.0806
 4410WAT      O18345   7.186   0.301   2.487 -0.5309 -0.0725  0.6326
 4410WAT     H118346   7.205   0.366   2.542  1.2033  0.3323 -0.3984
 4410WAT     H218347   7.099   0.295   2.493 -0.6725  1.8835  1.2691
 4410WAT    EPW18348   7.176   0.310   2.496 -0.0737  0.1980  0.1036
 4411WAT      O18349   5.812   7.760   1.419  0.8977 -0.9952 -0.5819
 4411WAT     H118350   5.781   7.829   1.375 -2.3440  0.1470  2.9133
 4411WAT     H218351   5.757   7.695   1.397  0.0093 -0.7250  0.7330
 4411WAT    EPW18352   5.799   7.760   1.409 -0.5103  0.9250 -0.2147
 4412WAT      O18353   3.414   0.654   6.097  0.8791  0.0314  0.2811
 4412WAT     H118354   3.482   0.703   6.075 -0.0910  1.2035 -0.2464
 4412WAT     H218355   3.406   0.599   6.030  0.5399  0.7531 -0.2848
 4412WAT    EPW18356   3.423   0.653   6.084  0.0004 -0.6002  0.4178
 4413WAT      O18357   6.686   2.902   1.359 -0.6219  0.5674  0.2423
 4413WAT     H118358   6.665   2.876   1.439  0.0379 -0.8018  0.0074
 4413WAT     H218359   6.746   2.964   1.372  0.3651 -0.4524  0.8427
 4413WAT    EPW18360   6.692   2.907   1.372 -0.4512  0.0846  0.4040
 4414WAT      O18361   3.972   7.844   0.619 -0.4819  0.0671 -0.4858
 4414WAT     H118362   3.892   7.819   0.642 -0.8241  0.6300 -1.0415
 4414WAT     H218363   3.994   7.788   0.556 -0.7962  0.4576 -0.9469
 4414WAT    EPW18364   3.963   7.832   0.613 -0.4982 -0.5587 -0.5665
 4415WAT      O18365   5.737   0.894   7.094  0.0689  0.4110  0.1344
 4415WAT     H118366   5.677   0.934   7.044  0.4190  2.1169  0.9947
 4415WAT     H218367   5.795   0.957   7.109  2.2392 -1.2579 -0.8703
 4415WAT    EPW18368   5.736   0.909   7.089 -0.0700 -0.8114 -0.1732
 4416WAT      O18369   4.985   2.167   3.769  0.0430  0.2101  0.0326
 4416WAT     H118370   4.957   2.202   3.693  1.4383 -1.9124 -1.5774
 4416WAT     H218371   5.072   2.163   3.758  0.4119  0.8149  2.2522
 4416WAT    EPW18372   4.994   2.172   3.756  0.1618  0.1942  0.5944
 4417WAT      O18373   4.900   4.902   7.811  0.4413  0.5258 -0.0246
 4417WAT     H118374   4.981   4.881   7.836  0.4677  1.3731  0.6510
 4417WAT     H218375   4.849   4.855   7.865  0.4928  0.7817  0.2504
 4417WAT    EPW18376   4.904   4.892   7.823  0.0106 -0.0072 -0.2012
 4418WAT      O18377   5.957   1.986   6.406  0.0288  0.2818  0.5718
 4418WAT     H118378   5.927   2.012   6.484 -1.0805 -0.5050  0.4299
 4418WAT     H218379   5.946   1.899   6.407 -0.0245  0.2569 -0.4651
 4418WAT    EPW18380   5.951   1.977   6.418 -0.0559  0.4746 -0.1784
 4419WAT      O18381   3.119   3.323   5.290  0.1553  0.3834 -0.1013
 4419WAT     H118382   3.165   3.395   5.306  0.9669  0.2271 -1.5327
 4419WAT     H218383   3.116   3.319   5.203 -1.1043 -0.5564 -0.0540
 4419WAT    EPW18384   3.125   3.333   5.279 -0.3655 -0.1025 -0.0387
 4420WAT      O18385   4.046   1.648   6.315 -0.2356  0.9227 -0.1035
 4420WAT     H118386   3.962   1.627   6.326 -0.2436  0.6965 -0.5729
 4420WAT     H218387   4.064   1.698   6.384 -1.5326  3.3316 -1.3941
 4420WAT    EPW18388   4.036   1.652   6.327  0.8181 -0.2257  0.2944
 4421WAT      O18389   3.772   0.696   6.773 -0.3359  0.2039 -0.0828
 4421WAT     H118390   3.852   0.716   6.801 -1.2361  1.3757  1.8596
 4421WAT     H218391   3.737   0.773   6.756 -1.3343 -0.2363 -0.0633
 4421WAT    EPW18392   3.779   0.710   6.775 -0.4769 -0.4522 -0.0204
 4422WAT      O18393   3.875   2.946   5.322  0.5041 -0.6214 -0.1958
 4422WAT     H118394   3.813   2.937   5.261 -0.3185  1.6601  0.2107
 4422WAT     H218395   3.843   3.008   5.375  1.4240 -2.1002  2.2883
 4422WAT    EPW18396   3.861   2.953   5.321 -0.1489  0.0688 -0.1264
 4423WAT      O18397   3.534   3.636   0.207  0.0229 -0.0447  0.7743
 4423WAT     H118398   3.478   3.587   0.251 -0.6423  0.2925  0.3165
 4423WAT     H218399   3.518   3.616   0.124 -0.6814  1.3594  0.5407
 4423WAT    EPW18400   3.524   3.626   0.201  0.1213  0.2854 -0.5765
 4424WAT      O18401   4.339   6.653   2.857 -0.1015 -0.5253  0.0668
 4424WAT     H118402   4.425   6.663   2.848  0.0048 -1.6888 -0.4475
 4424WAT     H218403   4.306   6.731   2.835  0.7095 -0.6640 -1.8363
 4424WAT    EPW18404   4.347   6.666   2.852 -0.5097  0.0625  0.1641
 4425WAT      O18405   6.080   4.887   0.012 -0.9178 -0.5265  0.5529
 4425WAT     H118406   6.068   4.874   0.097  1.4967 -2.2706  0.7388
 4425WAT     H218407   6.106   4.970   0.008 -0.1909 -0.6755  1.6637
 4425WAT    EPW18408   6.082   4.897   0.024  0.0684  0.3375  0.6701
 4426WAT      O18409   3.842   3.393   1.664 -0.0747 -0.2843  0.0702
 4426WAT     H118410   3.873   3.460   1.618 -0.1867 -0.3008 -0.0310
 4426WAT     H218411   3.912   3.343   1.678 -0.0034 -0.1785  0.0905
 4426WAT    EPW18412   3.857   3.395   1.659  0.1034  0.1748  0.2133
 4427WAT      O18413   5.517   1.926   5.712 -0.1464  0.4212  0.7230
 4427WAT     H118414   5.516   1.853   5.759 -1.3881 -0.1922 -0.1825
 4427WAT     H218415   5.435   1.954   5.716 -0.3234  0.3129 -1.0638
 4427WAT    EPW18416   5.505   1.919   5.719 -0.0060  0.0316 -0.1423
 4428WAT      O18417   2.293   5.107   4.882 -0.3991  0.0488  0.4845
 4428WAT     H118418   2.295   5.137   4.964 -0.3052 -2.2198  1.4051
 4428WAT     H218419   2.211   5.121   4.857 -0.4137  0.8288  0.9345
 4428WAT    EPW18420   2.281   5.113   4.891 -0.0311 -0.6894  0.1051
 4429WAT      O18421   7.808   3.254   4.207  0.5052  0.6552 -0.3912
 4429WAT     H118422   7.796   3.337   4.182 -1.2941  0.6071  0.1837
 4429WAT     H218423   7.748   3.242   4.269  1.7309 -0.6482  0.6017
 4429WAT    EPW18424   7.797   3.265   4.213  0.6910  0.1081 -0.1616
 4430WAT      O18425   5.236   4.419   5.906  0.0042 -0.3519 -0.3927
 4430WAT     H118426   5.248   4.465   5.979  0.3858 -1.8495  0.5413
 4430WAT     H218427   5.159   4.379   5.921 -0.6759  0.5083 -1.4888
 4430WAT    EPW18428   5.226   4.420   5.919  0.1569 -0.0467  0.0671
 4431WAT      O18429   4.799   4.179   0.604 -0.2173  0.5051 -0.1298
 4431WAT     H118430   4.878   4.203   0.577 -0.4257  0.6716 -0.5982
 4431WAT     H218431   4.779   4.113   0.552 -0.2117  0.1821  0.2712
 4431WAT    EPW18432   4.808   4.173   0.593  0.0172  0.2305  0.3459
 4432WAT      O18433   3.768   6.262   7.188 -0.6122  0.2439  0.1453
 4432WAT     H118434   3.681   6.259   7.181 -0.5307 -1.1976 -0.5575
 4432WAT     H218435   3.786   6.197   7.243  0.1460 -0.8389 -1.3144
 4432WAT    EPW18436   3.758   6.252   7.195  0.1295 -0.1452  0.0324
 4433WAT      O18437   4.240   5.793   2.801 -0.0334  0.1303  0.2272
 4433WAT     H118438   4.217   5.863   2.755 -0.2397 -0.5317 -0.7296
 4433WAT     H218439   4.300   5.754   2.750 -0.7708 -0.9822  0.1657
 4433WAT    EPW18440   4.245   5.797   2.787 -0.3006 -0.1718  0.0838
 4434WAT      O18441   3.029   6.167   5.165 -0.4209 -0.2027  0.1178
 4434WAT     H118442   2.986   6.102   5.203 -0.7865 -0.3162 -0.4700
 4434WAT     H218443   3.061   6.131   5.092  1.0026 -0.2168  0.7146
 4434WAT    EPW18444   3.027   6.152   5.160 -0.3482 -0.2399  0.5535
 4435WAT      O18445   0.935   3.668   1.352 -0.3036  0.2204  0.1550
 4435WAT     H118446   0.870   3.647   1.405 -1.0789 -0.4176 -1.0065
 4435WAT     H218447   0.969   3.591   1.329 -0.3515  0.4516 -0.7171
 4435WAT    EPW18448   0.930   3.654   1.356  0.2326  0.1804  0.0060
 4436WAT      O18449   4.567   0.868   4.836 -0.1375 -0.2463  0.0816
 4436WAT     H118450   4.582   0.933   4.779  0.7580  0.0630  0.6360
 4436WAT     H218451   4.589   0.796   4.791  0.4386 -0.0148 -0.0233
 4436WAT    EPW18452   4.573   0.867   4.821  0.6077 -0.2017 -0.8635
 4437WAT      O18453   7.549   1.025   3.584 -0.0902  0.7974  0.5656
 4437WAT     H118454   7.480   1.004   3.632  0.4996  1.0190  1.5340
 4437WAT     H218455   7.608   1.053   3.642  0.4043  1.7419 -0.3434
 4437WAT    EPW18456   7.548   1.026   3.600  0.0282  0.3211  0.2325
 4438WAT      O18457   1.911   6.827   6.287  0.7743 -0.0420  0.0423
 4438WAT     H118458   1.956   6.890   6.327 -0.0108  0.1410  0.6763
 4438WAT     H218459   1.830   6.837   6.319  0.2373 -0.2412 -1.1787
 4438WAT    EPW18460   1.906   6.838   6.298 -0.2270 -0.3787 -0.6720
 4439WAT      O18461   6.209   0.191   6.930 -0.7975  0.3107 -0.2405
 4439WAT     H118462   6.140   0.244   6.919 -0.0371  0.9140 -2.6053
 4439WAT     H218463   6.262   0.212   6.864  1.7455 -0.0588  1.5308
 4439WAT    EPW18464   6.206   0.202   6.919  0.5686 -0.0690  0.7186
 4440WAT      O18465   5.582   2.210   0.242 -0.2850 -0.0087  0.0929
 4440WAT     H118466   5.531   2.227   0.311  0.5113  1.3110  0.3853
 4440WAT     H218467   5.662   2.232   0.269  0.2626 -0.8654 -0.7686
 4440WAT    EPW18468   5.586   2.216   0.256 -0.3675  0.1615 -0.4226
 4441WAT      O18469   6.167   6.005   0.359 -0.3880 -0.2548  0.3377
 4441WAT     H118470   6.146   6.083   0.327 -1.5571 -0.9758 -0.7565
 4441WAT     H218471   6.241   6.020   0.403  0.4477  1.1051 -1.4191
 4441WAT    EPW18472   6.175   6.019   0.361  0.2510  0.7139 -0.6017
 4442WAT      O18473   4.257   0.155   7.010  0.5411  0.4562  0.4188
 4442WAT     H118474   4.285   0.082   7.048  0.6120  0.2655  0.0042
 4442WAT     H218475   4.304   0.159   6.937  0.0240  0.5369  0.0853
 4442WAT    EPW18476   4.268   0.145   7.005  0.6488  0.0201 -0.1381
 4443WAT      O18477   4.317   2.786   3.324 -0.0479 -0.3957 -0.0815
 4443WAT     H118478   4.379   2.842   3.347  0.8638 -0.4764 -2.1164
 4443WAT     H218479   4.261   2.834   3.277  0.0342 -0.8896 -0.7074
 4443WAT    EPW18480   4.318   2.801   3.320  0.3349 -0.4679  0.3479
 4444WAT      O18481   5.664   0.253   0.322  0.7174 -0.1754 -0.3782
 4444WAT     H118482   5.592   0.244   0.274  0.0885  0.9203  0.3060
 4444WAT     H218483   5.721   0.290   0.267 -0.2212  1.7519 -0.1548
 4444WAT    EPW18484   5.662   0.257   0.307  0.0253  0.0658 -0.1651
 4445WAT      O18485   6.254   5.101   0.733  0.2016  0.1760  0.2913
 4445WAT     H118486   6.324   5.067   0.695 -1.0899 -1.4005 -0.8478
 4445WAT     H218487   6.270   5.187   0.734  0.6473  0.2838 -3.2987
 4445WAT    EPW18488   6.267   5.109   0.728 -0.2998  0.2666 -0.1247
 4446WAT      O18489   5.690   2.479   3.570  0.6019  1.0719  0.3868
 4446WAT     H118490   5.761   2.488   3.619  0.6442 -1.6760  1.0047
 4446WAT     H218491   5.718   2.431   3.503 -0.4633  0.7851  0.1292
 4446WAT    EPW18492   5.705   2.473   3.567 -0.0937  0.2605 -0.5225
 4447WAT      O18493   6.100   2.171   4.206 -0.5768 -0.4546  0.2356
 4447WAT     H118494   6.015   2.190   4.207 -0.5782 -0.3075 -1.0434
 4447WAT     H218495   6.130   2.214   4.136  0.6622 -0.0357  1.0066
 4447WAT    EPW18496   6.092   2.180   4.195  0.2791  0.0872  0.1592
 4448WAT      O18497   1.336   2.317   2.581 -0.6354 -0.0176  0.0410
 4448WAT     H118498   1.333   2.403   2.594 -0.3757  0.0001 -0.0143
 4448WAT     H218499   1.344   2.284   2.662  0.2542  0.0585 -0.0019
 4448WAT    EPW18500   1.337   2.325   2.595  0.2367  0.1594 -0.7741
 4449WAT      O18501   2.236   3.979   0.408  0.4358 -0.1504  0.4059
 4449WAT     H118502   2.310   3.933   0.413  0.7760  0.4219  0.7917
 4449WAT     H218503   2.231   4.018   0.486 -0.9838 -1.2481  0.9152
 4449WAT    EPW18504   2.246   3.978   0.421  0.4569 -0.2879  0.5016
 4450WAT      O18505   4.905   2.152   4.673 -0.0497  0.2216 -0.6563
 4450WAT     H118506   4.833   2.118   4.638 -0.6851  1.0727 -0.2037
 4450WAT     H218507   4.929   2.092   4.732 -0.8582  0.2875 -0.2404
 4450WAT    EPW18508   4.898   2.138   4.677  1.1653 -0.2885  0.2893
 4451WAT      O18509   3.811   2.342   7.267 -0.2640  0.6376 -0.1327
 4451WAT     H118510   3.847   2.327   7.345 -1.1287 -1.3157 -0.0197
 4451WAT     H218511   3.729   2.312   7.277 -0.7369  1.3810 -1.4754
 4451WAT    EPW18512   3.804   2.335   7.280  0.0276  0.2815  0.3312
 4452WAT      O18513   4.596   2.471   2.147  0.0000  0.0891  1.0834
 4452WAT     H118514   4.509   2.472   2.141 -0.0364 -0.0906  1.5347
 4452WAT     H218515   4.622   2.511   2.074 -0.4059 -1.7725 -0.1610
 4452WAT    EPW18516   4.587   2.477   2.135  0.0009 -0.5869  0.1314
 4453WAT      O18517   7.852   4.656   1.117 -0.5581  0.1860  0.1341
 4453WAT     H118518   7.873   4.714   1.055 -2.7558  0.0818 -0.7989
 4453WAT     H218519   7.903   4.587   1.099 -0.1058  0.7005 -0.6246
 4453WAT    EPW18520   7.863   4.654   1.105 -0.3473  0.2961 -0.4446
 4454WAT      O18521   5.254   1.939   6.057  0.6411  0.4299 -0.2796
 4454WAT     H118522   5.226   1.984   6.126 -0.5749 -1.0792  0.2959
 4454WAT     H218523   5.200   1.963   5.994 -1.0821 -1.2807  0.4277
 4454WAT    EPW18524   5.242   1.949   6.058  0.6265  0.7856  0.4562
 4455WAT      O18525   6.520   1.963   2.106 -0.3110  0.2145  0.0628
 4455WAT     H118526   6.516   1.908   2.173  2.1811  2.0389  1.9261
 4455WAT     H218527   6.502   2.040   2.142  0.0206  1.1197 -1.5954
 4455WAT    EPW18528   6.517   1.966   2.121  0.3066  0.0392  0.7163
 4456WAT      O18529   5.630   6.402   5.530  0.0170 -0.0405  0.4290
 4456WAT     H118530   5.654   6.322   5.505 -0.2179 -0.2652  0.9052
 4456WAT     H218531   5.552   6.389   5.568 -0.2860  0.4958 -0.0049
 4456WAT    EPW18532   5.622   6.388   5.532  0.5019  0.0035 -0.5678
 4457WAT      O18533   6.377   1.722   1.461  0.0046  0.3612  0.1380
 4457WAT     H118534   6.351   1.651   1.504  0.8246  0.8931  1.5790
 4457WAT     H218535   6.462   1.727   1.479 -0.3936  2.7631  1.7089
 4457WAT    EPW18536   6.386   1.712   1.470 -0.7071  0.3155 -0.7571
 4458WAT      O18537   6.927   3.326   1.546  0.3437 -0.1422  0.1804
 4458WAT     H118538   6.903   3.259   1.496 -0.5755  1.1270 -1.1778
 4458WAT     H218539   6.962   3.382   1.490  0.8499  0.6417  1.2344
 4458WAT    EPW18540   6.928   3.325   1.531 -0.5078 -0.0429 -0.6584
 4459WAT      O18541   6.055   1.921   2.143 -1.0320 -0.2731 -0.2863
 4459WAT     H118542   6.125   1.884   2.107 -0.9472 -0.6257  0.2233
 4459WAT     H218543   6.053   1.887   2.223 -0.0085  2.0829  0.8098
 4459WAT    EPW18544   6.065   1.910   2.149 -0.0600  0.3878 -0.0309
 4460WAT      O18545   4.480   5.172   7.374  0.2099  0.1968 -0.1559
 4460WAT     H118546   4.468   5.086   7.366 -0.6338  0.4090 -1.6142
 4460WAT     H218547   4.403   5.201   7.402  0.3785  0.5166 -0.0157
 4460WAT    EPW18548   4.467   5.164   7.377 -0.2725 -0.1298 -0.0533
 4461WAT      O18549   0.101   1.219   1.007 -0.5258  0.5134 -0.2794
 4461WAT     H118550   0.146   1.226   1.081  2.0989  0.7012 -1.7333
 4461WAT     H218551   0.159   1.244   0.946 -2.3082 -0.2942 -2.4614
 4461WAT    EPW18552   0.116   1.224   1.009  0.5351 -0.0770  0.1675
 4462WAT      O18553   4.524   7.768   6.268  0.2960  0.2191 -0.4401
 4462WAT     H118554   4.441   7.754   6.245 -0.6157  2.7639  0.8702
 4462WAT     H218555   4.531   7.855   6.266  3.2168  0.0690 -1.3239
 4462WAT    EPW18556   4.513   7.779   6.264 -0.0726 -0.2107  0.3582
 4463WAT      O18557   5.125   2.082   4.369 -0.0205 -0.0927  0.1204
 4463WAT     H118558   5.186   2.109   4.313  0.4020 -0.2290  0.5162
 4463WAT     H218559   5.098   2.157   4.406 -0.1175 -0.0298 -0.0749
 4463WAT    EPW18560   5.130   2.097   4.366 -1.0377  0.2773 -0.0498
 4464WAT      O18561   2.749   0.084   6.749  0.6656  0.4319  0.2277
 4464WAT     H118562   2.720   0.141   6.808 -0.1289 -2.0363  2.4199
 4464WAT     H218563   2.675   0.049   6.717  1.1349 -0.6206  0.2717
 4464WAT    EPW18564   2.734   0.087   6.753  0.3546 -0.3333  0.1267
 4465WAT      O18565   4.424   1.035   5.455 -0.4568  0.3566 -0.3085
 4465WAT     H118566   4.474   1.096   5.417 -0.8632  1.8737  1.3993
 4465WAT     H218567   4.469   0.961   5.444  0.4441  1.0886 -1.8035
 4465WAT    EPW18568   4.438   1.033   5.448 -0.3984 -0.2955 -0.6205
 4466WAT      O18569   6.738   0.298   1.983  0.3093 -0.1423 -0.3548
 4466WAT     H118570   6.779   0.235   1.939  1.2134  1.1078 -1.3901
 4466WAT     H218571   6.784   0.304   2.056 -0.2614 -1.1847  0.1176
 4466WAT    EPW18572   6.751   0.289   1.987  0.0402 -0.3646 -0.1517
 4467WAT      O18573   3.318   2.081   7.347  0.2553  0.0518 -0.4261
 4467WAT     H118574   3.264   2.092   7.280  0.5485  0.1874 -0.6427
 4467WAT     H218575   3.312   1.995   7.363 -0.1278  0.0884 -0.3559
 4467WAT    EPW18576   3.309   2.070   7.339  0.1863 -0.3443  0.6672
 4468WAT      O18577   4.063   7.629   0.466 -0.3355 -0.9073 -0.7051
 4468WAT     H118578   4.142   7.603   0.442  0.0701 -0.1031 -0.2545
 4468WAT     H218579   4.052   7.591   0.544  0.0773 -0.0997 -0.2477
 4468WAT    EPW18580   4.073   7.619   0.474  0.2855  0.4088  0.6910
 4469WAT      O18581   3.492   6.136   6.803  0.2054 -0.1984  0.2447
 4469WAT     H118582   3.542   6.178   6.745  0.3013 -1.1993 -0.4115
 4469WAT     H218583   3.443   6.200   6.838  0.2051  0.4306 -0.8667
 4469WAT    EPW18584   3.492   6.152   6.800 -0.5922 -0.2982  0.6190
 4470WAT      O18585   3.908   8.053   0.442  0.0481 -0.2051 -0.1971
 4470WAT     H118586   3.878   8.008   0.373 -0.3830  0.4908 -0.4817
 4470WAT     H218587   3.905   7.995   0.507  2.1182 -1.4166 -1.0825
 4470WAT    EPW18588   3.903   8.038   0.441  0.0863 -0.3736  0.2917
 4471WAT      O18589   3.143   6.969   6.952  0.5401  0.0736  0.3091
 4471WAT     H118590   3.175   6.892   6.926 -0.8120 -0.2385 -0.5610
 4471WAT     H218591   3.062   6.970   6.918  0.4687  1.8152  0.4230
 4471WAT    EPW18592   3.136   6.958   6.943 -0.3463 -0.9400 -0.0734
 4472WAT      O18593   4.466   3.611   4.994 -0.1258  0.1499  0.2502
 4472WAT     H118594   4.492   3.551   5.052 -0.4596 -0.6549 -0.4158
 4472WAT     H218595   4.525   3.604   4.929 -0.9462 -0.4250 -0.4502
 4472WAT    EPW18596   4.479   3.601   4.993 -0.0164 -0.1823  0.3375
 4473WAT      O18597   3.329   5.407   6.782  0.0361 -0.2363  0.2319
 4473WAT     H118598   3.351   5.380   6.862  0.6630 -1.0611 -0.2017
 4473WAT     H218599   3.279   5.344   6.752  0.7232 -0.4785 -0.4367
 4473WAT    EPW18600   3.325   5.394   6.790  0.2585  0.4914 -0.4604
 4474WAT      O18601   6.179   7.050   1.651 -0.0556  0.4350 -0.5172
 4474WAT     H118602   6.216   6.979   1.616 -0.9385  1.1645 -3.1980
 4474WAT     H218603   6.216   7.116   1.607 -1.5749  1.4227 -0.3785
 4474WAT    EPW18604   6.190   7.049   1.639  0.5864 -0.2708 -0.1653
 4475WAT      O18605   3.948   0.723   5.294 -0.3587  0.6547  0.4512
 4475WAT     H118606   3.977   0.698   5.215 -2.9023 -1.7262  0.1041
 4475WAT     H218607   3.894   0.789   5.276 -0.5173  0.4711  0.2372
 4475WAT    EPW18608   3.944   0.729   5.280 -0.2944 -0.1805 -0.0906
 4476WAT      O18609   5.375   4.566   5.232  0.0522  0.7243 -0.4004
 4476WAT     H118610   5.371   4.494   5.281  1.1692  1.4290  0.7857
 4476WAT     H218611   5.314   4.553   5.171 -1.1985 -0.3137  1.0131
 4476WAT    EPW18612   5.365   4.553   5.230  0.1006 -0.3693  0.3253
 4477WAT      O18613   4.913   1.955   4.239  0.3398 -0.2855  0.4339
 4477WAT     H118614   4.986   1.976   4.281  0.8663  0.4059 -0.7701
 4477WAT     H218615   4.938   1.946   4.156 -0.3440 -3.2608  0.4238
 4477WAT    EPW18616   4.927   1.957   4.233  0.2750  0.0660 -0.0690
 4478WAT      O18617   4.255   2.875   6.294  0.4028 -0.2658 -0.1303
 4478WAT     H118618   4.236   2.808   6.241  0.3068  1.1788 -2.0243
 4478WAT     H218619   4.342   2.870   6.303  0.2812 -1.2727  0.6857
 4478WAT    EPW18620   4.265   2.865   6.287 -0.0591 -0.1283 -0.2441
 4479WAT      O18621   4.391   2.839   7.791 -0.2365 -0.3068 -0.1821
 4479WAT     H118622   4.400   2.906   7.846 -1.1134  1.2055 -1.7943
 4479WAT     H218623   4.365   2.774   7.843  0.5272  0.5923  1.4187
 4479WAT    EPW18624   4.388   2.839   7.807  0.1677 -0.2700 -0.3224
 4480WAT      O18625   7.498   3.244   1.083  0.2811 -0.6073 -0.3834
 4480WAT     H118626   7.538   3.295   1.141 -0.8190  1.2253 -1.1477
 4480WAT     H218627   7.523   3.276   1.006 -1.9027  0.1128 -0.8910
 4480WAT    EPW18628   7.507   3.256   1.080 -0.0438  0.0643  0.4166
 4481WAT      O18629  -0.001   3.377   0.169  0.1786  0.1888 -0.3664
 4481WAT     H118630   0.049   3.412   0.231 -0.3918 -0.3040  0.3944
 4481WAT     H218631   0.056   3.342   0.113  0.6943 -0.7800  0.7201
 4481WAT    EPW18632   0.014   3.377   0.170  0.0274  0.3859 -0.0829
 4482WAT      O18633   2.462   3.784   0.459 -0.3304  0.0026 -0.6390
 4482WAT     H118634   2.514   3.787   0.529 -0.3477  0.4074 -0.6439
 4482WAT     H218635   2.400   3.727   0.482 -0.1669 -0.0992 -0.4418
 4482WAT    EPW18636   2.461   3.776   0.473  0.1047 -0.5579 -0.1450
 4483WAT      O18637   4.867   0.140   0.758  0.0244 -0.0928  0.0587
 4483WAT     H118638   4.949   0.113   0.744  0.5285  1.7449 -0.9307
 4483WAT     H218639   4.866   0.159   0.843  0.9845  0.8624 -0.1178
 4483WAT    EPW18640   4.879   0.139   0.769  0.2077  0.2647  0.3505
 4484WAT      O18641   6.894   2.885   1.671  0.2013  0.2435 -0.4366
 4484WAT     H118642   6.812   2.862   1.656  0.3884  0.1230 -1.3533
 4484WAT     H218643   6.895   2.905   1.756 -0.2934 -1.7934  0.1143
 4484WAT    EPW18644   6.882   2.884   1.681  0.8814  0.5141 -0.1178
 4485WAT      O18645   7.869   2.240   0.356  0.0849 -0.3522 -0.1491
 4485WAT     H118646   7.864   2.307   0.301  0.3106 -0.9439 -0.9074
 4485WAT     H218647   7.915   2.271   0.423 -2.2674  1.1724  0.9252
 4485WAT    EPW18648   7.875   2.254   0.358  0.0289  0.4894  0.5851
 4486WAT      O18649   5.765   2.754   7.386  0.9409 -0.8101 -0.0027
 4486WAT     H118650   5.765   2.763   7.473 -0.3371 -0.3085 -0.0310
 4486WAT     H218651   5.758   2.668   7.374 -2.2552 -0.7063  0.4646
 4486WAT    EPW18652   5.764   2.743   7.397 -1.0579 -0.0230 -0.1636
 4487WAT      O18653   3.529   5.977   1.453 -0.5092  0.6874  0.7266
 4487WAT     H118654   3.526   5.998   1.369  0.7826  3.2444  1.2077
 4487WAT     H218655   3.450   5.999   1.483 -0.4116  1.4097  0.4732
 4487WAT    EPW18656   3.517   5.984   1.445  0.4132 -0.1496 -0.8139
 4488WAT      O18657   0.092   6.031   3.591 -0.1856 -0.9297  0.4656
 4488WAT     H118658   0.049   6.021   3.516  0.0404 -1.6484  0.4283
 4488WAT     H218659   0.140   5.959   3.597 -0.4095 -1.0032  1.4433
 4488WAT    EPW18660   0.093   6.019   3.581  0.1270  0.0515 -0.0522
 4489WAT      O18661   1.770   4.333   3.165  0.3177  0.2152  0.0229
 4489WAT     H118662   1.794   4.286   3.234 -2.0938 -2.1037 -0.5514
 4489WAT     H218663   1.799   4.287   3.097  1.0021  1.4610 -0.5575
 4489WAT    EPW18664   1.778   4.319   3.165 -0.5479 -0.3555  0.6323
 4490WAT      O18665   7.204   4.232   0.626 -0.4851 -0.2689 -0.1988
 4490WAT     H118666   7.185   4.188   0.553  0.0715  2.3267 -2.0660
 4490WAT     H218667   7.290   4.221   0.636 -0.6371 -0.9934  0.3498
 4490WAT    EPW18668   7.214   4.224   0.617  0.2902 -0.0884 -0.7780
 4491WAT      O18669   4.456   7.870   3.391 -0.0311  0.2988 -0.2844
 4491WAT     H118670   4.428   7.813   3.331  1.4889 -1.8717  0.9510
 4491WAT     H218671   4.396   7.867   3.453  0.4312 -0.6180  0.1373
 4491WAT    EPW18672   4.443   7.861   3.391 -0.6095 -0.3525  0.8607
 4492WAT      O18673   3.554   0.975   0.301 -0.0633  0.1400 -0.9397
 4492WAT     H118674   3.498   0.915   0.271  0.6050 -0.3551 -1.2198
 4492WAT     H218675   3.577   0.943   0.379  1.3643 -0.7194 -1.6721
 4492WAT    EPW18676   3.549   0.961   0.308  0.1634 -0.3598 -0.1363
 4493WAT      O18677   8.099   2.687   4.236 -0.0491  0.0237  0.4706
 4493WAT     H118678   8.054   2.615   4.216  1.0843 -0.9659  1.2609
 4493WAT     H218679   8.099   2.733   4.162 -0.9953 -0.6766  0.0105
 4493WAT    EPW18680   8.093   2.683   4.222  0.3483 -0.2395  0.1855
 4494WAT      O18681   3.088   1.080   5.056 -0.2452 -0.1096  0.1508
 4494WAT     H118682   3.016   1.126   5.040 -1.7124 -1.9667  0.9773
 4494WAT     H218683   3.146   1.112   5.000 -1.0738  2.7783  0.7595
 4494WAT    EPW18684   3.086   1.091   5.046  0.0120  0.0422 -0.4122
 4495WAT      O18685   5.773   0.076   3.827  0.0053 -0.2861 -0.2728
 4495WAT     H118686   5.837   0.134   3.833 -0.1254 -0.0574 -1.0657
 4495WAT     H218687   5.809   0.002   3.858  0.3637  0.0505  0.1265
 4495WAT    EPW18688   5.788   0.074   3.833  0.1595  0.1240 -0.0155
 4496WAT      O18689   6.094   3.831   3.347 -0.0143  0.4948 -0.4362
 4496WAT     H118690   6.130   3.826   3.426 -1.0390 -1.9186 -0.0318
 4496WAT     H218691   6.151   3.790   3.295 -0.6108 -0.4445 -0.3836
 4496WAT    EPW18692   6.108   3.824   3.351  0.0684  0.4548  0.2296
 4497WAT      O18693   6.679   2.330   0.591  0.2460 -0.1544 -0.5202
 4497WAT     H118694   6.734   2.378   0.542 -1.6018  0.8438 -1.7484
 4497WAT     H218695   6.704   2.248   0.576  1.8459  0.2951 -0.4589
 4497WAT    EPW18696   6.691   2.325   0.581  0.2102 -0.4705 -0.1988
 4498WAT      O18697   3.716   5.810   6.084 -0.1767  0.8221  0.1599
 4498WAT     H118698   3.759   5.790   6.011  0.8127  2.0100  0.3783
 4498WAT     H218699   3.729   5.896   6.093 -2.0306  1.1023  0.6280
 4498WAT    EPW18700   3.724   5.820   6.075 -0.2973 -0.4571  0.0583
 4499WAT      O18701   4.370   0.808   7.625 -0.6582  1.0238  0.2462
 4499WAT     H118702   4.404   0.859   7.687 -1.0824  0.6407  0.7969
 4499WAT     H218703   4.322   0.751   7.669 -1.1376  0.8763 -0.4520
 4499WAT    EPW18704   4.368   0.807   7.640 -0.0617 -0.4749 -0.0583
 4500WAT      O18705   2.572   3.436   0.078 -0.5222  0.3098 -0.0889
 4500WAT     H118706   2.578   3.351   0.061  0.3550  0.1556  0.9034
 4500WAT     H218707   2.543   3.439   0.160  0.0513  0.9511  0.1006
 4500WAT    EPW18708   2.569   3.424   0.088 -0.7077 -0.0040  0.0135
 4501WAT      O18709   7.763   1.808   2.656  0.2265 -0.0607  0.6225
 4501WAT     H118710   7.716   1.779   2.724  0.9725 -0.0062  1.1866
 4501WAT     H218711   7.817   1.867   2.693 -1.5381  2.4653 -0.5244
 4501WAT    EPW18712   7.764   1.813   2.672 -0.5595  0.1322  0.5671
 4502WAT      O18713   6.210   4.690   6.536  0.1939  0.2813  0.4596
 4502WAT     H118714   6.249   4.725   6.467  0.5155  2.0048  1.4540
 4502WAT     H218715   6.222   4.604   6.526  2.0104  0.6177 -0.5695
 4502WAT    EPW18716   6.218   4.682   6.525  0.2302 -0.0010  0.0203
 4503WAT      O18717   3.645   4.937   3.473 -0.2750 -0.3237  0.3463
 4503WAT     H118718   3.668   4.873   3.418  0.0160 -0.4419  0.6031
 4503WAT     H218719   3.720   4.974   3.494 -0.0684 -1.7415  2.4552
 4503WAT    EPW18720   3.659   4.933   3.468  0.0465 -0.0519  0.0087
 4504WAT      O18721   4.120   1.750   7.295  0.4025 -0.3561  0.2545
 4504WAT     H118722   4.140   1.697   7.362  0.6099  0.9171  1.2536
 4504WAT     H218723   4.074   1.814   7.333 -0.3219 -0.1038 -1.0095
 4504WAT    EPW18724   4.116   1.752   7.310 -0.3889 -0.1882 -0.4650
 4505WAT      O18725   3.524   6.527   7.262 -0.2482 -0.3057  0.8295
 4505WAT     H118726   3.558   6.507   7.339  0.1759 -0.3077  0.6441
 4505WAT     H218727   3.594   6.549   7.214 -0.6090  0.7868  0.7734
 4505WAT    EPW18728   3.539   6.528   7.266 -0.8255  0.2062 -0.4325
 4506WAT      O18729   5.878   3.455   0.621  0.2932  0.0481  0.2051
 4506WAT     H118730   5.914   3.383   0.588  0.4667  0.8124 -1.3854
 4506WAT     H218731   5.890   3.514   0.558 -3.0571  0.5548 -0.1500
 4506WAT    EPW18732   5.885   3.453   0.607 -0.1682  0.0587  0.0922
 4507WAT      O18733   4.674   1.001   6.171 -0.4047 -0.4405  0.1491
 4507WAT     H118734   4.743   0.947   6.172 -1.2742 -1.5854  0.8740
 4507WAT     H218735   4.620   0.964   6.114 -1.0696 -0.4231  0.7576
 4507WAT    EPW18736   4.676   0.987   6.163 -0.1292  0.5376 -0.1224
 4508WAT      O18737   1.407   1.773   4.998  0.0556  0.0533 -0.2824
 4508WAT     H118738   1.433   1.690   4.992  1.5232  0.5090 -0.5363
 4508WAT     H218739   1.336   1.776   4.947 -1.0841 -1.4176  1.1058
 4508WAT    EPW18740   1.400   1.761   4.989  0.4034 -0.1239  0.6028
 4509WAT      O18741   6.790   2.783   4.429  0.2715  0.0420 -0.0460
 4509WAT     H118742   6.823   2.836   4.368 -1.8441 -0.6275 -1.9190
 4509WAT     H218743   6.814   2.704   4.402  2.2120 -0.1457  1.9568
 4509WAT    EPW18744   6.798   2.779   4.416  0.0514  0.1448 -0.4499
 4510WAT      O18745   0.775   5.775   1.089 -0.1339  0.0561 -0.5634
 4510WAT     H118746   0.763   5.779   1.176 -0.5878  1.7170 -0.6795
 4510WAT     H218747   0.743   5.697   1.068 -1.2720  0.1804  0.5843
 4510WAT    EPW18748   0.769   5.764   1.099  0.0614 -0.5557  0.0508
 4511WAT      O18749   3.590   7.487   0.294 -0.2992 -0.2371 -0.2545
 4511WAT     H118750   3.503   7.495   0.301 -0.3950 -0.9245 -0.5092
 4511WAT     H218751   3.613   7.549   0.238 -0.8495 -1.0346 -1.4092
 4511WAT    EPW18752   3.581   7.497   0.287  0.1962 -0.8147 -0.2877
 4512WAT      O18753   4.087   1.020   5.795  0.2889  0.2794 -0.1593
 4512WAT     H118754   4.023   1.079   5.798  0.7037  0.7126  0.8128
 4512WAT     H218755   4.148   1.054   5.848  1.4679  0.0551 -1.3299
 4512WAT    EPW18756   4.087   1.034   5.803  0.0375  0.5026 -0.3949
 4513WAT      O18757   7.497   7.888   2.996 -0.0690  0.3907 -0.1786
 4513WAT     H118758   7.532   7.909   3.073  0.2297 -0.4313 -0.0824
 4513WAT     H218759   7.566   7.868   2.946 -0.2765  0.6878 -0.5871
 4513WAT    EPW18760   7.512   7.888   3.000 -0.3709 -0.1328  0.4811
 4514WAT      O18761   5.555   7.604   6.968 -0.1561 -0.4567  0.2265
 4514WAT     H118762   5.616   7.542   6.961 -0.0852 -0.3038 -0.6146
 4514WAT     H218763   5.578   7.663   6.908  0.2133  0.7861  1.5256
 4514WAT    EPW18764   5.567   7.603   6.958 -0.1237 -0.3334  0.3630
 4515WAT      O18765   5.323   1.962   0.911 -0.0408  0.4511  0.0683
 4515WAT     H118766   5.300   2.029   0.859 -0.1070  0.7380  0.4584
 4515WAT     H218767   5.283   1.981   0.986  1.2478  0.8325  0.6905
 4515WAT    EPW18768   5.314   1.975   0.914 -0.7261  0.0091  0.1657
 4516WAT      O18769   3.360   2.674   6.260 -0.1280  0.4156  0.0160
 4516WAT     H118770   3.405   2.637   6.325  0.0050  3.0930  1.6107
 4516WAT     H218771   3.420   2.717   6.215 -0.4028 -0.4010 -1.1736
 4516WAT    EPW18772   3.375   2.675   6.263  0.0534  0.5750 -0.0505
 4517WAT      O18773   4.678   4.351   4.952  0.4294 -0.0555  0.9061
 4517WAT     H118774   4.702   4.354   4.868 -2.2408 -0.6476  0.0441
 4517WAT     H218775   4.673   4.266   4.969 -1.8934 -0.0092  0.7097
 4517WAT    EPW18776   4.681   4.339   4.942 -0.4094 -0.6388 -0.2458
 4518WAT      O18777   3.606   0.400   7.176  0.3656 -0.4547  0.3778
 4518WAT     H118778   3.567   0.409   7.254 -0.5121  2.9908 -0.2804
 4518WAT     H218779   3.691   0.410   7.195  0.4404 -2.2804  1.1485
 4518WAT    EPW18780   3.613   0.403   7.190 -0.5305  0.0955 -0.1118
 4519WAT      O18781   4.425   1.849   7.594 -0.5320 -0.0234  0.3148
 4519WAT     H118782   4.381   1.774   7.604 -0.3621 -0.1699 -0.0320
 4519WAT     H218783   4.385   1.903   7.649 -0.0601 -0.6224  1.2573
 4519WAT    EPW18784   4.412   1.846   7.603  0.6166 -0.1438  0.3649
 4520WAT      O18785   1.966   7.385   6.346  0.0378  0.3914  0.7045
 4520WAT     H118786   2.028   7.400   6.286 -0.2686  0.2663  0.3486
 4520WAT     H218787   1.923   7.316   6.313  0.0856  0.0945  1.2445
 4520WAT    EPW18788   1.969   7.377   6.332 -0.0724 -0.8882 -0.5309
 4521WAT      O18789   5.728   2.121   0.748 -0.8531  0.5391  0.4296
 4521WAT     H118790   5.788   2.113   0.686 -0.6580  0.1585  0.6623
 4521WAT     H218791   5.770   2.162   0.813 -0.0359 -1.9531  1.6092
 4521WAT    EPW18792   5.743   2.126   0.749  0.5849 -0.4898 -0.1007
 4522WAT      O18793   6.590   4.479   3.727  0.1056  0.9752 -0.1686
 4522WAT     H118794   6.548   4.461   3.653  2.7278  0.3397 -1.6474
 4522WAT     H218795   6.577   4.565   3.738 -1.0587  0.9053 -0.8497
 4522WAT    EPW18796   6.582   4.489   3.718 -0.2874 -0.0808  0.3546
 4523WAT      O18797   2.744   1.203   7.155 -0.1209 -0.6010  0.0877
 4523WAT     H118798   2.739   1.151   7.224  0.4626  0.5065  0.9904
 4523WAT     H218799   2.753   1.283   7.189  2.1444 -0.1899 -1.2286
 4523WAT    EPW18800   2.745   1.207   7.170 -0.5545  0.2036  0.4343
 4524WAT      O18801   6.297   4.844   1.333  0.1190  0.0419 -1.0435
 4524WAT     H118802   6.334   4.829   1.410  0.6282  1.6724 -0.9531
 4524WAT     H218803   6.335   4.785   1.281  0.4706 -0.4334 -0.2707
 4524WAT    EPW18804   6.308   4.833   1.336  0.2977 -0.0032 -0.0797
 4525WAT      O18805   7.799   1.378   4.523 -0.2589 -0.2904  0.8659
 4525WAT     H118806   7.875   1.405   4.490  0.7298 -1.2112  2.2803
 4525WAT     H218807   7.743   1.386   4.456  0.5905  2.3028  0.3396
 4525WAT    EPW18808   7.802   1.383   4.508  0.5803  0.2175  0.3657
 4526WAT      O18809   6.357   1.032   4.021  0.6380  0.1277 -0.1858
 4526WAT     H118810   6.275   1.041   3.994  0.7455 -0.1175 -0.6143
 4526WAT     H218811   6.399   1.098   3.982  0.4205  1.0162  1.0376
 4526WAT    EPW18812   6.351   1.043   4.011 -0.5079  0.3437 -0.2037
 4527WAT      O18813   7.842   0.972   1.431 -0.9359 -0.2430 -0.3853
 4527WAT     H118814   7.864   0.924   1.361 -0.8354 -2.2774  0.9790
 4527WAT     H218815   7.910   0.963   1.484  1.1740  4.9137 -1.5429
 4527WAT    EPW18816   7.855   0.964   1.428 -0.4498  0.3084  0.4994
 4528WAT      O18817   2.994   3.102   7.041  0.1105 -0.2297  0.1170
 4528WAT     H118818   3.017   3.154   7.106  0.7892 -0.6003  0.1781
 4528WAT     H218819   3.064   3.101   6.989 -0.4375  0.0962 -0.6420
 4528WAT    EPW18820   3.007   3.109   7.043  0.2218 -0.1604  0.1071
 4529WAT      O18821   0.532   3.986   1.768  0.3906 -0.1899 -0.2694
 4529WAT     H118822   0.451   3.962   1.791  0.4964 -1.8608 -1.5004
 4529WAT     H218823   0.582   3.928   1.809  0.9302  0.2946 -0.2369
 4529WAT    EPW18824   0.527   3.974   1.778 -0.6784  0.1970  0.0118
 4530WAT      O18825   4.692   7.393   0.729  0.4768 -0.1209  0.0160
 4530WAT     H118826   4.759   7.432   0.690  0.3110  0.1606  0.0065
 4530WAT     H218827   4.703   7.308   0.711  0.0084  0.0643 -1.2687
 4530WAT    EPW18828   4.703   7.386   0.720  0.1206 -0.9502 -0.3893
 4531WAT      O18829   0.425   3.440   2.865 -0.7024  0.3666 -0.3862
 4531WAT     H118830   0.433   3.409   2.784 -0.6743 -1.8375  0.4018
 4531WAT     H218831   0.456   3.376   2.915  0.5752  2.1921  1.3534
 4531WAT    EPW18832   0.431   3.426   2.861  0.2652  0.2590 -0.5819
 4532WAT      O18833   5.819   4.792   5.356  0.1609  0.7510  0.1659
 4532WAT     H118834   5.764   4.725   5.343  1.8332 -1.2048  2.2613
 4532WAT     H218835   5.795   4.850   5.296 -2.0160 -1.3425 -1.1817
 4532WAT    EPW18836   5.807   4.791   5.345  0.0304 -0.4109  0.5852
 4533WAT      O18837   1.482   5.013   2.236 -0.4345 -0.2204  0.0340
 4533WAT     H118838   1.478   5.098   2.220 -2.6126 -0.1521  0.5602
 4533WAT     H218839   1.511   5.008   2.318 -2.4710  0.2198  0.8558
 4533WAT    EPW18840   1.486   5.025   2.246  0.1964 -0.4822 -0.1502
 4534WAT      O18841   5.876   0.564   3.870 -0.6205 -0.1883  0.5593
 4534WAT     H118842   5.911   0.485   3.880 -0.4284 -0.0110  1.2892
 4534WAT     H218843   5.871   0.595   3.951  2.0100  1.7344  0.1028
 4534WAT    EPW18844   5.880   0.557   3.883 -0.4114  0.5677 -0.0004
 4535WAT      O18845   4.303   1.644   7.702  0.5807  0.3372 -0.5108
 4535WAT     H118846   4.221   1.655   7.731 -0.2787 -0.9799 -2.2286
 4535WAT     H218847   4.344   1.608   7.770 -1.1709 -2.0180 -0.5372
 4535WAT    EPW18848   4.297   1.640   7.716 -0.2669  0.4229 -0.4699
 4536WAT      O18849   6.943   2.150   0.906  0.3316  0.3307 -0.0130
 4536WAT     H118850   6.869   2.193   0.921 -0.1545  0.2808 -1.9838
 4536WAT     H218851   6.975   2.187   0.833  1.0408 -1.1530 -0.5157
 4536WAT    EPW18852   6.937   2.162   0.897 -0.1024 -0.0500 -0.5201
 4537WAT      O18853   5.441   3.879   3.711  0.1256  0.6834  0.2560
 4537WAT     H118854   5.448   3.808   3.762  1.1178 -1.4729 -2.6067
 4537WAT     H218855   5.356   3.883   3.694  0.1617 -0.4747 -0.3194
 4537WAT    EPW18856   5.429   3.869   3.716  0.2774 -0.4554 -0.6202
 4538WAT      O18857   5.177   1.068   2.805  0.3613 -0.0388  0.1733
 4538WAT     H118858   5.149   1.020   2.872 -0.7377  0.1995 -0.0946
 4538WAT     H218859   5.147   1.026   2.735  0.4037  0.4010 -0.1160
 4538WAT    EPW18860   5.169   1.055   2.805 -0.1992  0.1644 -0.0745
 4539WAT      O18861   7.241   3.902   1.213 -0.3644  0.0008 -0.6600
 4539WAT     H118862   7.165   3.860   1.216  0.1453 -0.9042  0.3576
 4539WAT     H218863   7.260   3.915   1.297  1.9021 -2.2525 -0.6886
 4539WAT    EPW18864   7.232   3.898   1.226 -0.7688  0.2474 -0.2236
 4540WAT      O18865   5.248   3.056   0.045  0.4027  0.3587  0.0935
 4540WAT     H118866   5.269   3.128   0.001  1.7545  0.1740  0.3718
 4540WAT     H218867   5.292   2.993   0.004  0.4232 -0.0670  0.7458
 4540WAT    EPW18868   5.258   3.057   0.033 -0.4909 -0.4996  0.4287
 4541WAT      O18869   1.844   1.406   1.163 -0.0341  0.4819 -0.2100
 4541WAT     H118870   1.779   1.352   1.146 -0.4117  0.5140  0.9985
 4541WAT     H218871   1.872   1.381   1.242  1.7692  0.1340 -0.9060
 4541WAT    EPW18872   1.839   1.395   1.172 -0.9287 -0.1109  0.0505
 4542WAT      O18873   4.278   0.981   3.732  0.5096  0.6143  0.1783
 4542WAT     H118874   4.296   0.971   3.647  0.5685 -0.0240  0.2664
 4542WAT     H218875   4.356   0.973   3.771  0.3658  0.1136  0.3624
 4542WAT    EPW18876   4.292   0.979   3.725 -0.3058 -0.4655  0.0828
 4543WAT      O18877   3.972   3.032   6.124 -0.3051 -0.4684 -0.2927
 4543WAT     H118878   3.989   3.107   6.082 -0.3998 -1.0024 -1.2987
 4543WAT     H218879   4.013   2.972   6.076 -0.3794 -1.0963  0.4139
 4543WAT    EPW18880   3.981   3.034   6.111 -0.4924 -0.0857  0.4610
 4544WAT      O18881   4.990   1.148   4.493 -0.0740  0.1049 -0.2079
 4544WAT     H118882   4.950   1.155   4.416 -0.2842  1.2092 -0.0282
 4544WAT     H218883   5.075   1.151   4.472 -0.0988 -0.8314 -0.4797
 4544WAT    EPW18884   4.996   1.150   4.479  0.2825 -0.2643  0.0100
 4545WAT      O18885   4.894   7.294   4.831  0.0303 -0.5734  0.3139
 4545WAT     H118886   4.881   7.220   4.875  2.4196 -0.5312  1.2791
 4545WAT     H218887   4.816   7.332   4.829 -0.6364 -1.6872  2.5261
 4545WAT    EPW18888   4.881   7.289   4.837  0.2129 -0.2702  0.3483
 4546WAT      O18889   0.133   0.801   3.310  0.3194  0.4731  0.7190
 4546WAT     H118890   0.197   0.815   3.367 -0.2978 -2.9294  2.5273
 4546WAT     H218891   0.061   0.802   3.359 -0.4115 -0.9640 -0.2390
 4546WAT    EPW18892   0.132   0.803   3.326 -0.0622 -0.4563  0.1996
 4547WAT      O18893   7.065   0.454   2.024  0.3754 -0.7055  0.1202
 4547WAT     H118894   6.984   0.475   2.047  0.6302  0.4139  0.0379
 4547WAT     H218895   7.093   0.403   2.089  0.3238  0.6277  1.2189
 4547WAT    EPW18896   7.057   0.449   2.037 -0.0563 -0.0222 -1.0072
 4548WAT      O18897   3.364   2.026   1.938 -0.2312 -0.1115  0.8104
 4548WAT     H118898   3.427   2.074   1.974 -1.4230  0.3034  2.4400
 4548WAT     H218899   3.402   1.949   1.922  0.2906 -0.4416  3.3215
 4548WAT    EPW18900   3.379   2.022   1.941  0.7230  0.2850  0.5076
 4549WAT      O18901   4.374   7.290   1.790 -0.1383  0.7924 -0.2539
 4549WAT     H118902   4.378   7.296   1.703 -1.1329 -2.8527 -0.7201
 4549WAT     H218903   4.288   7.283   1.806  0.0711  0.7401  0.9403
 4549WAT    EPW18904   4.362   7.290   1.779  0.3618 -0.1176 -0.1107
 4550WAT      O18905   5.469   3.094   2.937  0.3135 -0.0048 -0.4367
 4550WAT     H118906   5.494   3.037   2.999  0.2601  1.1734  0.7118
 4550WAT     H218907   5.415   3.148   2.979 -1.7156 -0.5843 -2.1054
 4550WAT    EPW18908   5.465   3.093   2.952  0.0325 -0.1170  0.3186
 4551WAT      O18909   4.623   1.355   0.171  0.3038 -0.3180  0.6308
 4551WAT     H118910   4.542   1.381   0.189  0.8303  2.4870 -0.5320
 4551WAT     H218911   4.639   1.293   0.230 -3.1006 -1.9311  0.0858
 4551WAT    EPW18912   4.614   1.349   0.182 -0.0589 -0.1121  0.2042
 4552WAT      O18913   4.507   1.886   4.147  0.0501  0.4894  0.3564
 4552WAT     H118914   4.504   1.971   4.162 -0.1583  0.4022  0.8274
 4552WAT     H218915   4.562   1.879   4.080  0.7199  0.9243  0.8487
 4552WAT    EPW18916   4.514   1.897   4.139  0.6325 -0.0484 -0.3109
 4553WAT      O18917   1.443   1.268   1.639 -0.2469 -0.3982  0.0456
 4553WAT     H118918   1.492   1.213   1.686  0.0043  0.4802  0.8378
 4553WAT     H218919   1.502   1.320   1.601 -0.4471 -1.1212 -1.2927
 4553WAT    EPW18920   1.459   1.268   1.641  0.4378 -0.3827 -0.3547
 4554WAT      O18921   2.028   2.837   1.071 -0.0690 -0.4717  0.1867
 4554WAT     H118922   2.078   2.823   1.141  2.2146 -1.6822 -1.5254
 4554WAT     H218923   2.038   2.922   1.055 -1.3520  0.0272  1.7549
 4554WAT    EPW18924   2.037   2.847   1.079 -1.1658 -0.6478 -0.3394
 4555WAT      O18925   6.089   0.445   0.909 -0.3058  0.3841  0.4632
 4555WAT     H118926   6.031   0.510   0.916 -1.5998 -0.7538  0.7342
 4555WAT     H218927   6.093   0.413   0.990 -1.3283 -1.2065 -0.0824
 4555WAT    EPW18928   6.081   0.450   0.922  0.3839  0.3035  0.4563
 4556WAT      O18929   7.813   4.683   0.703 -0.4468  0.2033  0.0635
 4556WAT     H118930   7.757   4.646   0.647 -1.6959 -0.4445  1.6592
 4556WAT     H218931   7.887   4.639   0.689 -0.4776  0.6029 -1.6127
 4556WAT    EPW18932   7.816   4.671   0.693  0.2667  0.0739 -0.4409
 4557WAT      O18933   0.591   2.798   4.777 -0.0243  0.0077  0.8456
 4557WAT     H118934   0.592   2.711   4.776 -2.2144 -0.1683 -2.1340
 4557WAT     H218935   0.526   2.818   4.832 -1.1320 -0.4355 -0.2476
 4557WAT    EPW18936   0.581   2.788   4.785  0.1034 -0.1868 -0.4859
 4558WAT      O18937   0.610   1.153   0.413  0.2673  0.1287 -0.1099
 4558WAT     H118938   0.664   1.093   0.443 -0.6657 -0.1343  1.1177
 4558WAT     H218939   0.584   1.121   0.336  0.5274 -0.5662  0.0856
 4558WAT    EPW18940   0.614   1.140   0.406 -0.6998  0.5960 -0.4966
 4559WAT      O18941   6.158   5.301   6.267  0.3336 -0.6423  0.1312
 4559WAT     H118942   6.200   5.228   6.246  0.2235 -0.4959 -0.6593
 4559WAT     H218943   6.179   5.315   6.350  0.8345 -1.2453  0.1089
 4559WAT    EPW18944   6.167   5.292   6.276  0.3648 -0.3277  0.1783
 4560WAT      O18945   4.692   0.456   2.345  0.0487 -0.1091  0.1426
 4560WAT     H118946   4.680   0.418   2.267 -1.1234 -0.2703  0.3754
 4560WAT     H218947   4.773   0.432   2.367 -0.0199 -1.0118 -0.5172
 4560WAT    EPW18948   4.702   0.446   2.336 -0.6257 -0.1125  0.0460
 4561WAT      O18949   5.129   7.960   2.741  0.2202  0.3707  0.8439
 4561WAT     H118950   5.214   7.975   2.732 -0.3396  3.3049 -1.4704
 4561WAT     H218951   5.103   7.942   2.659 -1.5992  1.3835  1.1467
 4561WAT    EPW18952   5.138   7.960   2.727  0.2251  0.4346  0.0008
 4562WAT      O18953   0.925   5.901   3.527 -0.1662  0.3576  0.0055
 4562WAT     H118954   0.935   5.851   3.456  0.5034  0.0882  0.2732
 4562WAT     H218955   1.004   5.899   3.563 -1.2108 -2.1072  2.4697
 4562WAT    EPW18956   0.938   5.893   3.522  0.2831  0.1189 -0.1805
 4563WAT      O18957   5.581   1.587   4.939  0.4005 -0.2145  0.3474
 4563WAT     H118958   5.633   1.554   5.001 -0.3215 -0.6149  0.7496
 4563WAT     H218959   5.613   1.668   4.927  1.8117 -0.8196 -0.2190
 4563WAT    EPW18960   5.594   1.594   4.947  0.3230 -0.4489 -0.1044
 4564WAT      O18961   4.700   6.430   0.736  0.5978  0.1004 -0.4933
 4564WAT     H118962   4.623   6.471   0.742  0.2409 -0.3261 -1.8095
 4564WAT     H218963   4.757   6.495   0.725  0.4305  0.4080  0.3505
 4564WAT    EPW18964   4.697   6.446   0.735 -0.1344  0.1715  0.4239
 4565WAT      O18965   5.468   0.507   1.934  0.0837 -0.0164 -0.0496
 4565WAT     H118966   5.520   0.521   1.865  0.0998  1.6374  0.2664
 4565WAT     H218967   5.458   0.586   1.969 -1.2152 -0.5764  0.9354
 4565WAT    EPW18968   5.474   0.520   1.929  0.2686 -0.5814 -0.4114
 4566WAT      O18969   1.829   3.997   2.656 -0.5202  0.3520 -0.5566
 4566WAT     H118970   1.757   3.961   2.689 -0.3850  0.9287  0.3979
 4566WAT     H218971   1.884   3.997   2.724  0.1437  0.5456 -1.0921
 4566WAT    EPW18972   1.827   3.991   2.671 -0.2200 -0.4224  0.1125
 4567WAT      O18973   7.209   2.799   3.128  0.0389 -0.2147  0.0786
 4567WAT     H118974   7.265   2.861   3.104  0.4303 -0.5332  0.1503
 4567WAT     H218975   7.261   2.731   3.146 -0.3867 -0.5796 -0.0612
 4567WAT    EPW18976   7.225   2.798   3.127  0.1859 -0.3954  0.1470
 4568WAT      O18977   4.022   6.322   2.843  0.2649  0.5169 -0.2684
 4568WAT     H118978   4.041   6.397   2.802  0.2677  0.3684 -0.5417
 4568WAT     H218979   3.977   6.277   2.783 -0.0804  0.4618  0.0304
 4568WAT    EPW18980   4.018   6.327   2.828  0.4941 -0.1912  0.1672
 4569WAT      O18981   3.490   7.563   5.350  0.5712 -0.4129  0.1551
 4569WAT     H118982   3.551   7.549   5.289  1.3234 -0.5464  0.9278
 4569WAT     H218983   3.485   7.650   5.354  1.7191 -0.3626  1.0493
 4569WAT    EPW18984   3.498   7.573   5.341 -0.7106 -0.3299 -0.1607
 4570WAT      O18985   7.569   3.814   0.538 -0.2292  0.0738  0.3911
 4570WAT     H118986   7.540   3.842   0.615 -2.9106 -1.0847 -0.0969
 4570WAT     H218987   7.652   3.840   0.537 -0.2393  0.6018  3.4236
 4570WAT    EPW18988   7.577   3.822   0.549 -0.6615 -0.2125  0.2189
 4571WAT      O18989   5.137   0.411   1.024  0.4312  0.1469 -0.2128
 4571WAT     H118990   5.149   0.475   0.966 -1.6147  0.6596 -0.1448
 4571WAT     H218991   5.218   0.394   1.053  1.2793  1.1897 -1.7912
 4571WAT    EPW18992   5.151   0.418   1.020 -0.2158  0.2219  0.1587
 4572WAT      O18993   3.580   1.296   3.340 -0.3442 -0.5239  0.2253
 4572WAT     H118994   3.662   1.285   3.312  0.2110 -2.0024  2.1562
 4572WAT     H218995   3.531   1.265   3.276  0.6083  0.1137 -0.8405
 4572WAT    EPW18996   3.585   1.290   3.327  0.1352 -0.3277  0.0858
 4573WAT      O18997   0.375   1.917   4.853  0.7780  0.7453 -0.1478
 4573WAT     H118998   0.385   1.991   4.807  2.5667  0.6321 -0.0074
 4573WAT     H218999   0.399   1.940   4.934  1.1237  0.0654 -0.0548
 4573WAT    EPW19000   0.380   1.931   4.858 -0.6003  0.3087  0.6176
 4574WAT      O19001   0.090   2.385   1.431 -0.4775  0.2563 -0.0213
 4574WAT     H119002   0.148   2.327   1.400 -0.7283  0.1554 -0.3162
 4574WAT     H219003   0.093   2.449   1.372 -1.3270 -0.1652 -0.5423
 4574WAT    EPW19004   0.099   2.386   1.418  0.0437  0.4457  0.0053
 4575WAT      O19005   4.515   3.954   1.743 -0.3878  0.2387 -0.4592
 4575WAT     H119006   4.466   4.007   1.792 -0.9474 -0.2478 -0.4770
 4575WAT     H219007   4.466   3.940   1.672  0.5045  1.1105 -1.2772
 4575WAT    EPW19008   4.500   3.960   1.740  1.2811  0.7912 -0.8627
 4576WAT      O19009   6.662   1.681   2.157  1.0004  0.1634 -0.3602
 4576WAT     H119010   6.608   1.624   2.195 -1.1194  1.3810 -1.3861
 4576WAT     H219011   6.720   1.700   2.221 -0.0308 -0.8716  0.9356
 4576WAT    EPW19012   6.663   1.676   2.172  0.1385 -0.0362 -0.2531
 4577WAT      O19013   5.626   3.000   2.161  0.5607 -0.4899  0.0497
 4577WAT     H119014   5.601   2.921   2.188 -0.2289 -0.7006 -1.2558
 4577WAT     H219015   5.608   3.001   2.076 -0.6560  1.5496  0.2485
 4577WAT    EPW19016   5.620   2.989   2.153 -0.4582  0.3864  0.1271
 4578WAT      O19017   7.147   2.621   2.320  0.0501  0.5657  0.1085
 4578WAT     H119018   7.098   2.693   2.330 -1.1482 -0.4973  3.3945
 4578WAT     H219019   7.199   2.622   2.391  1.1053 -1.0306 -0.5834
 4578WAT    EPW19020   7.147   2.632   2.332 -0.5135  0.1089 -0.4960
 4579WAT      O19021   1.203   2.346   4.352  0.2864  0.4751 -0.2411
 4579WAT     H119022   1.280   2.368   4.317  1.2804  1.6213  2.4021
 4579WAT     H219023   1.155   2.418   4.341  0.7195  0.9670  1.0064
 4579WAT    EPW19024   1.207   2.360   4.345 -0.4020 -0.1812  0.7650
 4580WAT      O19025   4.596   0.560   4.397 -0.1421 -0.2939 -0.1208
 4580WAT     H119026   4.590   0.476   4.374 -0.3572 -0.3514  0.1325
 4580WAT     H219027   4.679   0.569   4.420  0.0754 -0.2326 -0.9155
 4580WAT    EPW19028   4.607   0.548   4.397  0.2460  0.0469 -0.3312
 4581WAT      O19029   6.404   3.240   2.557 -0.3312 -0.3601  0.4466
 4581WAT     H119030   6.461   3.302   2.580  0.2500  0.2210 -2.2936
 4581WAT     H219031   6.337   3.284   2.523 -0.6830 -1.1697  0.0481
 4581WAT    EPW19032   6.402   3.256   2.556 -0.3164  0.2337 -0.3356
 4582WAT      O19033   6.028   5.562   5.539 -0.3300  0.1607 -0.2289
 4582WAT     H119034   5.950   5.550   5.500 -0.4796  1.1161 -0.2388
 4582WAT     H219035   6.082   5.579   5.472 -0.2235  0.0540 -0.1702
 4582WAT    EPW19036   6.024   5.562   5.523 -0.2166 -0.3021  0.0525
 4583WAT      O19037   5.653   7.142   4.077  0.4351 -0.1013  0.5994
 4583WAT     H119038   5.646   7.138   4.164  1.4906  1.7685  0.8139
 4583WAT     H219039   5.572   7.157   4.051 -0.0704 -1.6324  1.1440
 4583WAT    EPW19040   5.640   7.143   4.086 -0.4161 -0.0250 -0.7750
 4584WAT      O19041   7.336   2.622   3.784 -0.6883 -0.5009  0.0151
 4584WAT     H119042   7.277   2.639   3.722 -1.4764  3.2221  1.5097
 4584WAT     H219043   7.287   2.604   3.854 -0.1070  0.9210  0.8425
 4584WAT    EPW19044   7.320   2.622   3.785  0.5952 -0.1830  0.4532
 4585WAT      O19045   5.822   3.137   3.729  0.2040 -0.1937  0.3684
 4585WAT     H119046   5.857   3.181   3.796  0.7546 -0.5744  0.3448
 4585WAT     H219047   5.883   3.077   3.711 -1.4486 -2.4988  1.8829
 4585WAT    EPW19048   5.836   3.135   3.737  0.1494  0.1035  0.3179
 4586WAT      O19049   6.994   5.527   2.188 -0.1542 -0.4635  0.7594
 4586WAT     H119050   7.012   5.610   2.166  0.6161 -0.3437  1.7955
 4586WAT     H219051   6.951   5.535   2.264  1.2191 -1.0672  1.6301
 4586WAT    EPW19052   6.990   5.541   2.196 -0.6863 -0.0765  0.0965
 4587WAT      O19053   4.266   5.332   2.081 -0.4935  0.0579  0.0737
 4587WAT     H119054   4.303   5.291   2.013  2.8938  1.4746  0.8638
 4587WAT     H219055   4.215   5.391   2.043  1.3139  0.8111 -1.3407
 4587WAT    EPW19056   4.264   5.334   2.065  0.1009  0.2842 -0.4382
 4588WAT      O19057   6.491   4.139   4.274  0.1180  0.1804 -0.2059
 4588WAT     H119058   6.550   4.124   4.211 -1.8284  0.8707 -2.3283
 4588WAT     H219059   6.468   4.059   4.301  1.2642 -0.1115 -0.0515
 4588WAT    EPW19060   6.496   4.125   4.269 -0.3515  0.4355 -0.2428
 4589WAT      O19061   6.894   2.621   1.806 -0.2816  0.6649  0.4888
 4589WAT     H119062   6.978   2.617   1.830 -0.1539 -0.9809 -0.0864
 4589WAT     H219063   6.896   2.660   1.728  0.2032 -0.9306 -0.3561
 4589WAT    EPW19064   6.906   2.626   1.798  0.3881  0.1995  0.1573
 4590WAT      O19065   7.924   5.676   1.539 -0.5053  0.0187  0.5290
 4590WAT     H119066   7.988   5.697   1.483  0.5026  1.8006  2.2490
 4590WAT     H219067   7.853   5.710   1.503  0.1284  1.1477  0.3030
 4590WAT    EPW19068   7.923   5.684   1.525 -0.1275  0.1180  0.5307
 4591WAT      O19069   4.875   2.471   5.319 -0.1489  0.5011 -0.6953
 4591WAT     H119070   4.809   2.518   5.351 -0.8215 -0.5148 -0.5432
 4591WAT     H219071   4.935   2.474   5.382 -0.4292  0.6400 -0.4330
 4591WAT    EPW19072   4.874   2.479   5.333  0.4599  0.1835  0.1459
 4592WAT      O19073   4.578   0.706   4.171  0.1357  0.2171 -0.2040
 4592WAT     H119074   4.609   0.641   4.123  2.1870  0.9026  0.0826
 4592WAT     H219075   4.572   0.672   4.251  1.0569  0.3135 -0.0849
 4592WAT    EPW19076   4.582   0.692   4.176 -0.1051  0.2029 -0.5139
 4593WAT      O19077   3.370   0.734   4.224  0.0864  0.0760 -0.0295
 4593WAT     H119078   3.344   0.702   4.147 -0.4553 -0.7771  0.4806
 4593WAT     H219079   3.434   0.790   4.204  0.6146 -0.8563 -1.0288
 4593WAT    EPW19080   3.376   0.737   4.210  0.2051  0.1007  0.4092
 4594WAT      O19081   3.801   8.015   3.218 -0.2926 -0.2673 -0.1593
 4594WAT     H119082   3.822   7.956   3.278  0.1581  1.0434  1.0223
 4594WAT     H219083   3.877   8.049   3.195 -0.4062 -1.0254 -1.8398
 4594WAT    EPW19084   3.815   8.011   3.223 -0.0134 -0.5372 -0.0097
 4595WAT      O19085   5.489   7.910   4.935 -0.3439 -0.5820 -0.1078
 4595WAT     H119086   5.496   7.864   5.009  0.2539 -1.0529 -0.4515
 4595WAT     H219087   5.478   7.992   4.964  0.0169 -0.7399  0.5091
 4595WAT    EPW19088   5.488   7.915   4.950 -0.4303 -0.1238 -0.4028
 4596WAT      O19089   0.691   0.086   2.309  0.2226 -0.3037 -0.0950
 4596WAT     H119090   0.761   0.099   2.359 -0.2694  1.2317  0.2293
 4596WAT     H219091   0.725   0.075   2.229  0.8137  2.5016 -0.3313
 4596WAT    EPW19092   0.706   0.086   2.304  0.0097 -0.5610  0.1134
 4597WAT      O19093   5.289   3.388   2.780  0.0804  0.4198  0.0569
 4597WAT     H119094   5.299   3.417   2.862 -0.7069 -1.0710  0.7238
 4597WAT     H219095   5.257   3.457   2.738 -1.6108  0.6263  1.5383
 4597WAT    EPW19096   5.286   3.403   2.786  0.5215 -0.3674 -0.1926
 4598WAT      O19097   5.799   1.938   2.530  0.1075  0.3236 -0.0027
 4598WAT     H119098   5.749   1.883   2.485  0.6231 -0.1459 -0.0028
 4598WAT     H219099   5.880   1.913   2.512  0.4150  2.0058 -1.1978
 4598WAT    EPW19100   5.803   1.926   2.521  0.3664  0.0940  0.0108
 4599WAT      O19101   6.468   0.906   1.634 -0.2494  0.1488 -0.6094
 4599WAT     H119102   6.478   0.927   1.550 -0.1314  1.3188 -0.3176
 4599WAT     H219103   6.409   0.964   1.663  0.7830  0.7033  0.4570
 4599WAT    EPW19104   6.461   0.917   1.626  0.4849  0.3978 -0.3440
 4600WAT      O19105   5.554   7.712   0.080 -0.4208 -0.2536 -0.1700
 4600WAT     H119106   5.638   7.733   0.077 -0.7648  1.0821 -1.0025
 4600WAT     H219107   5.522   7.740   0.004 -1.5094 -1.2886 -0.1283
 4600WAT    EPW19108   5.562   7.719   0.069  0.2575 -0.1525 -0.0917
 4601WAT      O19109   7.254   1.949   3.411  0.4803  0.2479  0.3031
 4601WAT     H119110   7.213   1.890   3.460  0.0713  1.4253  1.4396
 4601WAT     H219111   7.274   1.906   3.338  0.2990 -1.3099  1.1411
 4601WAT    EPW19112   7.251   1.934   3.408  0.4626 -0.1437 -0.2108
 4602WAT      O19113   0.859   7.300   1.175 -0.4433 -0.3153  0.5148
 4602WAT     H119114   0.841   7.270   1.255  1.7412 -0.2374  1.1272
 4602WAT     H219115   0.796   7.267   1.125 -0.8412 -1.8937  1.9739
 4602WAT    EPW19116   0.847   7.291   1.179  0.3548  0.5168  0.1641
 4603WAT      O19117   0.227   5.756   3.240  0.3770  0.4151  0.1454
 4603WAT     H119118   0.214   5.762   3.154  2.5202 -1.1672 -0.3671
 4603WAT     H219119   0.267   5.830   3.260 -0.8380  1.1462 -0.0258
 4603WAT    EPW19120   0.231   5.768   3.230 -0.4535 -0.0056 -0.4767
 4604WAT      O19121   4.596   7.200   3.455 -0.0503 -0.0939 -0.4822
 4604WAT     H119122   4.644   7.153   3.510 -0.5873  0.3550  0.3982
 4604WAT     H219123   4.519   7.157   3.454 -0.0663 -0.0596 -0.8268
 4604WAT    EPW19124   4.591   7.186   3.463  0.2436  0.3012 -0.0225
 4605WAT      O19125   3.585   2.351   5.686  0.5193 -0.1324 -0.1117
 4605WAT     H119126   3.638   2.283   5.701  0.0241 -0.5168 -0.0381
 4605WAT     H219127   3.505   2.315   5.689  0.0887  0.8223  2.1784
 4605WAT    EPW19128   3.581   2.335   5.689 -0.0096 -0.4505 -0.4997
 4606WAT      O19129   3.385   3.803   2.209 -0.5263 -0.1064 -0.1706
 4606WAT     H119130   3.356   3.752   2.145  0.1991  0.3370 -0.8813
 4606WAT     H219131   3.390   3.882   2.171 -1.7556  0.5552  0.9267
 4606WAT    EPW19132   3.381   3.807   2.194 -0.2612  0.2356  0.1501
 4607WAT      O19133   7.427   1.480   3.096 -0.2488 -0.6625 -0.2130
 4607WAT     H119134   7.414   1.554   3.141  0.6587 -0.1577 -0.7553
 4607WAT     H219135   7.462   1.507   3.021 -1.2413 -1.5322 -1.0184
 4607WAT    EPW19136   7.430   1.495   3.092 -0.6810 -0.0188 -0.0909
 4608WAT      O19137   5.780   4.637   3.578 -0.4177 -0.3458  0.0546
 4608WAT     H119138   5.736   4.713   3.575  1.7519  0.9799 -0.1553
 4608WAT     H219139   5.793   4.624   3.663  0.0324  0.0197  0.0409
 4608WAT    EPW19140   5.775   4.646   3.590 -0.5171  0.1081 -0.1823
 4609WAT      O19141   5.856   4.903   3.284 -0.2160  0.5820  0.1518
 4609WAT     H119142   5.841   4.893   3.199  0.7216  0.8467 -0.0546
 4609WAT     H219143   5.788   4.862   3.322  0.3071 -1.1329 -0.6874
 4609WAT    EPW19144   5.843   4.896   3.277  0.0464  0.3647  1.1366
 4610WAT      O19145   6.263   4.638   3.482 -0.0090  0.4689  0.1567
 4610WAT     H119146   6.181   4.610   3.471  0.1183  0.5186 -1.0738
 4610WAT     H219147   6.259   4.723   3.464  0.7130  0.0410 -2.3424
 4610WAT    EPW19148   6.250   4.646   3.478 -0.4924  0.4848  0.2176
 4611WAT      O19149   4.357   0.404   5.878 -0.3140  0.2661 -0.8899
 4611WAT     H119150   4.431   0.430   5.916 -0.6244 -1.1986  0.8826
 4611WAT     H219151   4.297   0.458   5.910 -0.2665  0.3212 -0.8953
 4611WAT    EPW19152   4.359   0.415   5.888  0.8358 -0.0375 -0.1123
 4612WAT      O19153   3.004   5.854   2.586 -0.2652 -0.2814  0.5922
 4612WAT     H119154   3.026   5.810   2.657  0.3201  1.9101  1.8753
 4612WAT     H219155   3.061   5.921   2.585 -0.9956  0.3926 -1.2880
 4612WAT    EPW19156   3.016   5.857   2.596 -0.7737 -0.0404  0.1298
 4613WAT      O19157   5.728   0.819   6.119 -0.2626  0.2059  0.4121
 4613WAT     H119158   5.758   0.803   6.039 -2.1758 -0.1130 -0.2881
 4613WAT     H219159   5.726   0.740   6.156  0.8446  0.3807  0.9069
 4613WAT    EPW19160   5.732   0.805   6.113 -0.0667  0.5156 -0.2819
 4614WAT      O19161   1.454   0.695   3.463  0.5567 -0.2443  0.4076
 4614WAT     H119162   1.526   0.731   3.429 -0.3397  0.1959 -1.1018
 4614WAT     H219163   1.456   0.613   3.434 -0.0717  0.0591 -0.5369
 4614WAT    EPW19164   1.465   0.688   3.454  0.0745 -0.3348  0.0797
 4615WAT      O19165   6.367   4.180   0.342 -0.5151  0.4709 -0.4393
 4615WAT     H119166   6.293   4.137   0.359 -0.7084  1.6014  1.8999
 4615WAT     H219167   6.347   4.263   0.359  1.3617  0.7659  0.6388
 4615WAT    EPW19168   6.353   4.186   0.347 -0.0017 -0.4949  0.6181
 4616WAT      O19169   5.836   1.134   3.358 -0.0333  0.2525  0.0761
 4616WAT     H119170   5.901   1.190   3.374 -0.3602  0.7345 -0.2514
 4616WAT     H219171   5.858   1.063   3.404  0.5611  0.5242  0.2197
 4616WAT    EPW19172   5.849   1.132   3.367 -0.0610  0.0928 -0.0533
 4617WAT      O19173   7.488   1.284   3.478 -0.1445  0.0852 -0.2409
 4617WAT     H119174   7.454   1.278   3.398 -0.1881 -1.4825 -0.1399
 4617WAT     H219175   7.516   1.203   3.494  0.2815  0.4843  1.1542
 4617WAT    EPW19176   7.487   1.271   3.469  0.2887 -0.2742  0.3620
 4618WAT      O19177   5.699   4.093   5.239 -0.5407  0.0316  0.2633
 4618WAT     H119178   5.728   4.092   5.156 -0.9501  0.5874  0.1103
 4618WAT     H219179   5.637   4.032   5.239 -0.3388 -0.1773  0.2392
 4618WAT    EPW19180   5.694   4.084   5.226 -0.2849  0.1880 -0.2195
 4619WAT      O19181   0.068   0.101   2.170 -0.2290 -0.0398  0.6548
 4619WAT     H119182   0.105   0.156   2.226 -0.8229  0.9025  0.1323
 4619WAT     H219183   0.024   0.152   2.115 -0.5905 -1.0099 -0.0012
 4619WAT    EPW19184   0.067   0.117   2.170  0.6888  0.0660 -0.1311
 4620WAT      O19185   5.242   4.841   3.633  0.1874 -0.1930 -0.1611
 4620WAT     H119186   5.205   4.766   3.656 -0.5394 -0.0601 -0.8458
 4620WAT     H219187   5.190   4.902   3.668 -1.0872  0.0127 -2.2594
 4620WAT    EPW19188   5.229   4.839   3.641  0.3379  0.0971  0.2328
 4621WAT      O19189   6.035   1.520   1.888  0.1168 -0.1791  0.0637
 4621WAT     H119190   6.086   1.451   1.901  0.8190  0.3082 -0.0393
 4621WAT     H219191   5.990   1.499   1.817  1.0374 -0.1418 -0.5527
 4621WAT    EPW19192   6.036   1.507   1.879 -0.4972  0.5316 -0.9960
 4622WAT      O19193   7.230   7.904   4.302 -0.3785  0.2240  0.2325
 4622WAT     H119194   7.282   7.901   4.372  1.4488  0.2460 -1.0462
 4622WAT     H219195   7.247   7.828   4.261 -0.7998  0.5485 -0.5730
 4622WAT    EPW19196   7.240   7.892   4.306 -0.4562 -0.2620  0.0272
 4623WAT      O19197   1.357   2.388   5.467 -0.5750  0.1144 -0.0085
 4623WAT     H119198   1.351   2.416   5.549  0.9077  0.1964  0.0876
 4623WAT     H219199   1.424   2.333   5.468  1.3115  2.1810 -1.6845
 4623WAT    EPW19200   1.366   2.384   5.479 -0.0586 -0.1383  0.3342
 4624WAT      O19201   0.591   2.792   0.093 -0.4336  0.2493 -0.0385
 4624WAT     H119202   0.572   2.771   0.176 -1.5295  0.7189 -0.1467
 4624WAT     H219203   0.590   2.715   0.052  3.4415 -0.4985  0.8984
 4624WAT    EPW19204   0.588   2.778   0.099 -0.1430 -0.4790 -0.2093
 4625WAT      O19205   6.272   3.594   5.253  0.5180 -0.0713 -0.2815
 4625WAT     H119206   6.312   3.668   5.229 -0.9529  0.4856 -1.1241
 4625WAT     H219207   6.224   3.617   5.322  2.6347 -1.0626  1.6666
 4625WAT    EPW19208   6.271   3.608   5.260  0.2619  0.1283  0.2596
 4626WAT      O19209   0.754   4.523   4.755 -0.1395  0.4804  0.5790
 4626WAT     H119210   0.746   4.449   4.710 -2.3194  0.5239  0.7613
 4626WAT     H219211   0.836   4.549   4.739  1.0756 -2.4462  1.3243
 4626WAT    EPW19212   0.765   4.516   4.746 -0.5706 -0.3466 -0.0977
 4627WAT      O19213   1.830   7.281   2.808  0.1063  0.0150  0.1137
 4627WAT     H119214   1.755   7.312   2.840  0.3829  0.8497 -0.0173
 4627WAT     H219215   1.850   7.216   2.862 -1.4843 -1.2532 -0.7193
 4627WAT    EPW19216   1.822   7.276   2.821 -0.0304  0.5657  0.3548
 4628WAT      O19217   5.586   0.339   3.003  0.4622 -0.5716  0.3872
 4628WAT     H119218   5.582   0.339   3.090  0.2282 -2.2710  0.4076
 4628WAT     H219219   5.516   0.385   2.979 -1.2984 -2.7582  1.0930
 4628WAT    EPW19220   5.575   0.346   3.013  0.0191 -0.6318  0.4771
 4629WAT      O19221   6.950   3.715   3.369  0.6257 -0.0620  0.4127
 4629WAT     H119222   6.882   3.687   3.323 -0.2720 -0.1755  1.7750
 4629WAT     H219223   6.964   3.796   3.338  0.3303 -0.2872 -0.3372
 4629WAT    EPW19224   6.942   3.723   3.358  0.1970  0.0848 -0.1633
 4630WAT      O19225   5.033   3.785   1.086  0.6058  0.5749  0.1885
 4630WAT     H119226   4.967   3.796   1.030 -0.9468 -1.0625  1.5505
 4630WAT     H219227   5.061   3.705   1.069 -0.0799 -0.0657  1.8403
 4630WAT    EPW19228   5.027   3.775   1.075  0.8728 -0.0049  0.1219
 4631WAT      O19229   3.767   1.844   0.788  0.2263 -0.5270 -0.2295
 4631WAT     H119230   3.807   1.835   0.865  1.5597  0.4006 -0.7694
 4631WAT     H219231   3.688   1.875   0.809  0.5298 -0.3895  0.7748
 4631WAT    EPW19232   3.761   1.847   0.802 -0.2490  0.4917  0.2500
 4632WAT      O19233   0.495   4.964   2.847  0.6060  0.4308 -0.6771
 4632WAT     H119234   0.530   4.885   2.832  1.5486  0.6103  0.4488
 4632WAT     H219235   0.564   5.013   2.867 -0.1404  1.1610  0.1538
 4632WAT    EPW19236   0.510   4.959   2.847 -0.2370 -0.1161  0.0451
 4633WAT      O19237   2.844   1.001   3.266 -0.3442  0.1389  0.0962
 4633WAT     H119238   2.774   1.010   3.317 -0.2181  3.3201 -0.0768
 4633WAT     H219239   2.911   1.007   3.322 -0.2232  1.3885 -0.1584
 4633WAT    EPW19240   2.843   1.003   3.282  0.4670 -0.0124  0.7085
 4634WAT      O19241   2.846   2.662   7.286 -0.2043 -0.3368 -0.4106
 4634WAT     H119242   2.779   2.663   7.231 -0.5298 -0.7497 -0.0285
 4634WAT     H219243   2.913   2.693   7.238 -0.1090 -2.1166 -1.4981
 4634WAT    EPW19244   2.846   2.667   7.271 -0.2886 -0.7299 -0.2469
 4635WAT      O19245   5.615   3.689   2.914 -0.1035 -0.0726  0.9779
 4635WAT     H119246   5.698   3.714   2.917 -0.1994  0.3028  0.6258
 4635WAT     H219247   5.619   3.608   2.882  0.1153  0.0043  0.8103
 4635WAT    EPW19248   5.628   3.681   2.910  0.3562 -0.3084  0.5758
 4636WAT      O19249   5.795   0.049   3.147 -0.0120  0.3393  0.1276
 4636WAT     H119250   5.787   0.072   3.231  1.1339  1.7932 -0.1089
 4636WAT     H219251   5.809   0.125   3.106 -1.2239 -0.2545 -1.4999
 4636WAT    EPW19252   5.796   0.064   3.153 -0.2843  0.5652 -0.1869
 4637WAT      O19253   1.087   0.788   1.088 -0.1479 -0.1214  0.3397
 4637WAT     H119254   1.078   0.758   1.169 -2.7333 -0.5498 -0.0042
 4637WAT     H219255   1.051   0.725   1.039  0.8980  0.3428 -1.1221
 4637WAT    EPW19256   1.080   0.774   1.093  0.3065  0.2985  0.5561
 4638WAT      O19257   7.331   4.573   2.298 -0.0864 -0.2929  0.2131
 4638WAT     H119258   7.345   4.618   2.371  0.5800  2.9784 -1.7059
 4638WAT     H219259   7.250   4.596   2.274 -0.0436 -0.7604 -0.4258
 4638WAT    EPW19260   7.321   4.583   2.305 -0.4593 -0.3430  0.1863
 4639WAT      O19261   3.593   3.605   0.557 -0.2263 -0.4900 -0.3771
 4639WAT     H119262   3.627   3.613   0.637  2.3113  0.9983 -1.4848
 4639WAT     H219263   3.614   3.680   0.518 -3.4183 -0.1558 -1.8204
 4639WAT    EPW19264   3.601   3.617   0.563 -0.1715  0.0632 -0.2404
 4640WAT      O19265   3.656   1.657   3.590  1.0984 -0.2931  0.1252
 4640WAT     H119266   3.613   1.727   3.619  1.3992  0.1230 -0.4171
 4640WAT     H219267   3.596   1.615   3.543  0.7517 -0.7101  0.9189
 4640WAT    EPW19268   3.641   1.661   3.588  0.4313 -0.0652 -0.0542
 4641WAT      O19269   6.162   4.428   6.465 -0.3143 -0.1574 -0.0323
 4641WAT     H119270   6.134   4.358   6.509 -2.8836  1.3362  0.9248
 4641WAT     H219271   6.147   4.407   6.382  0.1014 -1.1969  0.1395
 4641WAT    EPW19272   6.155   4.414   6.459  0.0074 -0.5911 -0.0823
 4642WAT      O19273   0.063   0.156   3.422 -0.3045 -0.3737 -0.6792
 4642WAT     H119274  -0.020   0.137   3.399 -0.8057  2.4769 -1.6920
 4642WAT     H219275   0.110   0.124   3.356 -0.8348 -0.2690 -1.1213
 4642WAT    EPW19276   0.057   0.148   3.409  0.0277  0.2886 -0.0104
 4643WAT      O19277   6.891   2.859   3.574  0.7003 -0.1656  0.1488
 4643WAT     H119278   6.902   2.782   3.535  2.7378  1.0789 -1.9540
 4643WAT     H219279   6.943   2.913   3.529  0.7635  2.0848  2.6606
 4643WAT    EPW19280   6.901   2.856   3.562 -0.4649  0.2368  0.0322
 4644WAT      O19281   1.730   2.054   5.731  0.2981 -0.4112  0.0567
 4644WAT     H119282   1.813   2.046   5.704 -0.2383 -0.8393 -1.5335
 4644WAT     H219283   1.683   2.032   5.661 -1.1699 -2.3584  1.5157
 4644WAT    EPW19284   1.735   2.049   5.717 -0.0500 -0.0946 -0.0438
 4645WAT      O19285   7.169   0.807   2.943  0.5737  1.0494  0.0543
 4645WAT     H119286   7.097   0.812   2.992  0.1944 -0.3253 -0.3219
 4645WAT     H219287   7.202   0.729   2.963  0.4479  0.4680 -1.7804
 4645WAT    EPW19288   7.163   0.797   2.953  0.2054 -0.0254 -0.2875
 4646WAT      O19289   2.730   1.387   6.278 -0.0390  0.2850  0.4109
 4646WAT     H119290   2.779   1.327   6.320 -1.4306 -0.6046  0.8253
 4646WAT     H219291   2.788   1.428   6.227  0.9239 -1.6954 -0.2096
 4646WAT    EPW19292   2.746   1.384   6.277  0.1050 -0.0790  0.4875
 4647WAT      O19293   5.234   7.566   2.634 -0.3357  0.8735  0.1257
 4647WAT     H119294   5.171   7.509   2.656  0.2224 -0.1407 -0.8235
 4647WAT     H219295   5.308   7.520   2.643  0.1666  1.6071 -0.1399
 4647WAT    EPW19296   5.236   7.551   2.638 -0.0008  0.4807  0.1867
 4648WAT      O19297   0.903   2.273   2.244  0.1065  0.2347 -0.1242
 4648WAT     H119298   0.846   2.208   2.239  0.1442  0.1532  0.4329
 4648WAT     H219299   0.901   2.297   2.328  1.4919 -0.3323  0.1092
 4648WAT    EPW19300   0.894   2.267   2.255  0.0551 -0.3038  0.1929
 4649WAT      O19301   7.450   3.781   4.360  0.4877 -0.4249 -0.0756
 4649WAT     H119302   7.520   3.807   4.315  1.2027  0.7984  1.6444
 4649WAT     H219303   7.483   3.726   4.419  0.0794  0.5421  1.0692
 4649WAT    EPW19304   7.465   3.777   4.362 -0.4392 -0.2132 -0.3244
 4650WAT      O19305   5.976   0.820   5.333  0.4761  0.0745 -0.2676
 4650WAT     H119306   6.055   0.786   5.322 -0.3368 -2.4687  1.0302
 4650WAT     H219307   5.934   0.801   5.260  0.9154  1.1287 -0.8175
 4650WAT    EPW19308   5.981   0.812   5.321 -0.0223 -0.1627 -0.0129
 4651WAT      O19309   0.849   2.907   4.856  0.6489  0.5641 -0.3571
 4651WAT     H119310   0.764   2.899   4.836  0.4756  2.6577 -0.6676
 4651WAT     H219311   0.889   2.896   4.780  0.6208  0.1994 -0.3219
 4651WAT    EPW19312   0.842   2.904   4.842 -0.1770  0.1919 -0.0103
 4652WAT      O19313   7.279   1.788   3.844  0.7689  0.4680 -0.0441
 4652WAT     H119314   7.247   1.782   3.763  2.9214  0.7053 -0.9646
 4652WAT     H219315   7.359   1.820   3.832  1.0137  0.8314  2.2221
 4652WAT    EPW19316   7.286   1.792   3.830 -0.2451  0.0287 -0.1042
 4653WAT      O19317   4.614   5.680   4.531 -0.3762 -0.0525  0.4028
 4653WAT     H119318   4.575   5.608   4.563 -0.6072  0.3893  1.1289
 4653WAT     H219319   4.550   5.739   4.529 -0.0619  0.2902  0.3042
 4653WAT    EPW19320   4.599   5.678   4.536  0.2040  0.2953  0.2028
 4654WAT      O19321   7.445   3.068   4.783  0.3289 -0.1880 -0.2160
 4654WAT     H119322   7.442   3.041   4.701 -0.5033 -1.5469  0.2302
 4654WAT     H219323   7.517   3.030   4.815 -0.6406 -1.6802  0.3084
 4654WAT    EPW19324   7.455   3.058   4.776  0.2828  0.0964 -0.3062
 4655WAT      O19325   5.820   1.054   3.815  0.7403 -0.1435 -0.2188
 4655WAT     H119326   5.757   1.041   3.874  2.4667 -1.7084  1.4169
 4655WAT     H219327   5.796   1.128   3.775 -2.2676 -0.8525  0.0444
 4655WAT    EPW19328   5.807   1.063   3.818  0.6696 -0.2054  0.0870
 4656WAT      O19329   7.402   2.165   3.830  0.4374 -0.0008 -0.1888
 4656WAT     H119330   7.399   2.154   3.916  0.5012  0.1315 -0.1714
 4656WAT     H219331   7.323   2.197   3.811  1.4443  2.9370  0.2047
 4656WAT    EPW19332   7.390   2.168   3.840  0.4360 -0.0876  0.1942
 4657WAT      O19333   5.749   4.632   4.057 -0.4509 -0.0613  0.1252
 4657WAT     H119334   5.712   4.695   4.010  0.3197  0.0218 -0.3984
 4657WAT     H219335   5.802   4.592   4.000  2.3334  1.5246  1.3540
 4657WAT    EPW19336   5.752   4.636   4.042  0.3049  0.5013 -0.0676
 4658WAT      O19337   5.918   2.283   5.712  0.1287 -0.7620 -0.4263
 4658WAT     H119338   5.921   2.299   5.798 -1.5248 -0.5660 -0.3589
 4658WAT     H219339   5.839   2.248   5.702 -0.5606  1.1368 -2.1553
 4658WAT    EPW19340   5.907   2.280   5.724  0.4995  0.3126  0.6427
 4659WAT      O19341   8.021   4.232   1.573  0.7893 -0.4424 -0.3392
 4659WAT     H119342   7.963   4.177   1.538  1.1465  0.2703 -2.1749
 4659WAT     H219343   7.971   4.297   1.604  0.5359  0.7577 -2.9611
 4659WAT    EPW19344   8.005   4.233   1.572  0.7137 -0.1057  0.0525
 4660WAT      O19345   7.170   1.742   3.581 -0.1057  0.1152 -0.4650
 4660WAT     H119346   7.093   1.706   3.599  0.6807 -0.4443  2.0990
 4660WAT     H219347   7.212   1.681   3.535 -0.4285 -0.4155 -0.0551
 4660WAT    EPW19348   7.165   1.728   3.577  0.0467 -0.5763 -0.0625
 4661WAT      O19349   3.649   0.560   2.575  0.2620 -0.5810  0.1087
 4661WAT     H119350   3.675   0.515   2.646  0.3134 -0.7720 -0.0301
 4661WAT     H219351   3.593   0.506   2.537 -1.0050  0.1658  0.8558
 4661WAT    EPW19352   3.645   0.545   2.580 -0.1839 -0.2742 -0.2494
 4662WAT      O19353   3.022   2.560   2.169  0.1253  0.0189  0.0947
 4662WAT     H119354   2.999   2.549   2.085 -2.4757 -4.3996  1.0206
 4662WAT     H219355   2.973   2.627   2.195 -2.0431 -0.9717 -1.1410
 4662WAT    EPW19356   3.011   2.568   2.161  0.3031 -0.0389  0.1892
 4663WAT      O19357   6.526   3.675   3.460 -0.3515 -0.0219  0.1378
 4663WAT     H119358   6.587   3.630   3.416  1.5011  0.4931  1.9814
 4663WAT     H219359   6.451   3.649   3.425  0.8366 -1.9641 -1.1441
 4663WAT    EPW19360   6.524   3.664   3.449  0.2035  0.0205 -0.3859
 4664WAT      O19361   5.960   5.362   4.014 -0.4870  0.1117  0.5077
 4664WAT     H119362   5.957   5.351   4.100 -2.7615 -0.1051  0.4660
 4664WAT     H219363   5.975   5.282   3.984  0.9311  0.2867  0.6795
 4664WAT    EPW19364   5.962   5.349   4.022  0.2579  1.0263 -0.5174
 4665WAT      O19365   0.839   3.738   2.660 -0.3825  0.0558 -0.4506
 4665WAT     H119366   0.914   3.773   2.631  0.8451 -1.1001  1.1447
 4665WAT     H219367   0.859   3.711   2.740 -1.7706 -2.6126 -0.8848
 4665WAT    EPW19368   0.853   3.739   2.667 -0.1564 -0.0514 -0.2044
 4666WAT      O19369   4.718   0.212   3.703 -0.1102  0.2593  0.1312
 4666WAT     H119370   4.800   0.229   3.730  0.9414 -0.8143 -2.1315
 4666WAT     H219371   4.698   0.138   3.745 -0.2388  0.8761  1.2115
 4666WAT    EPW19372   4.727   0.204   3.713 -0.9029  0.1307 -0.0373
 4667WAT      O19373   7.810   3.509   4.588 -0.1803  0.0433  0.0991
 4667WAT     H119374   7.817   3.498   4.674  0.0380 -0.1890  0.0528
 4667WAT     H219375   7.869   3.454   4.555  0.0823  0.4815 -0.1810
 4667WAT    EPW19376   7.820   3.499   4.596 -0.1358  0.3100 -0.1532
 4668WAT      O19377   6.210   1.029   3.035 -0.0925 -0.0423  0.8203
 4668WAT     H119378   6.210   1.095   3.091 -0.6261  0.4583  0.2377
 4668WAT     H219379   6.234   0.960   3.084 -0.5130  0.3884  1.6391
 4668WAT    EPW19380   6.214   1.028   3.050 -0.3715 -0.0274  0.1527
 4669WAT      O19381   6.176   7.876   3.808 -0.0684 -0.5465 -0.0018
 4669WAT     H119382   6.151   7.921   3.879  0.2568 -0.7681  0.2572
 4669WAT     H219383   6.146   7.795   3.824 -2.5152 -0.0250 -1.4058
 4669WAT    EPW19384   6.168   7.871   3.821 -0.1604  0.1756  0.5384
 4670WAT      O19385   6.437   7.538   0.399  0.2733  0.1622  1.0743
 4670WAT     H119386   6.445   7.452   0.388  0.1016  0.0525  1.7670
 4670WAT     H219387   6.498   7.557   0.459  1.2042  0.7466 -0.0199
 4670WAT    EPW19388   6.447   7.528   0.406  0.2829  0.1270  0.0778
 4671WAT      O19389   6.306   3.874   3.012  0.1014 -0.2901  0.1624
 4671WAT     H119390   6.288   3.813   3.072  0.3517  0.1654  0.7102
 4671WAT     H219391   6.393   3.881   3.016  0.0502  0.2860  0.2938
 4671WAT    EPW19392   6.316   3.866   3.022 -0.5444  0.1338 -0.4983
 4672WAT      O19393   5.035   2.112   5.895 -0.3003 -0.0751  0.2215
 4672WAT     H119394   4.990   2.037   5.897 -1.7254  0.7469  0.8699
 4672WAT     H219395   5.002   2.156   5.963  0.1772  1.3222 -0.4372
 4672WAT    EPW19396   5.024   2.107   5.906  0.3080 -0.0850 -0.1862
 4673WAT      O19397   4.609   2.890   0.571  0.2377  0.0424 -0.1724
 4673WAT     H119398   4.651   2.832   0.522 -0.2634 -1.2342  0.8618
 4673WAT     H219399   4.526   2.885   0.544  0.0693 -0.2262  0.3758
 4673WAT    EPW19400   4.603   2.881   0.560 -0.3340  0.5632  0.5618
 4674WAT      O19401   3.169   8.040   2.993  0.2860  0.4493 -0.0131
 4674WAT     H119402   3.145   7.956   2.998 -1.6756  0.8930 -0.9556
 4674WAT     H219403   3.177   8.054   2.907  2.2993  0.8413  0.1869
 4674WAT    EPW19404   3.167   8.029   2.981  0.1267  0.0208 -0.4812
 4675WAT      O19405   5.560   2.120   3.593 -0.6168 -1.0002 -0.2044
 4675WAT     H119406   5.622   2.111   3.654  0.1067  0.3785 -0.6993
 4675WAT     H219407   5.529   2.201   3.607 -0.8091 -0.8660 -1.3159
 4675WAT    EPW19408   5.565   2.131   3.604 -1.0098 -0.3904  0.3525
 4676WAT      O19409   5.975   7.573   4.844 -0.2624  0.5095  0.1502
 4676WAT     H119410   5.941   7.581   4.924 -1.0976 -1.2936  0.0310
 4676WAT     H219411   5.905   7.557   4.793  0.5372 -2.0667 -0.3005
 4676WAT    EPW19412   5.959   7.572   4.848  0.9245  0.0488  0.1544
 4677WAT      O19413   4.164   2.681   1.157 -0.3521  0.0310 -0.5162
 4677WAT     H119414   4.149   2.614   1.211  1.4848  0.7823  1.0256
 4677WAT     H219415   4.092   2.729   1.164 -1.7953 -1.7971 -1.7970
 4677WAT    EPW19416   4.151   2.678   1.166  0.2504  0.2809 -0.0936
 4678WAT      O19417   5.722   1.146   2.792 -0.3052 -0.7860 -0.0638
 4678WAT     H119418   5.656   1.100   2.825 -1.7063 -0.3807 -2.0604
 4678WAT     H219419   5.741   1.104   2.718  0.5052  0.0852 -0.3771
 4678WAT    EPW19420   5.715   1.133   2.786 -0.1355  0.3395 -0.1601
 4679WAT      O19421   4.520   2.157   5.088 -0.0942 -0.2758 -0.1650
 4679WAT     H119422   4.472   2.159   5.016  0.1624 -0.2967 -0.3356
 4679WAT     H219423   4.507   2.236   5.124 -0.0420 -0.1842 -0.3483
 4679WAT    EPW19424   4.511   2.169   5.083  0.2657 -0.1598  0.0253
 4680WAT      O19425   7.766   4.582   3.634 -0.9441 -0.0722 -0.4444
 4680WAT     H119426   7.734   4.516   3.682  0.8526 -0.7298 -0.0789
 4680WAT     H219427   7.751   4.556   3.552 -1.5182 -0.2519 -0.2895
 4680WAT    EPW19428   7.759   4.568   3.629  0.5991 -0.1185 -0.6272
 4681WAT      O19429   5.075   2.013   3.516  0.1850  0.2117  0.0400
 4681WAT     H119430   5.111   2.065   3.576 -1.2356 -0.1380  1.2319
 4681WAT     H219431   5.059   2.067   3.449  0.7017  0.8408  0.4076
 4681WAT    EPW19432   5.078   2.029   3.515 -0.2084  0.0183  0.2039
 4682WAT      O19433   0.608   0.119   1.840  0.5524 -0.5948  0.2346
 4682WAT     H119434   0.555   0.157   1.899 -0.1095 -1.8994  0.5199
 4682WAT     H219435   0.677   0.095   1.888  1.0225  0.3200  0.0325
 4682WAT    EPW19436   0.610   0.121   1.856 -0.4958  0.0495  0.2704
 4683WAT      O19437   7.200   7.280   3.711 -0.1507  0.4103 -0.1561
 4683WAT     H119438   7.143   7.327   3.665  0.5105 -0.2056 -1.6864
 4683WAT     H219439   7.276   7.320   3.696  0.0204  0.5043  0.8686
 4683WAT    EPW19440   7.203   7.293   3.702  0.1214 -0.3738 -0.3628
 4684WAT      O19441   3.979   1.375   0.286 -0.1115  0.2029 -0.2813
 4684WAT     H119442   3.940   1.335   0.353 -0.5112 -1.0014 -1.2096
 4684WAT     H219443   4.052   1.329   0.274 -0.1727  0.2521 -0.8467
 4684WAT    EPW19444   3.984   1.363   0.294 -0.1128  0.5699  0.3095
 4685WAT      O19445   7.266   1.570   1.620  0.2743  0.5974 -0.3351
 4685WAT     H119446   7.315   1.521   1.566 -0.7675  0.3031 -1.0407
 4685WAT     H219447   7.256   1.644   1.575 -2.2826 -0.3658 -1.5199
 4685WAT    EPW19448   7.272   1.574   1.605  0.4073 -0.2078 -0.3996
 4686WAT      O19449   0.553   0.581   2.747 -0.2787  0.2560  0.2090
 4686WAT     H119450   0.560   0.665   2.724  0.4119  1.1239  3.1223
 4686WAT     H219451   0.636   0.554   2.751 -0.4815 -0.4858 -0.3086
 4686WAT    EPW19452   0.566   0.590   2.744  0.2424  1.0012  0.1841
 4687WAT      O19453   4.250   3.105   1.392  0.4646  0.4484 -0.2691
 4687WAT     H119454   4.271   3.172   1.443  1.7601 -0.1318  0.0039
 4687WAT     H219455   4.318   3.098   1.338  1.4807 -2.0042  1.1554
 4687WAT    EPW19456   4.263   3.114   1.392  0.3083 -0.0949 -0.1572
 4688WAT      O19457   4.711   0.161   4.803  0.0980 -0.2107  0.3745
 4688WAT     H119458   4.642   0.213   4.793  0.6063  0.5935  0.8854
 4688WAT     H219459   4.708   0.108   4.734 -0.1231  0.8565 -0.4438
 4688WAT    EPW19460   4.700   0.161   4.792  0.2222  0.3705 -0.0658
 4689WAT      O19461   6.505   0.458   2.036  0.7784  0.2240  0.4651
 4689WAT     H119462   6.573   0.419   1.998 -0.3597 -0.4114 -0.9697
 4689WAT     H219463   6.528   0.542   2.037  0.7893  0.2881 -1.8177
 4689WAT    EPW19464   6.519   0.465   2.031  0.3654 -0.1173  0.1309
 4690WAT      O19465   5.440   4.288   2.768  0.4096 -0.2622 -0.0122
 4690WAT     H119466   5.379   4.229   2.745  1.3741 -1.4641  0.4243
 4690WAT     H219467   5.486   4.300   2.696 -0.7487  1.2088 -0.5523
 4690WAT    EPW19468   5.437   4.281   2.754 -0.5166  0.3255 -0.4797
 4691WAT      O19469   6.393   4.044   1.703  0.6966  0.1927 -0.0700
 4691WAT     H119470   6.401   4.131   1.695  2.1237  0.1048  0.1865
 4691WAT     H219471   6.333   4.035   1.765  0.3061  0.9960 -0.3105
 4691WAT    EPW19472   6.385   4.056   1.711  0.0262  0.3679 -0.4467
 4692WAT      O19473   3.844   0.444   7.349  0.0903  0.0427 -0.1999
 4692WAT     H119474   3.915   0.393   7.339  0.9687  0.9524  1.0384
 4692WAT     H219475   3.874   0.510   7.398 -1.5373  0.6632  0.0002
 4692WAT    EPW19476   3.859   0.447   7.355  0.1778 -0.4991 -0.1599
 4693WAT      O19477   1.744   5.007   3.175  0.2183  0.5790  0.3109
 4693WAT     H119478   1.677   5.053   3.143  0.5776  0.1374 -1.1558
 4693WAT     H219479   1.741   5.023   3.260 -2.3597 -0.2000  0.4489
 4693WAT    EPW19480   1.734   5.016   3.183  0.7324 -0.0879 -0.5777
 4694WAT      O19481   6.865   0.711   4.242  0.4416  0.0466 -0.4578
 4694WAT     H119482   6.790   0.674   4.216  0.2909 -0.7372  0.9661
 4694WAT     H219483   6.908   0.724   4.167 -1.0365  0.3820 -1.3010
 4694WAT    EPW19484   6.860   0.707   4.227 -0.1106 -0.3755 -0.0707
 4695WAT      O19485   6.884   2.710   7.887 -0.0997  0.3596 -0.9039
 4695WAT     H119486   6.885   2.795   7.904 -0.0804  0.2740 -0.4739
 4695WAT     H219487   6.882   2.707   7.800 -2.0671  0.8341 -0.9270
 4695WAT    EPW19488   6.884   2.722   7.877  0.3529 -0.0037 -0.8408
 4696WAT      O19489   7.192   5.372   3.092 -0.2114 -0.2394  0.5786
 4696WAT     H119490   7.154   5.296   3.110 -2.1449  0.3869 -0.5800
 4696WAT     H219491   7.251   5.352   3.031 -0.8232 -0.7871  0.1611
 4696WAT    EPW19492   7.195   5.358   3.086  0.1303 -0.5530  0.3972
 4697WAT      O19493   6.215   0.502   4.411  0.0294 -0.6001  0.0101
 4697WAT     H119494   6.271   0.521   4.475  0.0357  0.8049 -0.3635
 4697WAT     H219495   6.266   0.488   4.342 -0.0347 -0.2630 -0.1092
 4697WAT    EPW19496   6.230   0.503   4.410  0.1409 -0.2661  0.0852
 4698WAT      O19497   5.151   5.543   3.673  0.2659 -0.4035  0.4292
 4698WAT     H119498   5.143   5.483   3.735 -1.6817 -1.3684 -0.6777
 4698WAT     H219499   5.133   5.500   3.599  1.1488  1.0076 -0.6804
 4698WAT    EPW19500   5.147   5.528   3.671 -0.6107  0.1940 -0.5277
 4699WAT      O19501   4.948   4.150   3.514 -0.2977 -0.2486  0.1967
 4699WAT     H119502   4.896   4.199   3.464  0.1355  0.3233  0.2978
 4699WAT     H219503   4.942   4.071   3.478  0.5419  0.2830 -1.1904
 4699WAT    EPW19504   4.940   4.146   3.501  0.1544 -0.4017 -0.2677
 4700WAT      O19505   4.346   4.236   2.470 -0.4428  0.3500 -0.6300
 4700WAT     H119506   4.355   4.291   2.537  2.5114 -0.6582 -0.0668
 4700WAT     H219507   4.415   4.183   2.477 -1.3836 -1.3758 -3.0474
 4700WAT    EPW19508   4.357   4.236   2.481 -0.1940 -0.4827  0.3420
 4701WAT      O19509   6.987   2.866   1.349 -0.0070 -0.3528 -0.4355
 4701WAT     H119510   6.970   2.821   1.277 -0.2266 -3.4342  1.3552
 4701WAT     H219511   6.929   2.835   1.407 -1.2443  3.4012  0.6938
 4701WAT    EPW19512   6.976   2.855   1.347 -0.1131  0.5673  0.4617
 4702WAT      O19513   7.706   7.691   4.510  0.4364 -0.1470  0.3976
 4702WAT     H119514   7.774   7.656   4.553  2.1104 -0.8675 -2.5498
 4702WAT     H219515   7.654   7.623   4.494  1.8989 -0.8080 -2.1558
 4702WAT    EPW19516   7.709   7.676   4.514  0.1782  0.1133 -0.2708
 4703WAT      O19517   4.726   1.048   2.140  0.4131 -0.0520  0.1462
 4703WAT     H119518   4.651   1.013   2.166  0.7909 -1.0406 -0.0760
 4703WAT     H219519   4.702   1.107   2.080 -0.0802 -1.5323 -1.1652
 4703WAT    EPW19520   4.711   1.052   2.135  0.2284 -0.0620 -0.4490
 4704WAT      O19521   6.154   4.578   3.078  0.3896 -0.4263  0.1369
 4704WAT     H119522   6.229   4.619   3.064 -1.2652  2.4750 -1.0247
 4704WAT     H219523   6.144   4.583   3.165  0.8923  0.4047  0.1571
 4704WAT    EPW19524   6.163   4.584   3.089  0.6183  0.5709 -0.5975
 4705WAT      O19525   3.130   6.962   5.853 -0.5553  0.2443 -0.4230
 4705WAT     H119526   3.179   6.929   5.789  2.9503  1.6675  1.2414
 4705WAT     H219527   3.144   6.908   5.920 -1.3122  0.6846  0.1087
 4705WAT    EPW19528   3.140   6.949   5.853 -0.0127  0.2413 -0.1422
 4706WAT      O19529   6.223   5.112   4.705 -0.2008 -0.4254 -0.3135
 4706WAT     H119530   6.278   5.150   4.761  0.4152  1.2163 -1.9640
 4706WAT     H219531   6.164   5.074   4.758  0.3477  1.0252  1.4572
 4706WAT    EPW19532   6.222   5.112   4.721 -0.2584 -0.1274 -0.1669
 4707WAT      O19533   5.915   2.347   6.401 -0.4245  0.1376 -0.0563
 4707WAT     H119534   5.929   2.267   6.371 -1.9978  0.0661 -0.6799
 4707WAT     H219535   5.837   2.369   6.368 -1.4317  0.7796  2.4777
 4707WAT    EPW19536   5.906   2.339   6.392  0.3922 -0.1435 -0.2137
 4708WAT      O19537   6.824   2.773   1.140 -0.6951  0.3472 -0.8723
 4708WAT     H119538   6.820   2.847   1.095 -1.5943  2.2762  2.0327
 4708WAT     H219539   6.764   2.785   1.203 -0.2759 -2.5151  0.2126
 4708WAT    EPW19540   6.814   2.786   1.143  0.3897  0.0013 -0.1019
 4709WAT      O19541   1.766   2.269   4.527 -0.4529  0.2216 -0.2991
 4709WAT     H119542   1.706   2.249   4.587 -1.4711  0.6719 -1.1314
 4709WAT     H219543   1.832   2.302   4.574 -1.4407  1.0826  0.5546
 4709WAT    EPW19544   1.767   2.271   4.543  0.0729  0.4825 -0.1015
 4710WAT      O19545   5.683   0.467   4.076  0.0435  0.2834 -0.5876
 4710WAT     H119546   5.766   0.461   4.101  0.2107  0.2939 -1.1259
 4710WAT     H219547   5.666   0.553   4.078 -0.5804  0.1545  1.4798
 4710WAT    EPW19548   5.692   0.479   4.080  0.3165  0.2457 -0.1604
 4711WAT      O19549   6.468   7.784   1.907 -0.6036 -0.5085 -0.4293
 4711WAT     H119550   6.535   7.745   1.948  0.3756  0.3696 -1.1232
 4711WAT     H219551   6.500   7.798   1.827 -1.5824  0.0536 -0.7313
 4711WAT    EPW19552   6.483   7.780   1.901 -0.0775 -0.3189 -0.0809
 4712WAT      O19553   6.824   5.198   4.297 -0.1197 -0.0444 -0.3365
 4712WAT     H119554   6.831   5.266   4.351 -2.0927  0.7205 -0.9459
 4712WAT     H219555   6.759   5.151   4.331  0.5235 -1.1090 -0.5047
 4712WAT    EPW19556   6.815   5.201   4.310  0.4862  0.3084 -0.2739
 4713WAT      O19557   6.627   4.252   1.169 -0.0820  0.2077  0.0861
 4713WAT     H119558   6.559   4.306   1.161 -1.5832 -1.4511  0.7795
 4713WAT     H219559   6.592   4.181   1.206  2.3797 -0.0675  2.1708
 4713WAT    EPW19560   6.612   4.249   1.173 -0.0026 -0.3544 -0.1591
 4714WAT      O19561   7.542   2.787   2.898  0.0706  0.9508  0.3267
 4714WAT     H119562   7.492   2.717   2.889  0.6535  0.6737 -1.0026
 4714WAT     H219563   7.621   2.754   2.914 -0.0571  1.3725  1.9575
 4714WAT    EPW19564   7.546   2.772   2.899  0.1811  0.2147  0.3337
 4715WAT      O19565   0.483   0.306   2.911 -0.2707  0.0741 -0.5375
 4715WAT     H119566   0.468   0.388   2.938 -0.8697 -0.6295  1.3673
 4715WAT     H219567   0.500   0.263   2.984 -2.0146 -1.9615 -1.2492
 4715WAT    EPW19568   0.483   0.312   2.926 -0.2563  0.2333 -0.3373
 4716WAT      O19569   0.297   1.222   2.454  0.1650 -0.4589 -0.7647
 4716WAT     H119570   0.286   1.266   2.380  2.1819  0.7913 -0.3880
 4716WAT     H219571   0.243   1.154   2.445 -2.0996  1.3482 -1.9313
 4716WAT    EPW19572   0.287   1.218   2.442 -0.2301  0.0733 -0.1793
 4717WAT      O19573   6.305   1.863   5.103 -0.2290  0.0533  0.7091
 4717WAT     H119574   6.233   1.830   5.140 -1.4909 -1.1990 -2.4916
 4717WAT     H219575   6.296   1.949   5.114 -2.2031 -0.0814  0.5215
 4717WAT    EPW19576   6.293   1.871   5.110 -0.1340 -0.3737  0.1809
 4718WAT      O19577   1.675   3.911   3.659  0.4722  0.2901  0.5029
 4718WAT     H119578   1.635   3.858   3.716 -0.6618 -0.2201 -0.7097
 4718WAT     H219579   1.690   3.859   3.591  0.5963  1.2111 -0.1789
 4718WAT    EPW19580   1.671   3.895   3.658 -0.1807  0.2031  0.1249
 4719WAT      O19581   6.149   5.411   5.967 -0.9619 -0.2340 -0.0978
 4719WAT     H119582   6.089   5.348   5.973  1.0060 -2.2302 -0.0378
 4719WAT     H219583   6.162   5.433   6.050 -0.4842 -0.9744  0.0374
 4719WAT    EPW19584   6.142   5.405   5.980  0.2259  0.5336 -0.1055
 4720WAT      O19585   4.455   0.436   2.816 -0.0139  0.1629  0.7260
 4720WAT     H119586   4.400   0.476   2.871  0.0816  1.0990  0.1643
 4720WAT     H219587   4.532   0.443   2.855 -0.0086  0.4785  0.6610
 4720WAT    EPW19588   4.458   0.443   2.830  0.0325 -0.3504  0.2935
 4721WAT      O19589   4.799   7.446   1.000  0.8111 -0.4445  0.3558
 4721WAT     H119590   4.750   7.448   0.928 -1.2142  3.1550  1.5471
 4721WAT     H219591   4.881   7.443   0.970  0.1279  2.2106 -2.2699
 4721WAT    EPW19592   4.804   7.446   0.985 -0.1174  0.1903 -0.3893
 4722WAT      O19593   7.352   5.333   3.560 -0.0404 -0.1509 -0.7365
 4722WAT     H119594   7.347   5.319   3.646 -0.6017  0.0425 -0.7356
 4722WAT     H219595   7.432   5.305   3.539  0.9885  1.8743  0.2261
 4722WAT    EPW19596   7.363   5.326   3.570 -0.1469  0.6739 -0.0386
 4723WAT      O19597   7.089   0.633   1.120  0.4018 -0.5673  0.2653
 4723WAT     H119598   7.070   0.609   1.038  0.6323 -0.3655  0.1492
 4723WAT     H219599   7.049   0.573   1.169  1.6839 -1.7056 -0.0363
 4723WAT    EPW19600   7.080   0.621   1.115 -0.3008  0.0443 -0.4109
 4724WAT      O19601   6.405   3.538   1.034  0.0630  0.5185  0.1801
 4724WAT     H119602   6.440   3.616   1.020  0.2102  0.4200 -0.0098
 4724WAT     H219603   6.428   3.520   1.117  0.8069  0.2845 -0.0692
 4724WAT    EPW19604   6.414   3.547   1.044 -0.1416 -0.4551 -0.1518
 4725WAT      O19605   1.857   3.642   4.220 -0.2451 -0.2515  0.1693
 4725WAT     H119606   1.921   3.693   4.189  0.8868 -1.7393 -0.0368
 4725WAT     H219607   1.883   3.562   4.201 -0.5501 -1.1448  3.0166
 4725WAT    EPW19608   1.870   3.638   4.213 -0.6685 -0.2858  0.2675
 4726WAT      O19609   6.387   3.467   4.532  0.2954 -0.0824  0.1380
 4726WAT     H119610   6.363   3.387   4.558 -0.6227  0.6900  1.9068
 4726WAT     H219611   6.444   3.491   4.593  0.2338  0.7632 -0.1339
 4726WAT    EPW19612   6.392   3.459   4.545  0.2622 -0.5166  0.1259
 4727WAT      O19613   7.979   3.110   4.037 -0.1547 -0.4778  0.5739
 4727WAT     H119614   7.903   3.128   3.998  0.7200  1.0254 -0.5557
 4727WAT     H219615   7.969   3.139   4.118 -1.1224 -1.2488  0.7467
 4727WAT    EPW19616   7.966   3.117   4.043  0.4051 -0.0809 -0.3881
 4728WAT      O19617   6.500   0.650   0.781  0.5858  0.1487 -0.3876
 4728WAT     H119618   6.577   0.614   0.799 -0.2504 -1.6406 -0.1611
 4728WAT     H219619   6.467   0.599   0.718 -0.5115  0.7426 -0.3313
 4728WAT    EPW19620   6.506   0.638   0.774 -0.7294 -0.2541  0.4717
 4729WAT      O19621   3.692   0.916   1.424 -0.5052  0.8261 -0.2153
 4729WAT     H119622   3.665   0.929   1.506 -1.8398 -1.7203 -0.1549
 4729WAT     H219623   3.633   0.958   1.376  0.4522  2.5973  0.0208
 4729WAT    EPW19624   3.680   0.924   1.429 -0.3332 -0.3165  0.4484
 4730WAT      O19625   0.137   1.665   2.952 -0.3304  0.2358  0.1357
 4730WAT     H119626   0.082   1.631   2.894 -3.2836  1.0796  2.1623
 4730WAT     H219627   0.154   1.599   3.006 -0.5160  0.2813  0.2546
 4730WAT    EPW19628   0.131   1.650   2.951  0.4734  0.0968  0.4838
 4731WAT      O19629   1.369   7.370   4.959 -0.1982  0.2490  0.0519
 4731WAT     H119630   1.402   7.301   5.000  1.4066  0.1542 -1.2852
 4731WAT     H219631   1.369   7.433   5.019  2.0350  0.1158  0.2605
 4731WAT    EPW19632   1.374   7.369   4.974 -0.7267 -0.2234  0.7832
 4732WAT      O19633   5.624   0.197   0.998  0.3598 -0.5016 -0.3827
 4732WAT     H119634   5.696   0.191   1.048 -0.5176  1.0080  1.2049
 4732WAT     H219635   5.590   0.117   1.001  1.8675 -1.1867 -1.0097
 4732WAT    EPW19636   5.630   0.184   1.006  0.3599 -0.1899 -0.1151
 4733WAT      O19637   1.985   1.270   3.887  0.2885  0.0208 -0.2137
 4733WAT     H119638   2.048   1.211   3.895 -1.3069 -1.6597  0.5499
 4733WAT     H219639   1.937   1.240   3.821  0.1238  1.1632 -0.6459
 4733WAT    EPW19640   1.987   1.257   3.878  0.1764  0.2818 -0.2569
 4734WAT      O19641   1.774   7.797   1.018 -0.0039  0.2242  0.1823
 4734WAT     H119642   1.728   7.768   0.949 -1.1785 -1.2788  1.4972
 4734WAT     H219643   1.837   7.737   1.027 -0.6903 -0.3864  1.1897
 4734WAT    EPW19644   1.776   7.784   1.009  0.2618  0.0259  0.1099
 4735WAT      O19645   5.554   2.447   2.442 -0.6660  0.1135  0.1670
 4735WAT     H119646   5.633   2.446   2.480 -1.2592  0.2606  1.4525
 4735WAT     H219647   5.568   2.490   2.367  0.8224 -1.3547 -0.4669
 4735WAT    EPW19648   5.568   2.453   2.436 -0.4102  0.5496  0.0434
 4736WAT      O19649   0.697   0.581   4.457 -0.7998  0.3892 -0.1300
 4736WAT     H119650   0.688   0.662   4.428  1.6059  0.1051 -2.0160
 4736WAT     H219651   0.629   0.538   4.422  0.4758  0.6701 -3.2227
 4736WAT    EPW19652   0.686   0.586   4.448  0.0987 -0.4244 -0.2860
 4737WAT      O19653   4.195   2.653   6.128  0.3767 -0.4200  0.3354
 4737WAT     H119654   4.237   2.621   6.059  1.0124 -0.9849  0.9610
 4737WAT     H219655   4.151   2.584   6.158 -2.0058  0.4303 -0.9936
 4737WAT    EPW19656   4.195   2.638   6.122 -0.4220  0.0139  0.8370
 4738WAT      O19657   2.543   3.254   2.305  0.2203 -0.3578 -0.1406
 4738WAT     H119658   2.487   3.296   2.253 -0.7705 -0.2813  0.9339
 4738WAT     H219659   2.621   3.271   2.269 -0.3245  0.7087 -0.8934
 4738WAT    EPW19660   2.546   3.263   2.292 -0.7900  1.0968  0.5362
 4739WAT      O19661   6.477   6.502   4.878 -0.2254  0.3289  0.1102
 4739WAT     H119662   6.518   6.530   4.806  2.4210  0.3922  1.5199
 4739WAT     H219663   6.427   6.570   4.900 -1.0453  0.3161 -1.6217
 4739WAT    EPW19664   6.476   6.516   4.871 -0.2153  0.1286  0.0732
 4740WAT      O19665   1.451   0.028   7.946  0.0616 -0.2273 -0.6875
 4740WAT     H119666   1.427  -0.056   7.951 -3.0791  0.4884 -1.4849
 4740WAT     H219667   1.394   0.063   7.889  2.9965  1.9447 -2.5859
 4740WAT    EPW19668   1.439   0.021   7.939 -0.2912  0.1143  0.4968
 4741WAT      O19669   0.507   2.075   5.056  0.7934 -0.0064  0.6193
 4741WAT     H119670   0.464   2.149   5.040 -1.2395 -0.8684  1.6972
 4741WAT     H219671   0.505   2.069   5.143  1.5120 -1.0066  0.5791
 4741WAT    EPW19672   0.501   2.085   5.067 -0.4318  0.4698  0.0285
 4742WAT      O19673   5.699   5.771   6.118 -0.2737  0.1607  0.5051
 4742WAT     H119674   5.750   5.733   6.058  0.6905  0.2503  1.2471
 4742WAT     H219675   5.630   5.718   6.123  0.4032 -0.7418  0.4965
 4742WAT    EPW19676   5.697   5.757   6.110  0.2146 -0.1117 -0.1024
 4743WAT      O19677   3.136   2.974   3.858  0.2063  0.0033  0.1662
 4743WAT     H119678   3.109   2.921   3.794  0.0447 -1.2756  1.2380
 4743WAT     H219679   3.200   3.020   3.821 -1.8257  1.4680 -1.7560
 4743WAT    EPW19680   3.142   2.973   3.843  0.7418 -0.2046 -0.0634
 4744WAT      O19681   4.279   2.514   3.374  0.0433  0.2021  0.0911
 4744WAT     H119682   4.364   2.511   3.393 -0.0673  0.4434  0.6436
 4744WAT     H219683   4.262   2.599   3.367  0.0842  0.1155 -1.1472
 4744WAT    EPW19684   4.289   2.526   3.376  0.1548 -0.2538 -0.5837
 4745WAT      O19685   2.675   0.795   2.001 -0.0795 -0.7903 -0.0319
 4745WAT     H119686   2.624   0.865   1.989 -0.6026 -0.5607  2.8066
 4745WAT     H219687   2.645   0.738   1.942 -0.3679  0.9520 -1.6815
 4745WAT    EPW19688   2.663   0.797   1.990  0.1624  0.5178  0.3540
 4746WAT      O19689   6.562   1.652   4.008 -0.3768  0.0348 -0.8430
 4746WAT     H119690   6.580   1.623   3.928 -0.8785 -2.7874 -0.0487
 4746WAT     H219691   6.599   1.593   4.060 -4.0542 -1.0195  0.9194
 4746WAT    EPW19692   6.570   1.639   4.004  0.1815 -0.1727 -0.0623
 4747WAT      O19693   6.480   1.708   0.124  0.4733 -0.1090 -0.1958
 4747WAT     H119694   6.503   1.715   0.040 -0.1578 -0.3207 -0.3960
 4747WAT     H219695   6.497   1.787   0.157  1.0184 -0.1185 -0.4458
 4747WAT    EPW19696   6.486   1.720   0.116 -0.5089  0.7133  0.1804
 4748WAT      O19697   2.622   0.476   2.077  0.4475 -0.1384  0.1064
 4748WAT     H119698   2.699   0.435   2.081  0.1534 -0.6758  0.5356
 4748WAT     H219699   2.610   0.491   1.992  1.2520  0.4025  0.0836
 4748WAT    EPW19700   2.631   0.472   2.065  0.2711 -0.2685  0.1094
 4749WAT      O19701   0.606   1.875   4.045  0.0321  0.4022  0.1235
 4749WAT     H119702   0.629   1.796   4.075  1.3259  1.0325  0.8656
 4749WAT     H219703   0.674   1.900   3.996  0.9067  2.1622  2.0756
 4749WAT    EPW19704   0.619   1.867   4.042 -0.0928 -0.3102  0.4252
 4750WAT      O19705   5.332   7.640   4.559 -0.5382 -0.3710 -0.2573
 4750WAT     H119706   5.316   7.557   4.537  1.7180 -1.1494  0.7436
 4750WAT     H219707   5.419   7.647   4.550 -0.3047  1.0573  2.2344
 4750WAT    EPW19708   5.343   7.629   4.554 -0.2062  0.3702 -0.4291
 4751WAT      O19709   1.909   4.679   2.416  0.0244 -0.2441 -0.0018
 4751WAT     H119710   1.887   4.664   2.499 -0.9313 -3.1685 -0.6774
 4751WAT     H219711   1.983   4.635   2.405 -0.3864 -0.7185 -0.9577
 4751WAT    EPW19712   1.916   4.671   2.427 -0.4455  0.1504  0.4840
 4752WAT      O19713   5.725   1.720   0.551  0.0307  0.1636 -0.4145
 4752WAT     H119714   5.799   1.726   0.596 -1.0925  0.3677  1.5648
 4752WAT     H219715   5.678   1.788   0.579 -1.4937 -0.8349 -0.3681
 4752WAT    EPW19716   5.729   1.731   0.562  0.8290  0.7139 -0.3145
 4753WAT      O19717   4.756   5.611   3.069  0.2009 -0.2067 -0.0281
 4753WAT     H119718   4.702   5.650   3.126 -1.0594 -1.5138 -0.2631
 4753WAT     H219719   4.824   5.666   3.064  0.2452  0.0803  2.5323
 4753WAT    EPW19720   4.758   5.625   3.077  0.1373 -0.0405  0.1176
 4754WAT      O19721   0.071   4.128   2.335 -0.5806  0.3715 -0.5941
 4754WAT     H119722   0.050   4.111   2.253  2.5672 -2.5169 -0.9991
 4754WAT     H219723   0.134   4.188   2.329  0.2647 -0.4738 -0.4061
 4754WAT    EPW19724   0.077   4.134   2.322 -0.0431  0.3856  0.6478
 4755WAT      O19725   3.188   6.872   1.320 -0.3724  0.0119 -0.0683
 4755WAT     H119726   3.270   6.898   1.310  0.0842 -1.0065  0.7898
 4755WAT     H219727   3.166   6.903   1.398 -0.6002 -0.2007 -0.0457
 4755WAT    EPW19728   3.197   6.880   1.330  0.0025 -0.1284  0.4653
 4756WAT      O19729   7.372   7.605   3.023  0.4191  0.3353  0.3936
 4756WAT     H119730   7.294   7.642   3.034  0.0448 -0.2506 -0.2246
 4756WAT     H219731   7.426   7.674   3.017  0.1348  0.7345  1.9722
 4756WAT    EPW19732   7.368   7.621   3.024  0.1325  0.0992  0.3024
 4757WAT      O19733   4.705   1.569   0.003 -0.5394  0.1159  1.0310
 4757WAT     H119734   4.696   1.507   0.063 -1.0286 -0.5776  0.2642
 4757WAT     H219735   4.629   1.568  -0.040  0.5167 -0.9196 -0.9770
 4757WAT    EPW19736   4.692   1.560   0.006  0.0062  0.0979 -0.4033
 4758WAT      O19737   7.944   0.742   1.282  0.4942 -0.3437  0.4741
 4758WAT     H119738   7.951   0.712   1.201  0.7181 -0.3705  0.5028
 4758WAT     H219739   7.921   0.672   1.329  3.6980 -1.1865  1.0243
 4758WAT    EPW19740   7.942   0.727   1.277  0.3154 -0.6916  0.2451
 4759WAT      O19741   7.775   1.912   3.877 -0.2021  0.0085  0.5092
 4759WAT     H119742   7.738   1.969   3.932 -0.2476  1.0470 -0.5332
 4759WAT     H219743   7.848   1.888   3.918 -0.9940 -0.4468  1.6801
 4759WAT    EPW19744   7.781   1.917   3.891 -0.4071 -0.2485 -0.3155
 4760WAT      O19745   4.562   1.747   1.121  0.3701 -0.0501  0.5027
 4760WAT     H119746   4.611   1.802   1.169 -0.8748  0.6473  1.0059
 4760WAT     H219747   4.523   1.799   1.063 -2.0313 -0.1110  1.9611
 4760WAT    EPW19748   4.564   1.763   1.119  0.1293  0.0079 -0.2080
 4761WAT      O19749   8.076   2.447   3.823 -0.6153  0.0010 -0.4541
 4761WAT     H119750   8.013   2.427   3.880 -0.0864  1.4470  0.6948
 4761WAT     H219751   8.143   2.398   3.849 -0.8459 -0.5228 -0.8328
 4761WAT    EPW19752   8.077   2.437   3.835  0.2015  0.9497  0.5022
 4762WAT      O19753   0.465   3.891   2.457  0.2758 -0.4298 -0.3811
 4762WAT     H119754   0.408   3.850   2.509  0.1972  0.1697  0.0227
 4762WAT     H219755   0.434   3.973   2.453  0.2985 -0.4569 -1.3579
 4762WAT    EPW19756   0.452   3.897   2.464  0.0926  0.0320 -0.1079
 4763WAT      O19757   6.698   1.498   0.745  0.4013  0.1445 -0.1066
 4763WAT     H119758   6.771   1.483   0.791  0.4958  2.5552  0.6648
 4763WAT     H219759   6.721   1.563   0.691 -0.7183 -0.2381 -1.0788
 4763WAT    EPW19760   6.712   1.505   0.744  0.0302 -0.4458  0.0192
 4764WAT      O19761   7.113   1.499   4.519 -0.0551 -0.3449 -0.5128
 4764WAT     H119762   7.037   1.458   4.512  1.0640 -2.7721  0.2853
 4764WAT     H219763   7.114   1.528   4.601  0.4510 -1.6806 -0.0189
 4764WAT    EPW19764   7.102   1.497   4.530  0.1849  0.0702  0.0505
 4765WAT      O19765   4.412   6.790   2.196 -0.0518 -0.5464  0.1789
 4765WAT     H119766   4.485   6.824   2.231 -0.4377 -0.5026  0.9606
 4765WAT     H219767   4.365   6.768   2.266 -1.8130  1.5833 -0.2443
 4765WAT    EPW19768   4.416   6.792   2.211  0.5788 -0.5642  0.3197
 4766WAT      O19769   5.682   1.240   3.161 -0.5261 -0.3587  0.4891
 4766WAT     H119770   5.741   1.211   3.218  0.4643  1.3507  0.4250
 4766WAT     H219771   5.699   1.326   3.156 -2.7386  0.1240  0.1061
 4766WAT    EPW19772   5.694   1.249   3.169 -0.1091  0.1494 -0.3830
 4767WAT      O19773   6.633   6.183   0.286 -0.0018 -0.2555 -0.3089
 4767WAT     H119774   6.599   6.218   0.215 -1.5207 -0.2679  0.3799
 4767WAT     H219775   6.574   6.123   0.310  1.1261 -1.2062  0.2032
 4767WAT    EPW19776   6.619   6.179   0.279 -0.3169 -0.2349 -0.4286
 4768WAT      O19777   8.077   1.476   1.898 -0.3980  0.1916  0.6373
 4768WAT     H119778   8.141   1.486   1.957 -1.0400 -0.2024  1.4019
 4768WAT     H219779   8.040   1.555   1.896  0.8719  0.8038 -0.7343
 4768WAT    EPW19780   8.081   1.489   1.907  0.0642 -0.5416 -0.0628
 4769WAT      O19781   0.189   2.059   0.765  0.5079  0.0125 -0.0424
 4769WAT     H119782   0.263   2.105   0.759  0.1197  0.7350  0.5584
 4769WAT     H219783   0.127   2.120   0.773  0.0067 -0.6142  1.1243
 4769WAT    EPW19784   0.190   2.075   0.765  0.5653  0.4923  0.0554
 4770WAT      O19785   6.013   2.077   4.907 -0.8437  0.2131  0.0092
 4770WAT     H119786   6.002   2.050   4.990 -2.5173  1.4811  0.2727
 4770WAT     H219787   5.987   2.161   4.910 -2.2187 -0.0648 -2.0392
 4770WAT    EPW19788   6.007   2.085   4.920 -0.6801 -0.0154 -0.3012
 4771WAT      O19789   7.495   7.787   3.359 -0.2859  0.2555  0.5940
 4771WAT     H119790   7.430   7.740   3.394 -0.1452 -0.2705  0.1781
 4771WAT     H219791   7.567   7.749   3.391 -0.1674  0.0675  0.1240
 4771WAT    EPW19792   7.496   7.774   3.369 -0.2249  0.5348 -0.5509
 4772WAT      O19793   0.799   0.512   3.678 -0.4372  0.3092 -0.0374
 4772WAT     H119794   0.739   0.575   3.677  1.0090  1.7758  0.2096
 4772WAT     H219795   0.753   0.438   3.686 -2.1098  1.4503  1.5384
 4772WAT    EPW19796   0.783   0.510   3.679 -0.0009 -0.0478 -0.2736
 4773WAT      O19797   5.062   1.663   0.349  0.3976 -0.0770  0.5052
 4773WAT     H119798   5.138   1.650   0.389 -0.3661 -2.4379  1.3308
 4773WAT     H219799   5.035   1.740   0.381  2.3164  0.7552  0.2914
 4773WAT    EPW19800   5.070   1.673   0.359  0.4692 -0.6480  0.2309
 4774WAT      O19801   3.592   0.146   0.414  0.3013 -0.4613  0.1078
 4774WAT     H119802   3.658   0.172   0.464  1.8830 -2.4016 -0.8322
 4774WAT     H219803   3.600   0.059   0.412 -1.7236 -0.7030 -0.8172
 4774WAT    EPW19804   3.603   0.137   0.421 -0.1993 -0.0457  0.1420
 4775WAT      O19805   1.554   4.104   3.165  0.5236 -0.1791 -0.1752
 4775WAT     H119806   1.637   4.076   3.165  1.5766  2.5681 -1.1499
 4775WAT     H219807   1.545   4.140   3.244  0.1326 -0.7076  0.0286
 4775WAT    EPW19808   1.565   4.105   3.177 -0.7138  0.2268  0.4257
 4776WAT      O19809   1.022   2.007   2.861 -0.4426  0.0234  0.4446
 4776WAT     H119810   0.989   2.088   2.860 -0.6107 -0.0188  1.4745
 4776WAT     H219811   1.098   2.016   2.819 -2.0706 -0.0716 -2.8641
 4776WAT    EPW19812   1.029   2.021   2.854  0.1240  0.1921  0.3396
 4777WAT      O19813   0.224   1.507   3.261 -0.7168 -0.0390  0.3900
 4777WAT     H119814   0.297   1.475   3.295  0.1188 -0.5677 -1.7536
 4777WAT     H219815   0.251   1.579   3.219 -1.3566 -0.3930 -0.6629
 4777WAT    EPW19816   0.239   1.513   3.260 -0.1058  0.4905  0.1382
 4778WAT      O19817   5.029   0.297   5.418 -0.2130 -0.8170  0.3313
 4778WAT     H119818   4.951   0.260   5.433 -1.0384  0.8917  0.5388
 4778WAT     H219819   5.030   0.365   5.473  0.5753  0.3188 -1.0235
 4778WAT    EPW19820   5.017   0.302   5.428  0.2449 -0.1236  0.4762
 4779WAT      O19821   5.694   7.842   4.212  0.3047 -0.1853  0.1708
 4779WAT     H119822   5.741   7.848   4.139 -0.1001 -0.8812 -0.1623
 4779WAT     H219823   5.715   7.914   4.257  0.9738 -0.0304 -0.3833
 4779WAT    EPW19824   5.704   7.853   4.208 -0.1527 -0.2989  0.1398
 4780WAT      O19825   0.268   2.335   2.978 -0.2520  0.1871  0.1312
 4780WAT     H119826   0.302   2.336   2.898 -0.3889  0.3651  0.0736
 4780WAT     H219827   0.183   2.353   2.964 -0.6310 -1.4443  0.1457
 4780WAT    EPW19828   0.260   2.338   2.964 -0.0789 -0.1950 -0.0749
 4781WAT      O19829   0.145   6.981   2.876  0.2496  0.3256 -0.3237
 4781WAT     H119830   0.108   7.011   2.803  1.6900  0.3744 -1.0695
 4781WAT     H219831   0.152   6.895   2.862  0.6129  0.3476 -0.2957
 4781WAT    EPW19832   0.140   6.973   2.863  0.0339  0.5347  0.4640
 4782WAT      O19833   4.510   4.965   6.671 -0.2535 -0.4959  0.1721
 4782WAT     H119834   4.482   4.900   6.723 -4.5090  2.2895  1.9317
 4782WAT     H219835   4.563   5.011   6.722  1.2866 -1.4640 -0.4779
 4782WAT    EPW19836   4.513   4.962   6.686  0.0793 -0.0056 -0.6635
 4783WAT      O19837   1.232   0.125   1.486 -0.4003 -0.4637 -0.2532
 4783WAT     H119838   1.299   0.164   1.526 -0.3719 -0.7007 -0.0660
 4783WAT     H219839   1.170   0.187   1.486 -0.3207 -0.3800 -0.0523
 4783WAT    EPW19840   1.232   0.140   1.492 -0.0236 -0.4277  0.2232
 4784WAT      O19841   6.051   5.005   2.326 -0.3033 -0.1158  0.6283
 4784WAT     H119842   5.966   5.019   2.315 -0.3311 -0.5995  0.2339
 4784WAT     H219843   6.069   4.941   2.270  0.3357  0.0334  0.6595
 4784WAT    EPW19844   6.041   4.998   2.316  0.3358  0.0220 -0.2787
 4785WAT      O19845   5.789   3.868   1.356 -0.3478 -0.4119 -0.4948
 4785WAT     H119846   5.728   3.913   1.314  0.6521  3.0464  1.3502
 4785WAT     H219847   5.857   3.870   1.302  0.2102  2.0026  0.1571
 4785WAT    EPW19848   5.790   3.875   1.342  0.0903  0.6924  0.3609
 4786WAT      O19849   1.289   1.860   1.546 -0.3387 -0.2356 -0.1401
 4786WAT     H119850   1.328   1.784   1.528  2.4558  0.9000  0.4835
 4786WAT     H219851   1.249   1.880   1.471  3.1763 -0.0238 -2.2108
 4786WAT    EPW19852   1.289   1.852   1.532  0.2398 -0.0953 -0.2043
 4787WAT      O19853   0.726   4.774   4.391 -0.2730  0.3699 -0.1478
 4787WAT     H119854   0.657   4.794   4.342 -1.1961  2.3927  1.8040
 4787WAT     H219855   0.692   4.763   4.471  1.6035  1.2008  0.8314
 4787WAT    EPW19856   0.711   4.775   4.395 -0.4103 -0.1533 -0.0486
 4788WAT      O19857   3.947   1.486   3.578  0.4491  0.0449  0.1630
 4788WAT     H119858   4.006   1.550   3.588 -0.3602  0.5824  2.0012
 4788WAT     H219859   3.874   1.530   3.558 -0.1329 -0.2462  1.5274
 4788WAT    EPW19860   3.945   1.502   3.577 -0.7798 -0.1913 -0.4349
 4789WAT      O19861   2.756   7.127   2.324 -0.8220  0.2052  0.5332
 4789WAT     H119862   2.690   7.151   2.272 -0.7003  0.0511  0.3087
 4789WAT     H219863   2.785   7.203   2.356 -1.4398  0.2388  1.0428
 4789WAT    EPW19864   2.751   7.142   2.321  0.3514  0.1270 -0.0449
 4790WAT      O19865   4.555   1.027   7.205  0.2319 -0.2876  0.2095
 4790WAT     H119866   4.548   1.031   7.118  1.1298 -0.9252  0.1004
 4790WAT     H219867   4.602   1.098   7.225  0.1011 -0.1880  0.1610
 4790WAT    EPW19868   4.561   1.038   7.195 -0.0451  0.0814  0.2808
 4791WAT      O19869   6.876   3.714   1.875 -0.7124 -0.0457 -0.6580
 4791WAT     H119870   6.854   3.681   1.798 -0.5106 -0.4768 -0.5307
 4791WAT     H219871   6.959   3.690   1.885 -1.3855 -1.9884  0.7313
 4791WAT    EPW19872   6.885   3.706   1.865  0.0722 -0.0844  0.2756
 4792WAT      O19873   6.688   2.545   3.664 -0.0937 -0.0964 -0.1653
 4792WAT     H119874   6.748   2.545   3.727  0.2064 -0.3036 -0.4460
 4792WAT     H219875   6.629   2.604   3.691  0.1785  0.0253  0.1667
 4792WAT    EPW19876   6.688   2.554   3.677 -0.3786 -0.2541 -0.4509
 4793WAT      O19877   6.900   1.402   3.084  0.4632  0.2287 -0.1570
 4793WAT     H119878   6.938   1.326   3.101  0.1637  0.1516  0.1812
 4793WAT     H219879   6.957   1.461   3.116  0.7161  0.1523 -0.4608
 4793WAT    EPW19880   6.914   1.400   3.091 -0.3257  0.4162  0.3882
 4794WAT      O19881   4.306   2.701   2.145  0.0592  0.0495 -0.2669
 4794WAT     H119882   4.262   2.763   2.189 -0.8083 -0.6667 -0.0856
 4794WAT     H219883   4.298   2.726   2.062 -1.4613 -0.4911 -0.3243
 4794WAT    EPW19884   4.298   2.714   2.140  0.5338 -0.0522 -0.4535
 4795WAT      O19885   5.971   3.452   4.370 -0.3469 -0.0488 -0.1621
 4795WAT     H119886   5.928   3.439   4.295 -0.1794 -0.0824 -0.2536
 4795WAT     H219887   5.971   3.374   4.408  1.3169 -0.5323 -1.0609
 4795WAT    EPW19888   5.965   3.439   4.364 -0.4113  0.3674  0.4738
 4796WAT      O19889   6.813   0.646   0.239  0.6802 -0.2710 -0.5219
 4796WAT     H119890   6.821   0.570   0.281  1.4258 -0.2963 -0.6847
 4796WAT     H219891   6.844   0.628   0.159 -0.9129 -0.2818 -1.1731
 4796WAT    EPW19892   6.819   0.632   0.233  0.5617  0.7198 -0.2891
 4797WAT      O19893   7.061   1.028   0.773 -0.6109 -0.3208  0.7923
 4797WAT     H119894   7.067   0.948   0.740  1.0823 -0.2513  0.8501
 4797WAT     H219895   7.083   1.018   0.857 -0.1405  0.2286  0.7450
 4797WAT    EPW19896   7.065   1.015   0.781 -0.0029 -0.2401  0.5771
 4798WAT      O19897   0.210   1.135   1.744  0.4257  0.4855 -0.2760
 4798WAT     H119898   0.280   1.105   1.703  0.5634  1.7207 -1.0021
 4798WAT     H219899   0.219   1.106   1.826  1.0113 -0.5886 -0.7142
 4798WAT    EPW19900   0.221   1.126   1.750 -0.5882 -0.7299  0.0908
 4799WAT      O19901   5.253   0.404   1.518 -0.8564 -0.0154  0.3163
 4799WAT     H119902   5.173   0.417   1.486 -1.7828  1.0479  2.8035
 4799WAT     H219903   5.247   0.431   1.601  1.8695 -0.6962  0.8481
 4799WAT    EPW19904   5.240   0.410   1.525 -0.2454  0.1003  0.0418
 4800WAT      O19905   2.643   7.648   1.552 -0.2538 -0.6184  0.3791
 4800WAT     H119906   2.568   7.644   1.507  0.8273 -1.0609 -1.4846
 4800WAT     H219907   2.625   7.705   1.615 -1.8442  0.1352 -0.6672
 4800WAT    EPW19908   2.629   7.656   1.554 -0.1613  0.2591 -0.0541
 4801WAT      O19909   0.186   8.008   3.194  0.1347 -0.0461 -0.2839
 4801WAT     H119910   0.104   7.987   3.212  0.1774  1.7572  2.5862
 4801WAT     H219911   0.233   7.947   3.235  0.2914 -0.8287 -1.5667
 4801WAT    EPW19912   0.181   7.996   3.203  0.1711 -0.2567 -0.2142
 4802WAT      O19913   0.488   2.740   0.662 -0.1244 -0.3763  0.1058
 4802WAT     H119914   0.509   2.656   0.651  1.1337 -0.0805  0.0271
 4802WAT     H219915   0.559   2.773   0.702 -0.8665  0.5047  0.7246
 4802WAT    EPW19916   0.502   2.732   0.666 -0.0177 -0.3028 -0.8324
 4803WAT      O19917   0.821   7.713   2.388 -0.1322 -0.0988  0.1734
 4803WAT     H119918   0.848   7.732   2.307  0.1010 -0.2047  0.2244
 4803WAT     H219919   0.815   7.626   2.388 -3.3722  0.0186 -0.7462
 4803WAT    EPW19920   0.824   7.703   2.376 -0.1638 -0.3112 -0.2339
 4804WAT      O19921   6.566   0.193   3.286  0.1290 -0.3450  0.3074
 4804WAT     H119922   6.574   0.148   3.211  0.7146  2.5807 -1.5778
 4804WAT     H219923   6.496   0.243   3.272  1.3938  1.6800  0.8081
 4804WAT    EPW19924   6.557   0.194   3.273 -0.5826  0.3920  0.1903
 4805WAT      O19925   6.206   7.330   0.997 -0.3967 -0.2530 -0.3139
 4805WAT     H119926   6.292   7.334   1.013 -0.4833  0.1822  0.0488
 4805WAT     H219927   6.181   7.413   0.997 -0.5937 -0.2914 -1.6864
 4805WAT    EPW19928   6.215   7.343   0.999 -0.3251 -0.5617  0.0515
 4806WAT      O19929   4.869   2.020   2.301  0.1263 -0.4252  0.0977
 4806WAT     H119930   4.940   2.071   2.304  0.6180 -1.0993  0.3962
 4806WAT     H219931   4.806   2.073   2.272  1.6446 -0.7982 -4.8812
 4806WAT    EPW19932   4.871   2.035   2.297  0.1465  0.5910  0.4056
 4807WAT      O19933   2.954   2.984   0.869 -0.5431  0.1588  0.6445
 4807WAT     H119934   2.911   3.011   0.798 -0.8792  1.1685  1.2035
 4807WAT     H219935   2.891   2.973   0.929 -0.0722  1.8764  1.5441
 4807WAT    EPW19936   2.939   2.987   0.868 -0.3243 -0.4735 -0.8120
 4808WAT      O19937   7.798   8.012   2.230 -0.3647  0.5407  0.2149
 4808WAT     H119938   7.729   7.985   2.183 -0.1900 -1.0764  0.8391
 4808WAT     H219939   7.776   8.093   2.253 -0.7565  1.1505 -2.0584
 4808WAT    EPW19940   7.785   8.020   2.226 -0.6283  0.2628  0.1387
 4809WAT      O19941   6.757   1.834   0.906  0.0982  0.4510 -0.4801
 4809WAT     H119942   6.749   1.916   0.876 -2.2924 -0.5584 -3.0372
 4809WAT     H219943   6.676   1.813   0.929  0.8036 -1.0225  0.8149
 4809WAT    EPW19944   6.744   1.843   0.905 -0.1885  0.1804 -0.0456
 4810WAT      O19945   3.588   0.730   0.984  0.4259 -0.1103 -0.5302
 4810WAT     H119946   3.645   0.675   0.948  1.1322 -1.3303  2.1655
 4810WAT     H219947   3.638   0.796   1.011  0.5219 -0.8145  1.1388
 4810WAT    EPW19948   3.603   0.731   0.983  0.2554  0.3807  0.2390
 4811WAT      O19949   7.845   3.860   0.557  0.0151  0.2076  0.1847
 4811WAT     H119950   7.897   3.825   0.617 -0.2679 -0.3932  0.0806
 4811WAT     H219951   7.896   3.867   0.486 -0.2894 -1.2844 -0.2169
 4811WAT    EPW19952   7.861   3.856   0.555 -0.4808  0.2489  0.0737
 4812WAT      O19953   5.233   1.761   3.624  0.4332 -0.0738  0.0112
 4812WAT     H119954   5.199   1.826   3.577 -3.3133  0.5711  3.0952
 4812WAT     H219955   5.213   1.689   3.578  1.2030  0.6884 -1.5886
 4812WAT    EPW19956   5.225   1.760   3.611  0.1629 -0.0384 -0.0653
 4813WAT      O19957   3.580   1.521   6.723  0.0950  0.0542  0.1102
 4813WAT     H119958   3.644   1.539   6.779 -1.3646 -0.6981  2.1072
 4813WAT     H219959   3.623   1.488   6.654  1.8902  0.2122  1.0916
 4813WAT    EPW19960   3.596   1.519   6.721  0.4019  0.2159  0.4200
 4814WAT      O19961   3.915   7.416   3.086 -0.0806  0.1308  0.2376
 4814WAT     H119962   3.924   7.329   3.082 -0.4248 -0.0473  2.3715
 4814WAT     H219963   3.834   7.430   3.056 -0.1071 -0.2962  0.1009
 4814WAT    EPW19964   3.904   7.405   3.081 -0.4019 -0.3483  0.0181
 4815WAT      O19965   0.340   2.564   3.124  0.0757 -0.3574 -0.1016
 4815WAT     H119966   0.304   2.500   3.077 -2.3158  0.5523  0.3621
 4815WAT     H219967   0.288   2.569   3.194 -1.7901  4.0016 -1.4868
 4815WAT    EPW19968   0.327   2.555   3.127  0.6373  0.0224 -0.3784
 4816WAT      O19969   4.957   1.706   7.012  0.5363 -0.1475 -0.2848
 4816WAT     H119970   5.043   1.712   7.014  0.5616 -0.5730  0.0863
 4816WAT     H219971   4.935   1.749   6.940  1.0952 -0.4423 -0.6357
 4816WAT    EPW19972   4.966   1.713   7.002  0.8703 -0.2878 -0.4427
 4817WAT      O19973   1.792   7.020   0.269  0.2721 -0.0426  0.6457
 4817WAT     H119974   1.853   6.958   0.273  0.1009 -0.7177 -3.4715
 4817WAT     H219975   1.725   6.982   0.229 -1.4810  1.7378  1.6730
 4817WAT    EPW19976   1.791   7.005   0.264  0.1546 -0.0295 -0.1580
 4818WAT      O19977   6.467   2.974   2.474  0.3172 -0.2059 -0.6002
 4818WAT     H119978   6.433   2.943   2.399 -0.3286  2.0062 -1.2877
 4818WAT     H219979   6.459   3.060   2.466 -0.1608  0.1070  2.2354
 4818WAT    EPW19980   6.461   2.982   2.462 -0.1771 -0.5066  0.2504
 4819WAT      O19981   2.381   2.363   4.301  0.5116 -0.3746  0.4030
 4819WAT     H119982   2.423   2.431   4.265  1.8886  0.8098  3.8523
 4819WAT     H219983   2.297   2.385   4.294  0.2159 -1.7934 -4.7418
 4819WAT    EPW19984   2.375   2.376   4.295 -0.1503  0.3082 -0.5443
 4820WAT      O19985   3.434   1.882   6.493 -0.2434  0.5563  0.3726
 4820WAT     H119986   3.427   1.925   6.568  1.2182 -1.1428  1.5736
 4820WAT     H219987   3.364   1.830   6.493  0.4435 -0.4279  1.3081
 4820WAT    EPW19988   3.423   1.881   6.504  0.0692 -0.7044 -0.0635
 4821WAT      O19989   6.173   7.714   0.728 -0.0217 -0.4766 -0.6022
 4821WAT     H119990   6.133   7.642   0.758  0.5822 -0.9526 -0.8997
 4821WAT     H219991   6.253   7.708   0.762  0.0632  0.0026 -0.7203
 4821WAT    EPW19992   6.179   7.702   0.737 -0.1967 -0.4662 -0.1962
 4822WAT      O19993   6.746   2.699   0.248  0.0756  0.1417 -0.3111
 4822WAT     H119994   6.670   2.734   0.271  0.1365 -0.0689  0.2431
 4822WAT     H219995   6.787   2.763   0.206  0.1529  0.7228  0.6172
 4822WAT    EPW19996   6.741   2.713   0.246  0.3107 -0.6746  0.0773
 4823WAT      O19997   5.834   1.767   4.051 -0.4716 -0.0031 -0.0140
 4823WAT     H119998   5.754   1.794   4.075 -0.6901 -1.6420  1.2613
 4823WAT     H219999   5.885   1.799   4.114 -0.0884  1.0884 -0.8594
 4823WAT    EPW20000   5.830   1.776   4.064  0.4208  0.1106 -0.2456
 4824WAT      O20001   1.614   0.489   2.104 -0.3917  0.3149 -0.8083
 4824WAT     H120002   1.680   0.432   2.097  0.9294  1.4812  0.9437
 4824WAT     H220003   1.548   0.441   2.133  0.0978 -0.6678 -1.2875
 4824WAT    EPW20004   1.614   0.474   2.108 -0.4379 -0.0478 -0.3059
 4825WAT      O20005   8.018   1.475   1.211 -0.4900  0.3084  0.4959
 4825WAT     H120006   8.016   1.441   1.291  0.0325 -0.2242  0.2815
 4825WAT     H220007   7.955   1.431   1.169  1.8045 -2.2490 -0.5052
 4825WAT    EPW20008   8.008   1.463   1.217 -0.6196  0.4066 -0.2254
 4826WAT      O20009   7.165   6.731   0.274  0.1979 -0.6619  0.4572
 4826WAT     H120010   7.127   6.656   0.250  0.6339 -1.1605  1.2860
 4826WAT     H220011   7.125   6.791   0.225 -0.0582 -1.4521 -0.3119
 4826WAT    EPW20012   7.153   6.729   0.263 -0.0451  0.2750 -0.2328
 4827WAT      O20013   0.712   1.403   3.717  0.4358  0.3300 -0.5464
 4827WAT     H120014   0.662   1.452   3.666 -1.2916 -0.2954  0.4560
 4827WAT     H220015   0.766   1.460   3.755 -0.6904  1.3001 -0.3571
 4827WAT    EPW20016   0.712   1.419   3.715 -0.0913 -0.1422  0.2509
 4828WAT      O20017   7.664   2.496   3.460  1.0563  0.1994 -0.2087
 4828WAT     H120018   7.600   2.554   3.474  0.2582 -0.3549 -1.4553
 4828WAT     H220019   7.734   2.533   3.498 -0.2755  0.1166  2.5614
 4828WAT    EPW20020   7.665   2.510   3.468 -0.0545 -0.6141  0.1485
 4829WAT      O20021   0.538   2.200   4.588  0.2273  0.3499  0.1715
 4829WAT     H120022   0.539   2.195   4.501  0.2322  1.7053  0.0743
 4829WAT     H220023   0.589   2.268   4.606  1.0618 -0.5359  1.3058
 4829WAT    EPW20024   0.545   2.210   4.578 -0.2211 -0.2035  0.0876
 4830WAT      O20025   2.311   7.691   1.841 -0.1878  0.0695  0.0954
 4830WAT     H120026   2.364   7.714   1.905 -1.0279 -0.3414  0.9635
 4830WAT     H220027   2.245   7.747   1.847 -0.1743  0.1653 -0.5507
 4830WAT    EPW20028   2.309   7.703   1.851 -0.3102  0.0364 -0.1406
 4831WAT      O20029   4.153   1.114   3.254  0.3421 -0.3754 -0.0503
 4831WAT     H120030   4.149   1.194   3.288  1.7255  0.0525 -0.8366
 4831WAT     H220031   4.210   1.072   3.304 -0.0904 -0.7736  0.1240
 4831WAT    EPW20032   4.161   1.119   3.266 -0.5710  0.0591  0.3332
 4832WAT      O20033   3.778   7.237   7.644  0.0271  0.3470 -0.2060
 4832WAT     H120034   3.759   7.279   7.570 -0.3641  0.6622  0.0694
 4832WAT     H220035   3.782   7.153   7.620 -0.9789  0.3476 -0.4231
 4832WAT    EPW20036   3.776   7.231   7.630 -0.1543 -0.0583 -0.3817
 4833WAT      O20037   1.754   7.680   3.370 -0.0869 -0.1077 -0.1062
 4833WAT     H120038   1.721   7.600   3.382  0.7982 -0.6707 -1.2785
 4833WAT     H220039   1.753   7.714   3.450  0.8701 -1.8219  0.6982
 4833WAT    EPW20040   1.749   7.673   3.383  0.3324 -0.1027  0.0563
 4834WAT      O20041   6.564   1.620   4.505 -0.0883 -0.2854 -0.2880
 4834WAT     H120042   6.504   1.572   4.464 -0.3767 -0.7633  0.6572
 4834WAT     H220043   6.611   1.655   4.440 -0.4245 -1.1480 -1.0116
 4834WAT    EPW20044   6.562   1.618   4.489 -0.0355  0.2380  0.4869
 4835WAT      O20045   5.390   4.586   5.538 -0.3592  0.1593 -0.5685
 4835WAT     H120046   5.386   4.659   5.490 -1.6396  0.8141  0.4780
 4835WAT     H220047   5.454   4.603   5.595 -1.1352  0.7656  0.1306
 4835WAT    EPW20048   5.399   4.599   5.539  0.5210 -0.1749  0.3778
 4836WAT      O20049   7.760   6.805   0.743  0.1172  0.1094 -0.2267
 4836WAT     H120050   7.813   6.736   0.738 -0.2017 -0.2999  1.4443
 4836WAT     H220051   7.680   6.769   0.749 -0.2914  0.6963 -1.5926
 4836WAT    EPW20052   7.756   6.789   0.743  0.5226 -0.1228  0.7265
 4837WAT      O20053   1.634   2.446   1.438 -0.5975 -0.0337  0.4026
 4837WAT     H120054   1.588   2.394   1.384  0.9546 -0.1846 -0.8524
 4837WAT     H220055   1.642   2.398   1.510 -0.8193 -0.7792 -0.0514
 4837WAT    EPW20056   1.628   2.431   1.440 -0.2935 -0.3145  0.0317
 4838WAT      O20057   4.158   5.716   1.896  0.5544  0.5534 -0.3409
 4838WAT     H120058   4.115   5.770   1.949  0.1049 -1.7649  1.8768
 4838WAT     H220059   4.235   5.705   1.936  0.2165 -1.2286 -0.0772
 4838WAT    EPW20060   4.163   5.722   1.910  0.1995 -0.5872  0.4809
 4839WAT      O20061   2.039   2.702   4.196 -0.1040  0.2561  0.7677
 4839WAT     H120062   2.055   2.684   4.112 -1.8436 -0.6909  0.5916
 4839WAT     H220063   1.960   2.668   4.209 -1.7412  3.8875  1.6938
 4839WAT    EPW20064   2.029   2.694   4.185 -0.2920 -0.0618 -0.2752
 4840WAT      O20065   5.180   5.797   1.434  0.2387  0.1940  0.0833
 4840WAT     H120066   5.095   5.798   1.416  0.3154 -2.3526 -0.7305
 4840WAT     H220067   5.185   5.751   1.508  0.9336  0.0381 -0.0529
 4840WAT    EPW20068   5.168   5.790   1.442  0.3451 -0.0231  0.2203
 4841WAT      O20069   2.959   0.710   7.416 -0.6478 -0.2922  0.3657
 4841WAT     H120070   2.953   0.683   7.499 -0.9839 -0.5325  0.2630
 4841WAT     H220071   2.974   0.796   7.424  0.2688 -0.4617  0.6898
 4841WAT    EPW20072   2.960   0.719   7.430  0.4568 -0.1126  0.3207
 4842WAT      O20073   7.699   1.689   4.678 -0.1304  0.1647  0.3890
 4842WAT     H120074   7.786   1.689   4.675 -0.0556  1.3958  1.5386
 4842WAT     H220075   7.677   1.772   4.661 -1.0324  0.0385  0.8529
 4842WAT    EPW20076   7.708   1.701   4.675  0.4263  0.0987  0.2520
 4843WAT      O20077   0.395   6.747   0.403  0.1281 -0.6357 -0.4069
 4843WAT     H120078   0.420   6.707   0.329  1.4714  0.3762 -0.5300
 4843WAT     H220079   0.408   6.831   0.387  1.3418 -0.4511  1.2887
 4843WAT    EPW20080   0.400   6.753   0.390  0.0877  0.1823  0.1581
 4844WAT      O20081   5.660   0.889   3.016  0.2792 -0.1517 -0.3263
 4844WAT     H120082   5.727   0.920   3.062  1.6288 -0.4557 -2.0177
 4844WAT     H220083   5.688   0.812   2.987 -0.6629 -0.1326 -1.3714
 4844WAT    EPW20084   5.674   0.882   3.018  0.1639  0.0937 -0.1090
 4845WAT      O20085   3.789   0.938   2.410 -0.2589  0.3721  0.3066
 4845WAT     H120086   3.721   0.901   2.449 -0.2844  0.8487  0.7264
 4845WAT     H220087   3.794   1.017   2.447 -0.0556  0.6976 -0.3912
 4845WAT    EPW20088   3.780   0.944   2.421 -0.3310 -0.0651 -0.6009
 4846WAT      O20089   7.446   2.764   0.495 -0.4262 -0.3686 -0.0747
 4846WAT     H120090   7.436   2.716   0.568  0.5400  0.3695  0.5812
 4846WAT     H220091   7.383   2.823   0.501  0.8094  0.9213  1.2383
 4846WAT    EPW20092   7.435   2.766   0.507 -0.6227  0.0941 -0.2234
 4847WAT      O20093   1.014   0.528   4.390 -0.0054 -0.0602 -0.5457
 4847WAT     H120094   1.000   0.442   4.396  2.3266 -0.4683  0.1748
 4847WAT     H220095   1.054   0.548   4.465  1.4651  1.1778 -1.5828
 4847WAT    EPW20096   1.018   0.519   4.402 -0.3269 -0.0427 -0.1845
 4848WAT      O20097   4.609   0.086   0.412  0.2556  0.1025  0.2631
 4848WAT     H120098   4.636   0.004   0.424 -1.8310 -1.6446 -4.4847
 4848WAT     H220099   4.535   0.090   0.458 -0.8760 -1.7264 -1.1922
 4848WAT    EPW20100   4.602   0.074   0.420 -0.1781  1.0302 -0.1301
 4849WAT      O20101   1.987   4.664   1.406 -0.1882 -0.3846 -0.0297
 4849WAT     H120102   2.053   4.706   1.368  1.3194 -1.4113  1.3022
 4849WAT     H220103   1.920   4.676   1.351  1.6592 -1.1683 -2.6216
 4849WAT    EPW20104   1.987   4.672   1.392  0.2442 -0.3054  0.2020
 4850WAT      O20105   6.600   5.062   4.441 -0.2706  0.2028 -0.3248
 4850WAT     H120106   6.537   5.120   4.422 -0.6014 -0.3308 -0.8863
 4850WAT     H220107   6.563   4.985   4.426  0.8413 -0.0990 -1.7792
 4850WAT    EPW20108   6.586   5.059   4.436 -0.0073 -0.1514 -0.3244
 4851WAT      O20109   4.636   5.372   0.034  0.1784  0.0496 -0.1920
 4851WAT     H120110   4.710   5.386   0.079  0.8551 -2.7473 -0.1911
 4851WAT     H220111   4.635   5.285   0.025 -3.1370 -0.0126 -0.2322
 4851WAT    EPW20112   4.647   5.361   0.039  0.3411  0.1700  0.4561
 4852WAT      O20113   6.964   7.908   2.719 -0.5260 -0.1037 -0.3826
 4852WAT     H120114   6.941   7.961   2.785  0.6495  2.0466 -1.6062
 4852WAT     H220115   6.990   7.963   2.657  2.2118 -2.1626 -1.2266
 4852WAT    EPW20116   6.964   7.924   2.720  0.2591 -0.2656 -0.0485
 4853WAT      O20117   0.137   1.256   0.597 -0.3223 -0.4367  0.8234
 4853WAT     H120118   0.176   1.206   0.537 -0.6290 -0.2262  0.4389
 4853WAT     H220119   0.172   1.335   0.583  0.0366 -0.5070  1.3157
 4853WAT    EPW20120   0.148   1.260   0.586 -0.1173  0.4464  0.3997
 4854WAT      O20121   3.772   0.271   4.260 -0.0547  0.2087  0.1853
 4854WAT     H120122   3.840   0.315   4.228 -1.4050  0.7761 -2.0913
 4854WAT     H220123   3.767   0.201   4.209 -0.4733 -0.4458  1.0988
 4854WAT    EPW20124   3.782   0.267   4.248 -0.3862 -0.0927  0.3794
 4855WAT      O20125   4.167   7.913   2.160 -0.3890 -0.1670  0.8482
 4855WAT     H120126   4.189   7.932   2.242  2.7442  1.5347 -0.2357
 4855WAT     H220127   4.080   7.921   2.160 -0.3730  1.3072  3.6320
 4855WAT    EPW20128   4.158   7.917   2.172 -0.0536  0.1806  0.1957
 4856WAT      O20129   0.340   1.339   4.756  0.5803 -0.1102 -1.0004
 4856WAT     H120130   0.352   1.368   4.838  3.0001 -0.5663 -1.0992
 4856WAT     H220131   0.293   1.267   4.766 -0.9489  0.9560 -0.2393
 4856WAT    EPW20132   0.335   1.333   4.769 -0.0758 -0.1682  0.5108
 4857WAT      O20133   1.293   4.266   0.784 -0.5040  0.1332  0.2784
 4857WAT     H120134   1.299   4.273   0.697 -1.2021  2.5401  0.3397
 4857WAT     H220135   1.374   4.246   0.809 -0.4479 -1.3409 -0.9499
 4857WAT    EPW20136   1.306   4.264   0.774  0.1857  0.7569 -0.1594
 4858WAT      O20137   5.705   0.731   4.056 -0.2707 -0.4836 -0.0125
 4858WAT     H120138   5.777   0.780   4.068 -1.5880  1.4142  0.5872
 4858WAT     H220139   5.651   0.785   4.014 -1.7945 -1.4254  0.6816
 4858WAT    EPW20140   5.708   0.747   4.052 -0.3378 -0.3258 -0.0054
 4859WAT      O20141   5.658   6.388   3.005 -0.0704  0.4995  0.2406
 4859WAT     H120142   5.676   6.330   2.943  1.9641 -0.0347  1.2654
 4859WAT     H220143   5.669   6.465   2.966 -0.5944  0.1989 -0.5152
 4859WAT    EPW20144   5.662   6.391   2.990 -0.3919  0.2572 -0.0806
 4860WAT      O20145   6.010   4.571   3.414 -0.1181  0.0454  0.4766
 4860WAT     H120146   5.968   4.579   3.338 -0.5587  2.1148  0.8808
 4860WAT     H220147   5.945   4.577   3.473  0.0071 -2.9474  1.0794
 4860WAT    EPW20148   5.994   4.573   3.412  0.2504 -0.5399 -0.7209
 4861WAT      O20149   0.733   5.838   3.688  0.4202  0.0783 -0.4527
 4861WAT     H120150   0.810   5.856   3.651  0.0583  2.6326 -0.1614
 4861WAT     H220151   0.754   5.811   3.768  1.0615  1.1339 -0.2389
 4861WAT    EPW20152   0.747   5.837   3.695 -0.8979  0.4998 -0.6645
 4862WAT      O20153   6.803   0.484   2.432  0.1540 -0.3295  0.3383
 4862WAT     H120154   6.756   0.556   2.413  1.1231  0.1869 -0.1641
 4862WAT     H220155   6.832   0.500   2.513 -0.5561 -0.6805  0.6784
 4862WAT    EPW20156   6.800   0.497   2.441  0.4944  0.0905 -0.3531
 4863WAT      O20157   0.879   3.723   4.545  0.3309  0.6883  0.1219
 4863WAT     H120158   0.954   3.683   4.563  1.0888  0.2287 -3.3424
 4863WAT     H220159   0.900   3.808   4.548  1.5443  0.5699 -2.2079
 4863WAT    EPW20160   0.893   3.730   4.548  0.6685 -1.0914  0.7807
 4864WAT      O20161   5.562   0.323   3.279 -0.0340 -0.0511  0.7470
 4864WAT     H120162   5.509   0.255   3.265 -0.2414 -0.0940  1.6511
 4864WAT     H220163   5.597   0.306   3.358  0.3611  0.6000  0.7231
 4864WAT    EPW20164   5.560   0.310   3.289 -0.1006 -0.0429 -0.0442
 4865WAT      O20165   7.871   2.514   4.188  0.0493 -0.2932 -0.4136
 4865WAT     H120166   7.854   2.481   4.267  0.6813  1.2742  0.4210
 4865WAT     H220167   7.816   2.581   4.182  1.0328  0.5141 -0.6493
 4865WAT    EPW20168   7.861   2.519   4.199  0.2277 -0.0593 -0.2797
 4866WAT      O20169   5.811   6.372   5.207  0.5294  0.0477  0.2417
 4866WAT     H120170   5.809   6.285   5.210  0.3554  0.0734  1.2407
 4866WAT     H220171   5.728   6.394   5.192  0.7884  0.0301 -1.4765
 4866WAT    EPW20172   5.799   6.362   5.205 -0.1540 -0.8403 -0.3043
 4867WAT      O20173   5.414   2.368   6.272 -0.5364 -0.1831 -0.0115
 4867WAT     H120174   5.345   2.352   6.324 -1.0203  1.6143 -0.0012
 4867WAT     H220175   5.387   2.437   6.225  0.5340 -0.7261 -1.4470
 4867WAT    EPW20176   5.400   2.376   6.273  0.1229  0.2522 -0.1010
 4868WAT      O20177   1.611   1.964   5.493 -0.2911 -0.2350 -0.7950
 4868WAT     H120178   1.543   1.916   5.467 -0.9831  0.3254 -0.0716
 4868WAT     H220179   1.673   1.945   5.435 -0.6599 -1.7085 -0.7465
 4868WAT    EPW20180   1.610   1.954   5.480 -0.0588 -0.0861 -0.1350
 4869WAT      O20181   6.660   8.035   2.570  0.3663 -0.2264  0.4216
 4869WAT     H120182   6.599   7.974   2.556  0.7025 -0.5925  0.5117
 4869WAT     H220183   6.692   8.051   2.490  0.3452 -0.2387  0.4105
 4869WAT    EPW20184   6.656   8.028   2.556  0.4254  0.8755 -0.1468
 4870WAT      O20185   6.423   3.595   0.490 -0.2810 -0.1173 -0.1871
 4870WAT     H120186   6.434   3.536   0.427 -0.2956 -0.2565 -0.0597
 4870WAT     H220187   6.487   3.577   0.547  1.3323  1.5577 -1.3219
 4870WAT    EPW20188   6.434   3.584   0.489  0.6435  0.3044 -0.7098
 4871WAT      O20189   6.096   7.101   2.214 -0.0435  0.1055 -0.0778
 4871WAT     H120190   6.076   7.163   2.156  1.6874  1.8615  1.0813
 4871WAT     H220191   6.128   7.146   2.282 -0.4288 -1.9628  1.5966
 4871WAT    EPW20192   6.098   7.117   2.216  0.0699  0.2842  0.3819
 4872WAT      O20193  -0.007   0.299   2.803  0.0344 -0.1031 -0.0901
 4872WAT     H120194   0.056   0.347   2.767  0.4203 -0.6815 -0.1900
 4872WAT     H220195   0.031   0.264   2.873 -0.0927 -0.6755 -0.3046
 4872WAT    EPW20196   0.008   0.301   2.808 -0.5199 -0.2421 -0.0311
 4873WAT      O20197   1.603   1.821   1.645 -0.3177  0.3276 -0.4928
 4873WAT     H120198   1.579   1.902   1.622 -0.5286  0.4124  0.0179
 4873WAT     H220199   1.539   1.771   1.615 -0.3457  0.3864 -0.5309
 4873WAT    EPW20200   1.590   1.826   1.637  0.4968 -0.0264  0.0352
 4874WAT      O20201   2.889   5.524   4.442 -0.0969 -0.0417  0.1453
 4874WAT     H120202   2.967   5.534   4.404 -0.2876 -0.1738 -0.2850
 4874WAT     H220203   2.896   5.448   4.483  0.3427  0.4180  0.9591
 4874WAT    EPW20204   2.902   5.515   4.443  0.2346 -0.0024 -0.4561
 4875WAT      O20205   7.410   0.388   2.808  0.0737 -0.3099  0.1155
 4875WAT     H120206   7.483   0.386   2.855 -0.9858  0.2321  1.8588
 4875WAT     H220207   7.378   0.307   2.816  0.1896 -0.3834 -0.1631
 4875WAT    EPW20208   7.416   0.376   2.816  0.0779  0.2949 -0.1710
 4876WAT      O20209   4.811   2.136   7.002 -0.5486  0.2370 -0.4277
 4876WAT     H120210   4.752   2.103   6.946  0.7909 -2.0132 -0.6547
 4876WAT     H220211   4.777   2.120   7.080 -0.2334 -1.2017 -0.5541
 4876WAT    EPW20212   4.798   2.129   7.005 -0.0671 -0.4148 -0.5955
 4877WAT      O20213   8.041   1.258   3.027  0.2863 -0.2145 -0.5783
 4877WAT     H120214   8.014   1.339   3.009 -0.3802  0.1001  1.6089
 4877WAT     H220215   8.067   1.263   3.110  1.2574 -2.0109 -0.7299
 4877WAT    EPW20216   8.041   1.271   3.037 -0.2055  0.5633 -0.1762
 4878WAT      O20217   7.063   7.726   3.356  0.3428  0.3034  0.1612
 4878WAT     H120218   7.036   7.808   3.365  0.9192  0.6470 -1.1385
 4878WAT     H220219   7.089   7.721   3.273  0.1371 -1.2468  0.1591
 4878WAT    EPW20220   7.063   7.737   3.345  0.1262 -0.1795 -0.1941
 4879WAT      O20221   1.167   4.536   4.909 -0.5722 -0.1150 -0.1942
 4879WAT     H120222   1.145   4.538   4.994 -1.6718 -1.5989 -0.3884
 4879WAT     H220223   1.239   4.584   4.905 -0.5430  0.0606  1.5805
 4879WAT    EPW20224   1.175   4.543   4.921 -0.0158  0.3226 -0.4835
 4880WAT      O20225   0.630   1.002   1.864 -0.3315  0.4558  0.2812
 4880WAT     H120226   0.635   1.083   1.832  0.2862 -0.3939 -1.9725
 4880WAT     H220227   0.690   1.001   1.927  0.1068  1.5469 -0.0977
 4880WAT    EPW20228   0.639   1.014   1.869 -0.5193  0.7719 -0.1393
 4881WAT      O20229   0.045   6.721   2.453  0.6212  0.2167  0.1398
 4881WAT     H120230   0.070   6.799   2.424 -0.0273  0.6726  0.7808
 4881WAT     H220231   0.115   6.693   2.498  1.4826 -0.3243 -1.4434
 4881WAT    EPW20232   0.059   6.728   2.456 -0.6966 -0.2251  0.2741
 4882WAT      O20233   0.781   6.916   3.460  0.2868  0.1684 -0.2497
 4882WAT     H120234   0.745   6.937   3.384 -1.9648  1.0155  0.9742
 4882WAT     H220235   0.713   6.897   3.511  1.5998  1.1992  2.0308
 4882WAT    EPW20236   0.766   6.916   3.456  0.3961  0.1528 -0.1100
 4883WAT      O20237   5.899   0.193   1.104  0.5517 -0.5208  0.1944
 4883WAT     H120238   5.928   0.155   1.031 -0.8752  0.0324 -0.6983
 4883WAT     H220239   5.963   0.247   1.126  0.5472  0.1203 -1.2891
 4883WAT    EPW20240   5.912   0.195   1.096 -0.1348 -0.4617  0.0802
 4884WAT      O20241   1.273   7.912   2.590 -0.2525  0.0336  0.1950
 4884WAT     H120242   1.190   7.936   2.574 -0.2983  0.9475  1.5625
 4884WAT     H220243   1.276   7.829   2.563 -0.9210  0.6729 -2.0779
 4884WAT    EPW20244   1.261   7.903   2.584  0.3588 -0.0652 -0.1304
 4885WAT      O20245   1.596   2.347  -0.007 -0.0812 -0.4155  0.0607
 4885WAT     H120246   1.521   2.307   0.011 -0.2026 -0.3405 -0.2810
 4885WAT     H220247   1.581   2.431   0.012  0.7432 -0.7407  2.6294
 4885WAT    EPW20248   1.583   2.354  -0.001  0.6692  0.1255 -0.1470
 4886WAT      O20249   0.877   1.139   3.668 -0.3570  0.2782  0.1108
 4886WAT     H120250   0.956   1.176   3.675 -0.4160  0.6721 -1.0498
 4886WAT     H220251   0.831   1.176   3.732  0.1729  0.6393  0.2915
 4886WAT    EPW20252   0.882   1.150   3.678  0.9125 -0.7183 -0.0428
 4887WAT      O20253   2.153   2.078   6.445 -0.5943  0.0661 -0.4473
 4887WAT     H120254   2.195   2.132   6.390  0.4270  0.0927  0.3425
 4887WAT     H220255   2.143   2.006   6.398 -1.9513  0.8742 -1.5114
 4887WAT    EPW20256   2.158   2.076   6.430  0.3505  0.8724  0.4985
 4888WAT      O20257   3.635   0.981   7.345 -0.0155 -0.2555  0.5107
 4888WAT     H120258   3.605   0.913   7.298  1.2835 -0.5569  0.0794
 4888WAT     H220259   3.619   1.050   7.294 -3.0433  0.1031  1.7046
 4888WAT    EPW20260   3.628   0.981   7.330  0.6875  0.1766  0.1257
 4889WAT      O20261   4.810   6.223   7.741 -0.2166 -0.1732 -0.2140
 4889WAT     H120262   4.875   6.174   7.711  0.0320  0.0867 -0.0976
 4889WAT     H220263   4.802   6.198   7.825 -0.3120 -0.2531 -0.2460
 4889WAT    EPW20264   4.818   6.212   7.749 -0.3002 -0.4944  0.8525
 4890WAT      O20265   6.949   0.581   4.632  0.3715 -0.4396  0.3346
 4890WAT     H120266   6.871   0.545   4.650  0.1052  0.5967  1.3920
 4890WAT     H220267   6.967   0.552   4.552 -1.0275 -0.8516  0.1434
 4890WAT    EPW20268   6.940   0.572   4.623  0.2181  0.5216  0.7106
 4891WAT      O20269   4.476   3.615   2.858 -0.3068 -0.6150 -0.2452
 4891WAT     H120270   4.437   3.552   2.905 -1.3957  0.1191 -0.1306
 4891WAT     H220271   4.503   3.574   2.787 -0.4323 -1.3458  0.1187
 4891WAT    EPW20272   4.474   3.600   2.855 -0.5969 -0.2174 -0.4907
 4892WAT      O20273   6.376   7.513   1.548  0.2962  0.6413 -0.0548
 4892WAT     H120274   6.435   7.555   1.500  0.5771  1.4480  0.9697
 4892WAT     H220275   6.423   7.484   1.616  0.0118 -0.9264 -0.4901
 4892WAT    EPW20276   6.392   7.515   1.551 -0.1329 -0.5190  0.1316
 4893WAT      O20277   0.467   3.916   0.806 -0.2916  0.2391  0.2416
 4893WAT     H120278   0.543   3.957   0.792 -0.2261 -0.2982 -1.0824
 4893WAT     H220279   0.458   3.920   0.893  0.5197  1.5901  0.3056
 4893WAT    EPW20280   0.477   3.923   0.817 -0.0895  0.3471  0.2304
 4894WAT      O20281   7.949   0.714   2.248  0.2240  0.3432 -0.0141
 4894WAT     H120282   7.895   0.781   2.232 -1.2367 -0.5204  1.0106
 4894WAT     H220283   8.014   0.751   2.292  0.1352  1.3045 -0.6486
 4894WAT    EPW20284   7.951   0.729   2.252  0.1509  0.1593  0.3586
 4895WAT      O20285   4.493   4.672   0.956  0.0697  0.0289 -0.1279
 4895WAT     H120286   4.460   4.599   0.991  1.7376 -0.0975  1.3541
 4895WAT     H220287   4.473   4.665   0.872  0.8658 -2.5686 -0.2007
 4895WAT    EPW20288   4.485   4.660   0.949 -0.0800 -0.3599  0.2464
 4896WAT      O20289   1.967   0.945   5.441 -0.0869 -0.1920  0.4372
 4896WAT     H120290   1.911   1.000   5.402 -1.5318 -2.0401 -0.2113
 4896WAT     H220291   1.915   0.886   5.479  1.4152 -1.2001  1.0075
 4896WAT    EPW20292   1.951   0.945   5.441 -0.5478  0.5687  0.6997
 4897WAT      O20293   1.287   2.906   0.919  0.3487  0.4765  0.0375
 4897WAT     H120294   1.329   2.967   0.872  1.4945  0.1293  0.5708
 4897WAT     H220295   1.349   2.847   0.935 -0.1779  0.2642  1.4202
 4897WAT    EPW20296   1.302   2.906   0.915 -0.2983 -0.4571  0.5613
 4898WAT      O20297   2.819   1.727   7.273  0.2182 -0.5259 -0.2082
 4898WAT     H120298   2.905   1.735   7.279  0.1121  0.9925 -0.3762
 4898WAT     H220299   2.799   1.770   7.200 -0.2959 -4.3803 -2.6398
 4898WAT    EPW20300   2.828   1.734   7.263 -0.3505  0.2468 -0.5454
 4899WAT      O20301   5.652   3.241   4.525  0.0782 -0.0227  0.3845
 4899WAT     H120302   5.648   3.324   4.550 -0.7552 -0.7536  2.8827
 4899WAT     H220303   5.738   3.225   4.523  0.4875  1.5416 -2.9304
 4899WAT    EPW20304   5.664   3.251   4.528  0.4328  0.6237  0.0641
 4900WAT      O20305   1.072   2.081   1.245 -0.2548 -0.5801  0.4339
 4900WAT     H120306   1.113   2.009   1.271  1.5501 -0.2843 -1.3438
 4900WAT     H220307   1.070   2.131   1.316  3.4733 -0.2141  0.4758
 4900WAT    EPW20308   1.077   2.078   1.259  0.4610  0.4526  0.2942
 4901WAT      O20309   6.426   1.446   4.336  0.1960 -0.7800  0.6616
 4901WAT     H120310   6.385   1.370   4.348 -1.3259 -0.7801 -3.0460
 4901WAT     H220311   6.361   1.500   4.313  1.6641  0.5568 -0.5526
 4901WAT    EPW20312   6.410   1.443   4.334  0.9319 -0.3619 -0.1908
 4902WAT      O20313   4.412   0.865   7.897  0.4552  0.2547  0.5903
 4902WAT     H120314   4.455   0.918   7.952 -1.1020  0.7338  1.3941
 4902WAT     H220315   4.366   0.813   7.951 -0.0780 -0.1610 -0.2480
 4902WAT    EPW20316   4.412   0.865   7.913  0.1350  0.1763 -0.1376
 4903WAT      O20317   7.710   5.346   0.811  0.5349  0.3775 -0.4995
 4903WAT     H120318   7.777   5.344   0.867 -0.6018  0.3143  0.9183
 4903WAT     H220319   7.662   5.277   0.834  0.2285  0.1167 -1.8388
 4903WAT    EPW20320   7.713   5.335   0.823  0.2031  0.1121 -0.4285
 4904WAT      O20321   7.533   5.677   0.350  0.7159  0.4278 -0.0333
 4904WAT     H120322   7.560   5.609   0.302 -0.2709  0.4087 -0.5941
 4904WAT     H220323   7.590   5.679   0.416  0.6338 -1.0933  0.1240
 4904WAT    EPW20324   7.545   5.667   0.352 -0.3319  0.0858  0.6103
 4905WAT      O20325   0.199   7.135   1.240 -0.0918 -0.5861  0.3104
 4905WAT     H120326   0.251   7.186   1.192 -0.1246 -1.3756 -0.5751
 4905WAT     H220327   0.226   7.054   1.222 -2.2297 -1.1019 -0.9800
 4905WAT    EPW20328   0.210   7.131   1.230  0.1230 -0.2193 -0.7358
 4906WAT      O20329   6.535   1.965   2.457 -0.1936  0.1578 -0.0649
 4906WAT     H120330   6.615   1.934   2.472 -0.5952 -0.9066 -0.0727
 4906WAT     H220331   6.546   2.052   2.459  0.5950  0.0683  1.9505
 4906WAT    EPW20332   6.549   1.974   2.460  0.2401  0.4376 -0.3521
 4907WAT      O20333   8.024   7.804   2.024 -0.2011 -0.1998  0.2888
 4907WAT     H120334   7.988   7.880   2.003  0.5323  0.2625  0.6820
 4907WAT     H220335   8.026   7.805   2.111 -0.7567 -0.9477  0.3263
 4907WAT    EPW20336   8.019   7.815   2.034  0.2045  0.4217  0.0714
 4908WAT      O20337   6.929   4.902   3.196  0.0422  0.2783  0.0490
 4908WAT     H120338   6.892   4.851   3.135 -0.3069  1.0252 -0.3700
 4908WAT     H220339   6.861   4.934   3.240  0.2568  0.4070  0.2888
 4908WAT    EPW20340   6.913   4.899   3.193 -0.6338 -0.0835 -0.2044
 4909WAT      O20341   7.454   2.271   3.428  0.8526 -0.0900  0.1352
 4909WAT     H120342   7.511   2.330   3.456  2.2931 -2.4364  2.6611
 4909WAT     H220343   7.463   2.205   3.484 -0.9489 -2.5776 -2.1941
 4909WAT    EPW20344   7.464   2.270   3.440  0.4089 -0.1015  0.1587
 4910WAT      O20345   3.806   5.642   2.803 -0.2921  0.0498 -0.4429
 4910WAT     H120346   3.823   5.698   2.739  1.4100 -0.1803 -0.2421
 4910WAT     H220347   3.720   5.630   2.798 -0.6323  2.3210 -0.7718
 4910WAT    EPW20348   3.796   5.648   2.793 -0.1972 -0.1125  0.3126
 4911WAT      O20349   4.661   0.010   5.038 -0.0852  0.5841 -0.3316
 4911WAT     H120350   4.636  -0.067   5.007  0.3448  0.4784 -0.4187
 4911WAT     H220351   4.677   0.057   4.967 -2.5466  1.5351 -0.3695
 4911WAT    EPW20352   4.660   0.006   5.023 -0.1370 -0.2839 -0.4516
 4912WAT      O20353   6.492   7.983   3.421  0.1345  0.9447  0.5111
 4912WAT     H120354   6.487   8.058   3.377 -1.3662 -0.3831 -1.7107
 4912WAT     H220355   6.499   7.923   3.359 -1.6399 -1.0100  2.0697
 4912WAT    EPW20356   6.493   7.985   3.406 -0.0547 -0.4489 -0.4561
 4913WAT      O20357   0.227   2.471   3.382  0.1900 -0.0467  0.1152
 4913WAT     H120358   0.263   2.547   3.406  1.9078  0.0780 -2.4981
 4913WAT     H220359   0.257   2.414   3.441  0.2253  1.0100  1.1366
 4913WAT    EPW20360   0.236   2.474   3.394 -0.1093 -0.1111  0.5544
 4914WAT      O20361   0.794   6.099   0.222 -0.1331  0.1787  0.0189
 4914WAT     H120362   0.737   6.036   0.243  0.4855 -0.9306 -1.4262
 4914WAT     H220363   0.796   6.096   0.134  2.0384  0.2422  0.0150
 4914WAT    EPW20364   0.786   6.089   0.212 -0.0819  0.4397  0.3805
 4915WAT      O20365   6.850   1.010   1.804  0.0969  0.3627 -0.0577
 4915WAT     H120366   6.937   1.006   1.798  0.1013  1.6308 -1.5576
 4915WAT     H220367   6.834   0.993   1.888  1.8684  1.1512  0.4916
 4915WAT    EPW20368   6.861   1.007   1.815 -0.1168 -0.0214  0.2623
 4916WAT      O20369   4.036   3.011   7.113  0.0359 -0.4395  0.1291
 4916WAT     H120370   3.981   3.078   7.125  1.3404  0.4473  1.4890
 4916WAT     H220371   4.002   2.948   7.163 -0.2903 -0.2606  0.1399
 4916WAT    EPW20372   4.023   3.011   7.122 -0.3006 -0.1328 -0.1707
 4917WAT      O20373   3.625   4.597   6.035 -0.1736 -0.3204 -0.0928
 4917WAT     H120374   3.700   4.642   6.034  0.2036 -0.9326 -0.0772
 4917WAT     H220375   3.569   4.652   6.073  0.0270  0.5006 -0.9441
 4917WAT    EPW20376   3.628   4.612   6.041 -0.0106  0.4909  0.2431
 4918WAT      O20377   6.265   2.977   3.345  0.0778 -0.8159 -0.8323
 4918WAT     H120378   6.253   2.891   3.354  0.6959 -0.9040 -0.8668
 4918WAT     H220379   6.339   2.984   3.300 -0.3484 -0.2726 -1.4702
 4918WAT    EPW20380   6.274   2.965   3.340  0.7400 -0.4454 -0.5880
 4919WAT      O20381   4.061   4.554   0.216  0.0597  0.1280 -0.6142
 4919WAT     H120382   4.103   4.479   0.227  0.5604  0.2424 -1.6648
 4919WAT     H220383   4.114   4.601   0.165 -0.8532  0.6747 -1.1019
 4919WAT    EPW20384   4.075   4.550   0.210  0.0283  0.1868 -0.1881
 4920WAT      O20385   1.237   0.976   4.347 -0.2556  0.0634 -0.2269
 4920WAT     H120386   1.185   0.906   4.345 -0.4762  0.2302 -1.0738
 4920WAT     H220387   1.188   1.039   4.313 -1.6874  1.8783  4.4643
 4920WAT    EPW20388   1.222   0.975   4.341  0.7846 -0.1705  0.0609
 4921WAT      O20389   2.143   7.675   2.217  0.2970  0.1999  0.4449
 4921WAT     H120390   2.081   7.627   2.180  0.2274 -1.0045  2.0402
 4921WAT     H220391   2.109   7.699   2.293  0.5448  2.3871 -0.0611
 4921WAT    EPW20392   2.129   7.671   2.223  0.9681  0.1248 -0.2318
 4922WAT      O20393   7.046   2.809   4.122 -0.6161  0.2798 -0.2146
 4922WAT     H120394   7.039   2.893   4.102  2.5015  0.3060 -1.8375
 4922WAT     H220395   6.965   2.779   4.115 -1.6853  2.9489 -0.3538
 4922WAT    EPW20396   7.033   2.817   4.118 -0.1721  0.1268  0.3438
 4923WAT      O20397   1.303   2.758   1.246  0.2684 -0.3279  0.0446
 4923WAT     H120398   1.384   2.754   1.278  0.7434 -2.6862 -1.1391
 4923WAT     H220399   1.258   2.704   1.297 -0.9916  2.0080  1.5509
 4923WAT    EPW20400   1.308   2.749   1.258  0.0782  0.0923 -0.3053
 4924WAT      O20401   3.792   1.216   6.149  0.0745 -0.3709 -0.4995
 4924WAT     H120402   3.721   1.189   6.105  0.0835  0.8076 -1.2678
 4924WAT     H220403   3.796   1.160   6.216 -1.5693 -0.4888 -0.4530
 4924WAT    EPW20404   3.782   1.203   6.152  0.1377  0.3476 -0.5333
 4925WAT      O20405   5.214   0.038   1.408 -0.0120  0.3933 -0.1705
 4925WAT     H120406   5.232   0.101   1.351  0.2175  0.3069 -0.1949
 4925WAT     H220407   5.219  -0.035   1.360  0.7078  0.2776  0.0729
 4925WAT    EPW20408   5.217   0.037   1.393 -0.3642  0.1546  0.1182
 4926WAT      O20409   6.768   2.696   4.083 -0.1046 -0.1835  0.2348
 4926WAT     H120410   6.705   2.751   4.058  0.5319 -0.1430 -1.4107
 4926WAT     H220411   6.736   2.661   4.156 -1.5074  0.7181  0.1054
 4926WAT    EPW20412   6.754   2.699   4.090 -0.4650 -0.1295 -0.3507
 4927WAT      O20413   1.063   2.969   5.001 -0.0608 -0.3514 -0.5628
 4927WAT     H120414   1.123   2.946   4.942  0.2356  0.5522 -0.6277
 4927WAT     H220415   0.988   2.941   4.966 -0.0061  0.9329 -1.8167
 4927WAT    EPW20416   1.060   2.962   4.987  0.5672  0.0373 -0.3760
 4928WAT      O20417   1.840   3.761   5.113 -0.1089  0.4653 -0.6530
 4928WAT     H120418   1.882   3.730   5.184 -0.7462 -2.6537 -1.4616
 4928WAT     H220419   1.818   3.842   5.136  2.5581  0.7642  1.4294
 4928WAT    EPW20420   1.843   3.768   5.127  0.6519  0.1394  0.0463
 4929WAT      O20421   7.569   3.810   2.528 -0.3080  0.1439  0.0892
 4929WAT     H120422   7.491   3.847   2.542 -0.6598 -1.0110  1.3503
 4929WAT     H220423   7.556   3.726   2.547  1.1290 -0.1716 -0.1903
 4929WAT    EPW20424   7.556   3.803   2.533  0.6981  0.3589 -0.1354
 4930WAT      O20425   5.168   1.617   1.441 -0.0296 -0.2960 -0.1250
 4930WAT     H120426   5.101   1.570   1.411 -0.3982  0.1788 -0.0553
 4930WAT     H220427   5.181   1.587   1.522 -2.6990  2.2000  1.3859
 4930WAT    EPW20428   5.160   1.606   1.448 -0.2336  0.2042 -0.2161
 4931WAT      O20429   6.766   5.732   0.274  0.2739  0.6465  0.0586
 4931WAT     H120430   6.836   5.767   0.234  0.0247  0.7758 -0.2699
 4931WAT     H220431   6.735   5.676   0.215  1.2330 -0.8841  0.9387
 4931WAT    EPW20432   6.772   5.729   0.259  0.1021  0.3554  0.7944
 4932WAT      O20433   5.459   7.021   0.207  0.0422 -0.0643 -0.5730
 4932WAT     H120434   5.490   7.054   0.282  0.4460  0.2714 -0.8855
 4932WAT     H220435   5.523   6.968   0.180 -0.6124 -1.1681 -0.0546
 4932WAT    EPW20436   5.473   7.018   0.214  0.0024 -0.0947 -0.1512
 4933WAT      O20437   4.524   1.645   2.978  0.1554 -0.7153  0.0831
 4933WAT     H120438   4.521   1.560   2.957 -0.3643 -0.8065  0.5016
 4933WAT     H220439   4.591   1.675   2.931  0.2909 -1.3386 -0.1372
 4933WAT    EPW20440   4.533   1.637   2.968 -0.1896 -0.0911 -0.1623
 4934WAT      O20441   3.006   7.880   0.645  0.1050 -0.5360 -0.4141
 4934WAT     H120442   2.989   7.925   0.572  1.2850 -0.7609 -0.8415
 4934WAT     H220443   3.042   7.939   0.698  0.1078 -0.5946 -0.3507
 4934WAT    EPW20444   3.009   7.895   0.642  0.2769 -0.4987 -0.0373
 4935WAT      O20445   7.899   4.338   3.069  0.1921  0.2223 -0.5431
 4935WAT     H120446   7.852   4.304   3.004  0.3837 -1.1591  0.0040
 4935WAT     H220447   7.964   4.379   3.029 -0.5034  0.6535 -1.2566
 4935WAT    EPW20448   7.901   4.339   3.054  0.4193  0.1607 -0.1119
 4936WAT      O20449   2.729   0.087   5.215  0.2386 -0.2490 -0.3498
 4936WAT     H120450   2.748   0.025   5.273  1.1739  0.5272  0.2193
 4936WAT     H220451   2.700   0.153   5.264 -1.1239 -0.3517 -0.9781
 4936WAT    EPW20452   2.728   0.088   5.231 -0.4342  0.2272  0.0481
 4937WAT      O20453   5.162   7.987   3.361 -0.5168  0.0523  0.0793
 4937WAT     H120454   5.124   8.013   3.436 -1.6002 -1.8253  0.2401
 4937WAT     H220455   5.224   7.932   3.387  0.9180  1.4188 -0.3178
 4937WAT    EPW20456   5.165   7.983   3.376 -0.5973  0.4408 -0.8320
 4938WAT      O20457   4.918   6.333   6.669 -0.1352 -0.1147  0.7576
 4938WAT     H120458   4.933   6.365   6.748  0.1294 -1.8299  1.4451
 4938WAT     H220459   4.930   6.247   6.679 -0.6377 -0.4307 -1.0130
 4938WAT    EPW20460   4.922   6.325   6.682  0.3663  0.2122 -0.0479
 4939WAT      O20461   7.063   7.365   4.173  0.2972 -0.4782  0.5671
 4939WAT     H120462   7.042   7.332   4.251 -0.1615  0.6419  0.9434
 4939WAT     H220463   7.092   7.296   4.128 -1.5885 -1.5865  0.9561
 4939WAT    EPW20464   7.064   7.350   4.178 -0.1964 -0.5099  0.0068
 4940WAT      O20465   5.607   4.221   2.553  0.8005 -0.3637  0.6283
 4940WAT     H120466   5.689   4.237   2.578  0.6257 -0.7151  1.4686
 4940WAT     H220467   5.598   4.135   2.567  0.6111 -0.5290 -0.4446
 4940WAT    EPW20468   5.618   4.211   2.559  0.3898 -0.0893  0.1729
 4941WAT      O20469   6.768   4.872   2.720 -0.3151  0.0777  0.4233
 4941WAT     H120470   6.720   4.847   2.788  1.4434  0.7775  2.0085
 4941WAT     H220471   6.806   4.946   2.747  2.2662 -0.8481 -0.3602
 4941WAT    EPW20472   6.767   4.879   2.734 -0.2723 -0.4552  0.0218
 4942WAT      O20473   1.189   1.233   4.250 -0.2840 -0.2070 -0.1672
 4942WAT     H120474   1.241   1.256   4.317 -0.4690 -2.2877  0.7738
 4942WAT     H220475   1.114   1.273   4.268 -0.8520 -1.9659  1.8490
 4942WAT    EPW20476   1.186   1.242   4.263 -0.0707  0.3172 -0.6265
 4943WAT      O20477   1.779   1.631   7.167 -0.4767 -1.1401  0.5723
 4943WAT     H120478   1.826   1.629   7.240  1.2544 -2.2541 -0.4954
 4943WAT     H220479   1.823   1.578   7.113 -1.0912  0.4634 -1.6388
 4943WAT    EPW20480   1.792   1.623   7.170 -0.0556 -0.2384  0.6021
 4944WAT      O20481   2.169   2.809   4.951 -0.4529  0.1255  0.1979
 4944WAT     H120482   2.234   2.760   4.920 -2.2604 -1.5395 -1.2120
 4944WAT     H220483   2.162   2.783   5.034  0.5264  0.1932  0.3157
 4944WAT    EPW20484   2.178   2.798   4.959 -0.1073  0.4541 -0.5879
 4945WAT      O20485   6.485   4.958   2.052 -0.0640 -0.8388 -0.4721
 4945WAT     H120486   6.552   4.978   2.105  0.7089 -1.8000 -1.0519
 4945WAT     H220487   6.419   4.946   2.107 -0.1882  1.5800  0.0203
 4945WAT    EPW20488   6.485   4.959   2.068  0.2072 -0.1289 -0.8998
 4946WAT      O20489   4.430   0.432   6.813 -0.8531 -0.2754 -0.5349
 4946WAT     H120490   4.413   0.354   6.778 -0.4502  0.3352 -2.1547
 4946WAT     H220491   4.483   0.413   6.880 -0.6877 -1.3765 -0.9631
 4946WAT    EPW20492   4.435   0.418   6.818  0.0663 -0.3681  0.5868
 4947WAT      O20493   5.251   1.300   3.066 -0.1548  0.2050  0.3229
 4947WAT     H120494   5.287   1.300   2.986 -0.4683 -0.1340  0.1811
 4947WAT     H220495   5.246   1.215   3.086  1.7592  0.3202  1.5453
 4947WAT    EPW20496   5.256   1.288   3.057 -0.7504 -0.2296 -0.1609
 4948WAT      O20497   4.096   5.369   1.652  0.5782  0.0860 -0.0119
 4948WAT     H120498   4.081   5.417   1.580 -0.6760  0.7879  0.6925
 4948WAT     H220499   4.181   5.348   1.645  0.6456  0.6942 -1.3563
 4948WAT    EPW20500   4.107   5.373   1.640 -0.1560  0.3069 -0.4765
 4949WAT      O20501   4.998   1.584   0.077 -0.2604  0.4795 -0.0282
 4949WAT     H120502   4.914   1.596   0.056  0.0770  1.4780 -0.8515
 4949WAT     H220503   5.000   1.605   0.162 -0.9174  0.0710  0.0939
 4949WAT    EPW20504   4.986   1.589   0.087  0.2602 -0.0801 -0.1861
 4950WAT      O20505   5.721   7.791   0.986 -0.5295  0.4508  0.2168
 4950WAT     H120506   5.641   7.824   0.976 -1.8901 -3.0132 -3.1433
 4950WAT     H220507   5.754   7.792   0.905  0.2740 -3.4629  0.2577
 4950WAT    EPW20508   5.714   7.796   0.972  0.1389  0.1249  0.1273
 4951WAT      O20509   4.932   7.767   0.553 -0.7656  0.2767  0.3167
 4951WAT     H120510   4.884   7.694   0.544 -1.5279  0.9847 -3.1566
 4951WAT     H220511   4.886   7.815   0.610 -0.1422 -1.9072  2.8393
 4951WAT    EPW20512   4.918   7.763   0.560  0.0165  0.8135 -0.4935
 4952WAT      O20513   7.973   2.517   0.657 -0.5817 -0.3378  0.1990
 4952WAT     H120514   7.989   2.564   0.586  0.2074  0.4522  0.8886
 4952WAT     H220515   8.019   2.444   0.644  0.3608  0.2149  0.3264
 4952WAT    EPW20516   7.982   2.513   0.644 -0.3064 -0.9526 -1.4407
 4953WAT      O20517   0.324   4.257   0.528  0.0702  0.1786  0.4211
 4953WAT     H120518   0.338   4.314   0.593 -0.9153  0.4656  0.4109
 4953WAT     H220519   0.267   4.200   0.563  1.1359 -0.8882  0.4670
 4953WAT    EPW20520   0.318   4.257   0.543 -0.2432  0.5196  0.1032
 4954WAT      O20521   6.002   7.552   2.355  0.3403 -0.2647 -0.0700
 4954WAT     H120522   5.970   7.623   2.394 -0.8264 -1.1869  0.7173
 4954WAT     H220523   6.085   7.551   2.380  0.1168  0.2758  0.7395
 4954WAT    EPW20524   6.009   7.562   2.364  0.3935  0.5371  0.5262
 4955WAT      O20525   4.530   7.033   0.329 -0.2102 -0.5738 -0.8271
 4955WAT     H120526   4.511   7.116   0.315  0.9197 -0.2119 -0.3583
 4955WAT     H220527   4.464   7.005   0.379 -0.5040  0.0903 -0.8344
 4955WAT    EPW20528   4.518   7.041   0.335 -0.5272 -0.7684 -0.1562
 4956WAT      O20529   5.642   2.173   7.691 -0.5057 -0.6205  0.2674
 4956WAT     H120530   5.569   2.171   7.643 -0.3784 -0.3947  0.0634
 4956WAT     H220531   5.634   2.103   7.743 -2.4132  1.1153  2.5437
 4956WAT    EPW20532   5.630   2.162   7.692 -0.2440 -0.5728  0.2326
 4957WAT      O20533   2.119   7.804   7.162  0.2941 -0.0912  0.9204
 4957WAT     H120534   2.132   7.889   7.148 -0.6567 -0.1696 -0.6636
 4957WAT     H220535   2.200   7.772   7.174  0.6222  1.0806  2.0612
 4957WAT    EPW20536   2.133   7.812   7.162  0.4781 -0.0489 -0.0757
 4958WAT      O20537   3.628   3.802   7.759  0.5183  0.4791  0.5151
 4958WAT     H120538   3.601   3.762   7.831 -0.0836  1.2535  0.7260
 4958WAT     H220539   3.704   3.839   7.783  0.2825  0.7978  0.7816
 4958WAT    EPW20540   3.635   3.802   7.773 -0.5260 -0.5419  0.3704
 4959WAT      O20541   2.634   6.655   3.323  0.5890  0.3755  0.0340
 4959WAT     H120542   2.625   6.728   3.369 -0.3650  0.4363 -0.2335
 4959WAT     H220543   2.618   6.592   3.382  1.0723  0.3930  0.1845
 4959WAT    EPW20544   2.630   6.656   3.339  0.4604 -0.6337 -0.3994
 4960WAT      O20545   6.768   2.461   3.415  0.0086 -0.7233  1.3071
 4960WAT     H120546   6.746   2.497   3.491 -0.4109 -0.8161  1.2344
 4960WAT     H220547   6.772   2.529   3.360 -0.6460 -0.7642  1.2002
 4960WAT    EPW20548   6.765   2.476   3.418 -0.4672 -0.1535  0.7337
 4961WAT      O20549   2.133   3.232   0.619  0.5318 -0.2930  0.4336
 4961WAT     H120550   2.153   3.291   0.558 -0.0815  0.1974  0.6926
 4961WAT     H220551   2.072   3.272   0.667 -0.3125 -1.3479  0.2729
 4961WAT    EPW20552   2.127   3.247   0.617 -0.6353 -0.0100 -0.7123
 4962WAT      O20553   6.686   1.882   0.392  0.5726 -1.0579 -0.4909
 4962WAT     H120554   6.641   1.814   0.423 -0.4949  0.6685  2.1048
 4962WAT     H220555   6.629   1.922   0.339 -0.1127 -0.3058  0.7616
 4962WAT    EPW20556   6.671   1.878   0.389  0.4248  0.0183  0.8031
 4963WAT      O20557   8.093   6.199   1.758 -0.2837 -0.0352 -0.2744
 4963WAT     H120558   8.036   6.216   1.822  0.8619 -0.8530  1.0056
 4963WAT     H220559   8.125   6.278   1.738 -1.0375  0.2901 -0.2391
 4963WAT    EPW20560   8.089   6.213   1.765  0.1712 -0.1651 -0.7046
 4964WAT      O20561   2.898   4.984   3.757 -0.6388 -0.1386  0.3080
 4964WAT     H120562   2.926   4.974   3.839 -2.5665 -0.1824  1.0184
 4964WAT     H220563   2.911   5.069   3.742  0.9480 -0.3945  0.1542
 4964WAT    EPW20564   2.904   4.995   3.767  0.0704 -0.8015 -0.0208
 4965WAT      O20565   5.295   3.147   0.927  0.6323 -0.7076  0.4105
 4965WAT     H120566   5.221   3.135   0.972  0.8504 -0.1906  0.9199
 4965WAT     H220567   5.346   3.192   0.982  0.8345  0.1111 -0.4243
 4965WAT    EPW20568   5.292   3.152   0.942  0.2266 -0.4478 -0.9163
 4966WAT      O20569   6.405   1.593   1.080 -0.0266 -0.5330 -0.1577
 4966WAT     H120570   6.379   1.513   1.100  1.0435 -0.8033  0.2017
 4966WAT     H220571   6.384   1.601   0.995 -2.0622 -0.3851  0.2904
 4966WAT    EPW20572   6.398   1.583   1.070  0.4496 -0.1793 -0.1052
 4967WAT      O20573   4.815   1.602   1.548 -0.0890 -0.3614 -0.0383
 4967WAT     H120574   4.860   1.625   1.619 -0.4765  0.3828 -0.0232
 4967WAT     H220575   4.769   1.533   1.575  0.6038 -0.7696  0.1089
 4967WAT    EPW20576   4.815   1.595   1.562  0.0174  0.0555  0.1128
 4968WAT      O20577   4.636   6.885   2.316 -0.0994 -0.5585 -0.0994
 4968WAT     H120578   4.651   6.967   2.343  0.1850 -1.1763  1.7362
 4968WAT     H220579   4.706   6.867   2.267 -0.1261  0.2623 -0.4603
 4968WAT    EPW20580   4.649   6.894   2.313 -0.0217  0.2118 -0.2139
 4969WAT      O20581   6.883   7.240   2.144  0.0358 -0.3115 -0.1346
 4969WAT     H120582   6.830   7.208   2.082 -0.7579 -0.5752  0.6623
 4969WAT     H220583   6.951   7.185   2.143 -1.2037 -2.0053  1.0719
 4969WAT    EPW20584   6.885   7.227   2.135 -0.2044  0.3081  0.2686
 4970WAT      O20585   5.810   1.334   7.309  0.0785 -0.1818  0.0284
 4970WAT     H120586   5.838   1.272   7.255  0.4955 -0.2412  0.3029
 4970WAT     H220587   5.744   1.296   7.352 -0.3940 -0.0612 -0.5843
 4970WAT    EPW20588   5.804   1.320   7.308 -0.0115  0.1808 -0.0337
 4971WAT      O20589   5.586   2.235   5.979  0.2986 -0.2592 -0.3243
 4971WAT     H120590   5.500   2.247   5.972  0.4936  2.0370  0.3525
 4971WAT     H220591   5.616   2.314   6.002  2.5034 -1.1717  0.2069
 4971WAT    EPW20592   5.577   2.249   5.981  0.1813 -0.1287 -0.7278
 4972WAT      O20593   1.284   0.126   2.122 -0.9261  0.2871 -0.5864
 4972WAT     H120594   1.333   0.161   2.185 -1.0380  1.0521 -0.9093
 4972WAT     H220595   1.209   0.107   2.161  0.2935 -2.9970  0.4895
 4972WAT    EPW20596   1.280   0.128   2.137 -0.4349  0.3465 -0.0439
 4973WAT      O20597   4.746   7.884   4.348  0.2927 -0.2104  0.2007
 4973WAT     H120598   4.736   7.831   4.416  0.2732 -2.1749 -1.2520
 4973WAT     H220599   4.770   7.831   4.283  2.7186  1.8922 -0.7893
 4973WAT    EPW20600   4.748   7.869   4.348 -0.2542 -0.3368 -0.4050
 4974WAT      O20601   7.792   2.917   1.962  0.2161  0.0258 -0.0850
 4974WAT     H120602   7.826   2.997   1.953  0.5550  0.1396  1.7641
 4974WAT     H220603   7.853   2.866   1.927  2.4208  0.2511  3.0090
 4974WAT    EPW20604   7.806   2.921   1.956  0.2688 -0.5075  0.7080
 4975WAT      O20605   3.577   0.536   7.886 -0.1271  0.0345  0.2338
 4975WAT     H120606   3.513   0.478   7.878  0.1456 -0.2447  0.0626
 4975WAT     H220607   3.647   0.494   7.854  0.0974  0.4072  0.2341
 4975WAT    EPW20608   3.578   0.521   7.880 -0.3451  0.0109  0.2801
 4976WAT      O20609   5.838   1.040   6.300  0.5057 -0.3095 -0.0040
 4976WAT     H120610   5.820   0.963   6.265 -0.3862 -0.0166 -0.2082
 4976WAT     H220611   5.821   1.029   6.385 -0.2412 -0.1675 -0.1260
 4976WAT    EPW20612   5.833   1.027   6.307 -0.3760  0.0631  0.3781
 4977WAT      O20613   3.020   4.176   1.428  0.0936 -0.1086  0.5091
 4977WAT     H120614   3.080   4.234   1.401 -0.2868  0.1223  0.1515
 4977WAT     H220615   2.978   4.155   1.355 -0.1166 -0.4392  0.7258
 4977WAT    EPW20616   3.023   4.181   1.413  0.2052  0.2268  0.1679
 4978WAT      O20617   3.075   4.671   6.848  0.9825  0.2316  0.2929
 4978WAT     H120618   2.997   4.690   6.814  0.8296 -1.0091 -0.1124
 4978WAT     H220619   3.056   4.642   6.928  0.4452 -4.0969 -1.1160
 4978WAT    EPW20620   3.060   4.669   6.855  0.0449 -0.3759  0.7737
 4979WAT      O20621   6.119   0.264   2.528 -0.8781 -0.5076 -0.7940
 4979WAT     H120622   6.080   0.280   2.452  0.0583 -0.9638 -1.3862
 4979WAT     H220623   6.204   0.279   2.512 -0.7807  0.5318  0.4729
 4979WAT    EPW20624   6.126   0.269   2.515 -0.2863 -0.0880 -0.0448
 4980WAT      O20625   6.056   1.895   1.109 -0.0736  0.3339 -0.5860
 4980WAT     H120626   5.971   1.884   1.097 -0.1760 -0.2862  0.6163
 4980WAT     H220627   6.082   1.819   1.143  1.0367  0.3775 -1.2779
 4980WAT    EPW20628   6.047   1.882   1.112  0.1845 -0.4121  0.2628
 4981WAT      O20629   0.076   0.940   1.325 -0.0428 -0.1287  0.2440
 4981WAT     H120630   0.019   0.887   1.287 -0.3761  0.0114  0.5448
 4981WAT     H220631   0.048   0.944   1.408 -1.1710  2.0402 -0.1761
 4981WAT    EPW20632   0.064   0.933   1.332  0.2780 -0.0852  0.8249
 4982WAT      O20633   4.141   5.476   2.332  0.4301 -0.2312 -0.2543
 4982WAT     H120634   4.132   5.445   2.413 -0.7918 -0.2562 -0.3696
 4982WAT     H220635   4.073   5.442   2.289 -0.4344  1.7814 -0.6267
 4982WAT    EPW20636   4.129   5.467   2.337 -1.0497 -0.6482  0.0134
 4983WAT      O20637   3.080   1.305   6.631 -0.1485  0.0122 -0.4849
 4983WAT     H120638   3.102   1.387   6.612  0.7764 -0.4394 -1.4350
 4983WAT     H220639   3.007   1.314   6.677  0.1773  1.3885 -0.2018
 4983WAT    EPW20640   3.072   1.318   6.635 -0.1042 -0.3228  0.0107
 4984WAT      O20641   7.329   2.509   2.593 -0.5593 -0.3202 -0.6619
 4984WAT     H120642   7.299   2.426   2.593 -0.3586 -0.4387  1.1381
 4984WAT     H220643   7.410   2.502   2.625 -1.5456  0.7891  2.4755
 4984WAT    EPW20644   7.336   2.495   2.598 -0.5164  0.2468  0.9312
 4985WAT      O20645   7.600   1.633   3.319  0.1798 -0.3761 -0.6965
 4985WAT     H120646   7.605   1.709   3.277 -1.9581  0.1891 -0.0633
 4985WAT     H220647   7.600   1.656   3.403  0.7194 -1.1884 -0.4640
 4985WAT    EPW20648   7.601   1.648   3.326  0.6611 -0.2417  0.3465
 4986WAT      O20649   5.068   1.510   2.604 -0.0348 -0.3868 -0.3095
 4986WAT     H120650   5.007   1.448   2.613  1.1229 -1.8055 -1.6580
 4986WAT     H220651   5.032   1.580   2.641 -3.5485 -0.4653 -3.0459
 4986WAT    EPW20652   5.054   1.511   2.611 -0.2571  0.0855  0.3121
 4987WAT      O20653   6.813   4.378   2.264 -0.0593  0.3585 -0.1148
 4987WAT     H120654   6.780   4.303   2.233 -0.9014  0.8237 -0.3612
 4987WAT     H220655   6.871   4.351   2.324  1.4544 -0.5721 -1.8807
 4987WAT    EPW20656   6.817   4.363   2.268 -0.5146 -0.0133 -0.0701
 4988WAT      O20657   4.817   3.038   0.671 -0.1711  0.4487 -0.3469
 4988WAT     H120658   4.865   2.977   0.712  0.4849  1.6461  0.7430
 4988WAT     H220659   4.748   2.993   0.643 -0.1075 -0.6780  1.1262
 4988WAT    EPW20660   4.814   3.022   0.673  0.5269  0.5987 -0.3757
 4989WAT      O20661   5.496   2.852   1.693  0.1865  0.1137  0.2513
 4989WAT     H120662   5.447   2.806   1.748  0.2550 -1.2420 -0.7639
 4989WAT     H220663   5.539   2.791   1.648 -0.9920  1.0502 -2.3419
 4989WAT    EPW20664   5.495   2.836   1.694  0.2844  0.3060 -0.2634
 4990WAT      O20665   1.439   2.450   0.781 -0.1386  0.1415 -0.2831
 4990WAT     H120666   1.456   2.471   0.699  0.4558 -2.4473 -0.8988
 4990WAT     H220667   1.357   2.419   0.778 -0.1753  0.1814  0.1392
 4990WAT    EPW20668   1.429   2.448   0.769 -0.4787  0.0813  0.2160
 4991WAT      O20669   4.061   1.691   0.036  0.1398  0.3802  0.0548
 4991WAT     H120670   3.991   1.653   0.071  0.9990 -0.9259  0.4203
 4991WAT     H220671   4.037   1.705  -0.047 -1.1012  1.4270  0.5533
 4991WAT    EPW20672   4.047   1.688   0.029 -0.1250  0.3499 -0.3992
 4992WAT      O20673   2.317   1.573   1.182  0.2022  0.2819  0.3640
 4992WAT     H120674   2.232   1.583   1.163  0.2477  0.2326  0.1229
 4992WAT     H220675   2.323   1.490   1.207 -0.1772  0.8089  2.3722
 4992WAT    EPW20676   2.305   1.562   1.183  0.6073 -0.4848 -0.4212
 4993WAT      O20677   2.253   1.028   1.180 -0.0719  0.1251  0.3760
 4993WAT     H120678   2.208   1.054   1.250 -2.1931 -0.5142 -0.6648
 4993WAT     H220679   2.209   1.063   1.113  2.9749  2.3247 -0.6842
 4993WAT    EPW20680   2.240   1.037   1.181  0.5064 -0.1206  0.1357
 4994WAT      O20681   1.591   5.731   7.196 -0.1760 -0.0721  0.1116
 4994WAT     H120682   1.525   5.682   7.167 -0.4594  0.8932 -0.9793
 4994WAT     H220683   1.649   5.673   7.226 -1.6545 -0.9438  1.4592
 4994WAT    EPW20684   1.589   5.715   7.196  0.0215  0.3684  0.4556
 4995WAT      O20685   5.849   3.105   4.042  0.0263  0.0368  0.1570
 4995WAT     H120686   5.829   3.190   4.049  4.0150  0.9976  2.5265
 4995WAT     H220687   5.787   3.065   4.089 -1.8759  1.5482 -0.9299
 4995WAT    EPW20688   5.837   3.112   4.050 -0.4280 -0.2505 -0.0734
 4996WAT      O20689   5.994   4.879   6.181 -0.1024 -0.3012  0.6268
 4996WAT     H120690   5.981   4.795   6.203  0.4287 -0.2738  1.0811
 4996WAT     H220691   5.992   4.920   6.258  1.6645 -0.1808  0.6678
 4996WAT    EPW20692   5.992   4.872   6.196  0.5987 -0.3917 -0.5923
 4997WAT      O20693   6.906   3.599   0.158 -0.0147  0.0524 -0.5471
 4997WAT     H120694   6.896   3.556   0.082 -1.6543 -0.5099 -0.0381
 4997WAT     H220695   6.917   3.535   0.216  3.7715  0.4865 -0.5274
 4997WAT    EPW20696   6.906   3.583   0.155 -0.2051 -0.1797 -0.0488
 4998WAT      O20697   4.001   7.526   5.145  0.3904 -0.0850  0.2844
 4998WAT     H120698   3.915   7.511   5.152  0.3919  0.0814  0.6754
 4998WAT     H220699   4.008   7.571   5.070 -0.0276  1.1423  0.9675
 4998WAT    EPW20700   3.989   7.530   5.135 -0.1900  0.0823 -0.5073
 4999WAT      O20701   6.771   3.172   0.593  0.2182 -0.0764 -0.0583
 4999WAT     H120702   6.802   3.100   0.556  1.7698  0.3839  0.2363
 4999WAT     H220703   6.685   3.167   0.580  0.4083 -1.3853 -1.0639
 4999WAT    EPW20704   6.763   3.161   0.586 -0.1237 -0.0502  0.2782
 5000WAT      O20705   5.552   0.868   7.307  0.3851  0.1216 -0.0206
 5000WAT     H120706   5.619   0.871   7.251  0.2963  2.0494 -0.1137
 5000WAT     H220707   5.490   0.915   7.267  0.9253  3.1780  2.3274
 5000WAT    EPW20708   5.552   0.876   7.293  0.2866  0.5552  0.1238
 5001WAT      O20709   3.717   3.421   0.429 -0.0615  0.7118 -0.4854
 5001WAT     H120710   3.801   3.414   0.448 -0.1370 -1.0987 -0.5766
 5001WAT     H220711   3.689   3.486   0.480  0.6538 -1.0306  2.3533
 5001WAT    EPW20712   3.725   3.429   0.439  0.2889  0.1474 -0.7690
 5002WAT      O20713   0.866   0.868   2.593  0.2900 -0.2131 -0.0296
 5002WAT     H120714   0.808   0.926   2.622  1.1319  0.4729  0.3053
 5002WAT     H220715   0.818   0.815   2.543 -0.5375  0.6341 -0.1626
 5002WAT    EPW20716   0.850   0.869   2.590 -0.1190  0.4192 -0.4522
 5003WAT      O20717   4.979   3.018   2.328  0.3447 -0.2109 -0.2188
 5003WAT     H120718   5.056   3.006   2.368 -0.3629 -0.8380  1.0071
 5003WAT     H220719   4.930   2.953   2.358 -0.0656 -1.1445 -2.6292
 5003WAT    EPW20720   4.983   3.006   2.338 -0.1940  0.2621 -0.2974
 5004WAT      O20721   4.173   1.362   2.899  0.2777 -0.9710  0.0487
 5004WAT     H120722   4.114   1.372   2.962 -0.5347 -1.3668 -0.6317
 5004WAT     H220723   4.222   1.296   2.927 -2.3540 -3.7376 -1.3360
 5004WAT    EPW20724   4.172   1.354   2.912  0.9593  0.5071  0.1209
 5005WAT      O20725   1.149   4.076   0.568  0.7876 -0.1681 -0.0948
 5005WAT     H120726   1.091   4.073   0.503  0.9106 -1.1747 -0.1691
 5005WAT     H220727   1.102   4.107   0.635  0.4999  0.2553 -0.4858
 5005WAT    EPW20728   1.133   4.080   0.568  0.5372  0.5555  0.5197
 5006WAT      O20729   5.430   1.894   0.001  0.1923 -0.1601 -0.1407
 5006WAT     H120730   5.347   1.876   0.021 -0.0063  0.4912 -0.3515
 5006WAT     H220731   5.465   1.917   0.077  0.1937 -0.5030 -0.0393
 5006WAT    EPW20732   5.423   1.895   0.015 -0.1230 -0.4857  0.6262
 5007WAT      O20733   5.413   3.659   1.232  0.1972 -0.0076 -0.6755
 5007WAT     H120734   5.402   3.717   1.168 -0.3454  0.2147 -0.3829
 5007WAT     H220735   5.499   3.643   1.230  0.0408 -0.9248 -2.2513
 5007WAT    EPW20736   5.424   3.665   1.222  0.5266  0.2099  0.6485
 5008WAT      O20737   4.929   3.956   6.572 -0.2827 -0.1713  0.2210
 5008WAT     H120738   4.892   3.978   6.648 -2.7287 -1.3337 -0.5374
 5008WAT     H220739   4.916   3.870   6.568  2.7865 -0.7063 -0.0653
 5008WAT    EPW20740   4.921   3.947   6.583 -0.0511 -0.0196 -0.7231
 5009WAT      O20741   6.565   1.677   0.521  0.1443  0.5438  0.0614
 5009WAT     H120742   6.566   1.595   0.490  2.3198  1.0208 -1.2817
 5009WAT     H220743   6.513   1.671   0.591 -0.9356 -1.6548 -0.8271
 5009WAT    EPW20744   6.557   1.664   0.527 -0.6471  0.0201  0.4795
 5010WAT      O20745   1.577   3.185   1.981 -0.0653 -0.0236 -0.1687
 5010WAT     H120746   1.573   3.105   1.945 -1.2909  0.0754 -0.3099
 5010WAT     H220747   1.507   3.225   1.947  1.4687  1.7164 -1.4956
 5010WAT    EPW20748   1.566   3.179   1.971 -0.4051  0.2832  0.2859
 5011WAT      O20749   7.618   0.935   0.823 -0.0671  0.0666  0.3061
 5011WAT     H120750   7.542   0.897   0.844 -1.4956  2.4384 -0.1691
 5011WAT     H220751   7.633   0.909   0.741  0.3252 -1.3677  0.8012
 5011WAT    EPW20752   7.609   0.926   0.814  0.2613 -0.5154 -0.3110
 5012WAT      O20753   4.100   5.052   7.847  0.1445 -0.0675  0.1179
 5012WAT     H120754   4.135   5.031   7.771 -0.7992 -1.8043  0.1194
 5012WAT     H220755   4.117   5.137   7.855  1.1588 -0.0875 -1.5234
 5012WAT    EPW20756   4.108   5.062   7.837 -0.1216  0.3344 -0.3228
 5013WAT      O20757   3.986   0.999   1.373  0.8018  0.2528 -0.1033
 5013WAT     H120758   4.014   0.918   1.388 -1.1767 -0.5001 -0.1166
 5013WAT     H220759   3.900   0.994   1.389  0.0552  1.5576 -2.9755
 5013WAT    EPW20760   3.977   0.986   1.377 -0.1013 -0.4361 -0.5857
 5014WAT      O20761   5.267   2.545   0.833 -0.2963 -0.4719  0.5868
 5014WAT     H120762   5.283   2.628   0.813  0.8440 -0.1888  2.4721
 5014WAT     H220763   5.201   2.523   0.779  0.3740  1.1626 -0.9917
 5014WAT    EPW20764   5.259   2.554   0.822  0.0660  0.4849  0.0208
 5015WAT      O20765   2.915   5.025   2.179 -0.7388 -0.2009  0.1120
 5015WAT     H120766   2.873   5.071   2.240 -0.4779 -0.6617  0.6438
 5015WAT     H220767   2.884   4.944   2.190 -0.6680 -0.2924 -0.3499
 5015WAT    EPW20768   2.904   5.020   2.190  0.3988  0.1206  0.2461
 5016WAT      O20769   5.395   0.813   6.881 -0.3108  0.0693 -0.3567
 5016WAT     H120770   5.418   0.731   6.901  1.8902  0.7670  0.2946
 5016WAT     H220771   5.373   0.809   6.797  1.5761 -0.9073 -0.8529
 5016WAT    EPW20772   5.395   0.801   6.872  0.0191 -0.0099  0.2104
 5017WAT      O20773   6.188   6.620   3.760 -0.0608  0.2320 -0.1908
 5017WAT     H120774   6.177   6.702   3.733 -0.1262  0.1127 -0.5252
 5017WAT     H220775   6.181   6.626   3.847  1.0933  0.7741 -0.1104
 5017WAT    EPW20776   6.186   6.633   3.769  0.0057 -0.4571  0.0912
 5018WAT      O20777   5.960   6.896   3.503 -0.0912  0.4029  0.0065
 5018WAT     H120778   6.026   6.905   3.446  0.4483  0.6870  0.6641
 5018WAT     H220779   5.923   6.975   3.504 -0.4628  0.2408 -0.3710
 5018WAT    EPW20780   5.964   6.909   3.494 -0.5627 -0.1459 -0.1737
 5019WAT      O20781   0.703   3.623   1.004 -0.0103  0.0131  0.2640
 5019WAT     H120782   0.772   3.674   1.024 -0.5255  0.8185  0.0409
 5019WAT     H220783   0.648   3.637   1.069  0.5788 -1.7251  1.1876
 5019WAT    EPW20784   0.705   3.633   1.016 -0.1000 -0.1631 -0.7633
 5020WAT      O20785   4.925   7.022   4.414  0.3369  0.4745 -0.1739
 5020WAT     H120786   4.971   7.075   4.467  2.1588 -1.1398 -0.0186
 5020WAT     H220787   4.978   7.011   4.345 -0.9248  0.5335 -1.1780
 5020WAT    EPW20788   4.940   7.028   4.412  0.3393 -0.8646 -0.1742
 5021WAT      O20789   7.835   7.094   3.106  0.2682 -0.2066 -0.3865
 5021WAT     H120790   7.788   7.049   3.165 -0.8258 -0.1456 -1.1731
 5021WAT     H220791   7.834   7.175   3.137  0.4525 -0.3338 -0.0387
 5021WAT    EPW20792   7.828   7.099   3.119 -0.3240 -0.4780  0.1161
 5022WAT      O20793   4.331   0.903   2.900  0.0216  0.1716 -0.1584
 5022WAT     H120794   4.409   0.881   2.868  0.8817  0.8251  1.3979
 5022WAT     H220795   4.290   0.937   2.831  0.8402 -0.8247 -1.1725
 5022WAT    EPW20796   4.337   0.905   2.885 -0.5628 -0.6110 -0.4081
 5023WAT      O20797   2.110   2.086   0.590  0.1099 -0.3690  0.0095
 5023WAT     H120798   2.033   2.045   0.588  0.0390 -0.4468  1.9023
 5023WAT     H220799   2.167   2.020   0.595  0.1378 -0.2944  0.8025
 5023WAT    EPW20800   2.107   2.070   0.591 -0.2654 -0.2319 -0.1135
 5024WAT      O20801   4.936   0.974   0.162 -0.3853 -0.5759  0.1553
 5024WAT     H120802   4.866   1.018   0.133  0.6419 -0.0248 -1.6434
 5024WAT     H220803   4.957   0.922   0.096  0.9428 -0.6702  0.6154
 5024WAT    EPW20804   4.929   0.973   0.148  0.1167 -0.6755  1.2444
 5025WAT      O20805   1.780   5.941   3.304 -0.7476 -0.3862  0.6412
 5025WAT     H120806   1.814   5.873   3.347 -1.5372 -0.3492  1.3432
 5025WAT     H220807   1.734   5.904   3.240 -1.0045 -0.5159  0.8955
 5025WAT    EPW20808   1.778   5.925   3.301 -0.4108  0.2732 -0.3707
 5026WAT      O20809   0.966   4.609   8.056  0.0051 -0.2285  0.7575
 5026WAT     H120810   1.028   4.624   7.997 -0.4547  0.0241  0.3361
 5026WAT     H220811   0.941   4.528   8.039 -3.3518  1.2239 -2.4938
 5026WAT    EPW20812   0.972   4.599   8.045 -0.9745  0.0178  0.4002
 5027WAT      O20813   4.374   1.928   7.335  0.0575 -0.0781 -0.4543
 5027WAT     H120814   4.313   1.873   7.306  0.6374 -1.6567  1.2026
 5027WAT     H220815   4.380   1.911   7.420  1.3244  1.5255 -0.1629
 5027WAT    EPW20816   4.366   1.918   7.343  0.2913 -0.4802 -0.1407
 5028WAT      O20817   5.462   5.866   5.799  0.3294 -0.8931 -0.3108
 5028WAT     H120818   5.448   5.951   5.814  0.3843 -0.7715 -0.9200
 5028WAT     H220819   5.395   5.827   5.840  0.7276 -0.6171  0.6323
 5028WAT    EPW20820   5.450   5.873   5.807  0.2329 -0.3166  0.4986
 5029WAT      O20821   4.472   2.369   7.235  0.0001 -0.7554  0.0444
 5029WAT     H120822   4.431   2.441   7.264  0.0942 -0.2798 -0.9689
 5029WAT     H220823   4.408   2.316   7.212 -0.0679 -0.7361  0.1896
 5029WAT    EPW20824   4.457   2.372   7.236 -0.3528  0.1821 -0.1170
 5030WAT      O20825   0.859   3.959   3.633 -0.8774 -0.2832 -0.2143
 5030WAT     H120826   0.889   3.878   3.633  0.3051  0.0883 -1.8460
 5030WAT     H220827   0.907   3.999   3.694 -0.5644 -0.5256 -0.2975
 5030WAT    EPW20828   0.870   3.953   3.642  0.1825 -0.5207  0.1504
 5031WAT      O20829   4.466   4.873   4.002  0.0859 -0.4335 -0.4350
 5031WAT     H120830   4.475   4.791   3.973  0.8181 -0.3643 -0.4252
 5031WAT     H220831   4.437   4.863   4.083 -0.6131 -0.6605 -0.7048
 5031WAT    EPW20832   4.463   4.859   4.009 -0.0880 -0.6856  0.2468
 5032WAT      O20833   2.434   3.244   2.928  0.0337  0.0445  0.2786
 5032WAT     H120834   2.424   3.190   2.996 -0.7664  0.6377  0.6464
 5032WAT     H220835   2.482   3.309   2.960 -1.2920  0.8969  0.6346
 5032WAT    EPW20836   2.440   3.246   2.943  0.3579 -0.0289 -0.1710
 5033WAT      O20837   3.877   6.075   7.387  0.3838 -0.3823 -0.3092
 5033WAT     H120838   3.952   6.119   7.394 -0.2942  0.6939  0.6847
 5033WAT     H220839   3.823   6.121   7.438 -0.6103 -1.8529 -0.0039
 5033WAT    EPW20840   3.880   6.089   7.396 -0.2364  0.0524  0.3530
 5034WAT      O20841   5.828   4.261   6.594  0.0528  0.0416 -0.3847
 5034WAT     H120842   5.777   4.259   6.665  0.8909 -0.3153  0.2262
 5034WAT     H220843   5.772   4.267   6.528 -0.7440  0.3530  0.3125
 5034WAT    EPW20844   5.813   4.262   6.595  0.1479  0.0270  0.1450
 5035WAT      O20845   4.483   3.539   0.293  0.4092 -0.6189 -0.3016
 5035WAT     H120846   4.400   3.565   0.291  0.8003  1.3639  2.4593
 5035WAT     H220847   4.478   3.459   0.327 -0.3930  0.1745  1.6279
 5035WAT    EPW20848   4.470   3.531   0.298 -0.6113 -0.1394 -0.0993
 5036WAT      O20849   3.108   0.883   2.167  0.0623 -0.5488  0.4622
 5036WAT     H120850   3.062   0.939   2.216  1.0331  1.6176 -0.9048
 5036WAT     H220851   3.052   0.859   2.105  0.4177  1.5261 -0.7859
 5036WAT    EPW20852   3.093   0.888   2.165 -0.2814 -0.3009 -0.7355
 5037WAT      O20853   1.145   6.399   4.209  0.0392  0.4133 -0.1024
 5037WAT     H120854   1.105   6.398   4.287 -1.1637  3.3266 -0.5464
 5037WAT     H220855   1.092   6.351   4.158  0.2499 -0.5902  0.5905
 5037WAT    EPW20856   1.131   6.392   4.213  0.4361  0.0051  0.0663
 5038WAT      O20857   0.120   0.799   1.835  0.0833 -0.2259 -0.4296
 5038WAT     H120858   0.164   0.832   1.903  1.0597 -0.5419 -0.8787
 5038WAT     H220859   0.182   0.792   1.773 -0.3079 -1.8751 -0.6808
 5038WAT    EPW20860   0.136   0.803   1.836  0.1979  0.1055  0.1445
 5039WAT      O20861   6.938   1.418   0.876  0.3070 -0.1249 -0.6402
 5039WAT     H120862   6.972   1.412   0.956  0.0577  1.3973 -0.4029
 5039WAT     H220863   6.907   1.337   0.861  0.4854 -0.4656  0.7311
 5039WAT    EPW20864   6.938   1.405   0.886 -0.1998 -0.2570 -0.9411
 5040WAT      O20865   3.990   1.280   7.424 -0.2584  0.1061 -0.4410
 5040WAT     H120866   4.012   1.213   7.475  0.3315 -0.4285 -1.3578
 5040WAT     H220867   3.950   1.241   7.356  0.8067  0.5745 -1.3784
 5040WAT    EPW20868   3.987   1.264   7.421  0.3630  0.7440 -0.3689
 5041WAT      O20869   1.676   7.166   1.942 -0.5753  0.6708  0.1265
 5041WAT     H120870   1.646   7.100   1.894  2.0933 -1.0159  0.5474
 5041WAT     H220871   1.643   7.236   1.903 -3.9862 -0.8310 -0.0354
 5041WAT    EPW20872   1.667   7.167   1.929 -0.5886  0.0238  0.5285
 5042WAT      O20873   7.430   1.339   2.214  0.3995  0.8107  0.5607
 5042WAT     H120874   7.443   1.311   2.295 -0.1798 -0.6351  0.1894
 5042WAT     H220875   7.366   1.287   2.184 -0.1745  2.0312 -0.4599
 5042WAT    EPW20876   7.422   1.328   2.221  0.0699  0.4592 -0.0828
 5043WAT      O20877   6.061   7.155   2.705 -0.2919  0.0190  0.0256
 5043WAT     H120878   6.113   7.179   2.771 -0.7858  1.2532 -0.0035
 5043WAT     H220879   5.981   7.168   2.735 -0.5231  0.9290 -0.9108
 5043WAT    EPW20880   6.057   7.161   2.719 -0.4773  0.4737  0.4531
 5044WAT      O20881   0.324   5.638   1.575  0.3906  0.5995 -0.3304
 5044WAT     H120882   0.281   5.564   1.586 -0.6684  0.8340 -2.4071
 5044WAT     H220883   0.300   5.665   1.495  1.6598  2.5601 -0.1398
 5044WAT    EPW20884   0.314   5.631   1.565 -0.0452  0.1124 -0.0133
 5045WAT      O20885   0.624   2.802   4.123 -0.1115 -0.8533 -0.1060
 5045WAT     H120886   0.652   2.833   4.200  0.1077  0.5807 -0.7352
 5045WAT     H220887   0.689   2.748   4.099 -0.1626 -1.2824  0.6848
 5045WAT    EPW20888   0.638   2.799   4.131 -0.5295  0.1102  0.3995
 5046WAT      O20889   6.397   3.496   2.996  0.1073  0.2761  0.3007
 5046WAT     H120890   6.426   3.544   2.929  0.8904  0.0295  0.4605
 5046WAT     H220891   6.363   3.556   3.050 -0.1084  0.5188 -0.0918
 5046WAT    EPW20892   6.396   3.512   2.994  0.0627  0.6256  0.5545
 5047WAT      O20893   7.080   2.562   0.474 -0.4316  0.0243  0.2411
 5047WAT     H120894   7.024   2.577   0.539 -2.4019 -1.0399 -1.1351
 5047WAT     H220895   7.029   2.544   0.406  1.5883 -0.5806 -1.2061
 5047WAT    EPW20896   7.065   2.561   0.473 -0.0497  0.1714 -0.0185
 5048WAT      O20897   7.691   1.471   4.297 -0.0635 -0.2201 -0.2819
 5048WAT     H120898   7.627   1.488   4.240 -1.6247 -2.5855  0.6090
 5048WAT     H220899   7.750   1.533   4.280 -1.6461  0.8240 -2.5744
 5048WAT    EPW20900   7.690   1.483   4.286 -0.3469  0.2052  0.6375
 5049WAT      O20901   4.125   1.586   0.421  0.7570  0.0129 -0.7027
 5049WAT     H120902   4.090   1.538   0.357  0.1301 -0.4715 -0.0240
 5049WAT     H220903   4.055   1.612   0.467  1.0509  1.9409 -1.2833
 5049WAT    EPW20904   4.109   1.583   0.419  0.1954 -0.2180 -0.3000
 5050WAT      O20905   7.263   1.627   2.633 -0.2699  0.0371  0.3696
 5050WAT     H120906   7.249   1.692   2.577 -0.6904 -0.3999 -0.0391
 5050WAT     H220907   7.239   1.661   2.710  0.7447  0.7831  0.3612
 5050WAT    EPW20908   7.257   1.641   2.636 -0.1784 -0.6057 -0.1561
 5051WAT      O20909   0.568   4.936   2.121 -0.2944  0.2525 -0.1071
 5051WAT     H120910   0.566   4.954   2.036 -2.1388 -0.1498 -0.1859
 5051WAT     H220911   0.546   5.011   2.159 -0.7701  0.0945 -0.0634
 5051WAT    EPW20912   0.565   4.950   2.114 -0.1970 -0.0535  0.1031
 5052WAT      O20913   4.570   6.741   2.701 -0.1870  0.0771  0.1866
 5052WAT     H120914   4.500   6.710   2.659 -0.7152  0.3626  0.8280
 5052WAT     H220915   4.635   6.733   2.644 -0.4160 -1.7104  0.1341
 5052WAT    EPW20916   4.569   6.735   2.687 -0.6136  1.0573  0.4957
 5053WAT      O20917   3.692   7.086   1.472  0.0820  1.0193  0.9518
 5053WAT     H120918   3.703   7.152   1.416  2.4403  0.4793  0.6680
 5053WAT     H220919   3.686   7.125   1.550  0.1824  1.6279  0.6576
 5053WAT    EPW20920   3.693   7.101   1.475  0.0974 -0.5383 -0.1534
 5054WAT      O20921   7.913   4.395   1.100  0.0170 -0.2049 -0.0771
 5054WAT     H120922   7.950   4.365   1.173 -1.1139  1.7027  1.3905
 5054WAT     H220923   7.948   4.346   1.037  1.0439 -1.9259  1.7324
 5054WAT    EPW20924   7.924   4.384   1.101  0.4818  0.2561 -0.6948
 5055WAT      O20925   3.186   2.826   4.927  0.0371 -0.0195 -0.4533
 5055WAT     H120926   3.152   2.750   4.952  1.8265 -0.5963  0.3196
 5055WAT     H220927   3.129   2.854   4.867 -0.3750 -2.2145 -1.1758
 5055WAT    EPW20928   3.172   2.819   4.922  0.2387 -0.2084 -0.0705
 5056WAT      O20929   5.040   1.289   0.053 -0.2558 -0.2712  0.3051
 5056WAT     H120930   4.963   1.250   0.043 -0.6176  0.6628 -0.6393
 5056WAT     H220931   5.020   1.374   0.058  0.7786  0.0895 -1.1287
 5056WAT    EPW20932   5.026   1.296   0.052  0.4757  0.1013 -0.1057
 5057WAT      O20933   4.354   0.738   7.072  0.1798 -0.1417  0.0569
 5057WAT     H120934   4.429   0.693   7.074 -1.1982 -2.6809 -0.7607
 5057WAT     H220935   4.341   0.760   7.156  0.3532 -2.4073  0.7459
 5057WAT    EPW20936   4.363   0.734   7.085  0.4469  0.3193 -0.4495
 5058WAT      O20937   2.156   2.899   1.645  0.8625  0.0999 -0.0386
 5058WAT     H120938   2.172   2.962   1.587  1.3734 -0.1063 -0.1255
 5058WAT     H220939   2.116   2.940   1.710 -0.8864  0.1243 -1.0720
 5058WAT    EPW20940   2.152   2.914   1.646 -0.4591 -0.4020  0.4403
 5059WAT      O20941   2.583   1.598   1.095 -0.1037  0.0952  0.3367
 5059WAT     H120942   2.567   1.535   1.038 -0.2278  0.9302 -0.5710
 5059WAT     H220943   2.507   1.608   1.137 -1.2219  1.9593 -1.8796
 5059WAT    EPW20944   2.569   1.590   1.093 -0.1351 -0.9417 -0.1112
 5060WAT      O20945   0.209   7.249   3.866  0.2020 -0.6218  0.4530
 5060WAT     H120946   0.296   7.260   3.864  0.1512 -0.2582  0.0337
 5060WAT     H220947   0.196   7.182   3.811  0.1753 -0.3677  0.1481
 5060WAT    EPW20948   0.220   7.240   3.857 -0.3588 -0.1192 -0.2594
 5061WAT      O20949   6.189   7.235   2.451  0.2086  0.1432  0.0201
 5061WAT     H120950   6.205   7.316   2.480 -0.0763  0.8094 -1.5789
 5061WAT     H220951   6.160   7.193   2.522 -1.4218  1.9595  0.5148
 5061WAT    EPW20952   6.187   7.241   2.466 -0.5171 -0.1052  0.0457
 5062WAT      O20953   5.381   6.125   1.542 -0.0796  0.0483 -0.0972
 5062WAT     H120954   5.378   6.072   1.611  1.8279 -0.4858 -0.3641
 5062WAT     H220955   5.398   6.072   1.475 -0.0016  0.7787 -0.6762
 5062WAT    EPW20956   5.383   6.110   1.542  0.3662 -1.1154  0.0648
 5063WAT      O20957   6.109   4.471   1.323  0.3411  0.4613  0.4783
 5063WAT     H120958   6.095   4.556   1.334  0.6094  0.7545 -1.1757
 5063WAT     H220959   6.043   4.433   1.365 -0.7259  1.5526 -0.1557
 5063WAT    EPW20960   6.097   4.478   1.330  0.6203  0.2164  0.3474
 5064WAT      O20961   0.396   2.670   3.481  0.5376 -0.1752  0.4676
 5064WAT     H120962   0.387   2.665   3.567  0.5137  0.3321  0.4968
 5064WAT     H220963   0.482   2.668   3.468  0.5897  0.7804  0.5789
 5064WAT    EPW20964   0.407   2.669   3.492  0.5781 -0.1134 -0.5350
 5065WAT      O20965   1.472   5.250   0.277  0.5469 -0.0954  0.1492
 5065WAT     H120966   1.543   5.293   0.304  0.1431  0.3474  0.5298
 5065WAT     H220967   1.468   5.269   0.192  0.4162  0.5834  0.2973
 5065WAT    EPW20968   1.482   5.259   0.268  1.1105 -0.0499  0.0855
 5066WAT      O20969   4.218   1.253   3.766  0.1032 -0.3890  0.2851
 5066WAT     H120970   4.135   1.253   3.739 -0.3525  0.9101  1.5502
 5066WAT     H220971   4.245   1.172   3.750 -0.8273 -0.3668 -1.7866
 5066WAT    EPW20972   4.210   1.241   3.759 -0.4559 -0.1921  0.5268
 5067WAT      O20973   7.617   5.268   2.552  0.0602 -0.5582 -0.0270
 5067WAT     H120974   7.650   5.234   2.625  0.2748  2.0639  1.2332
 5067WAT     H220975   7.686   5.308   2.515 -0.5721  0.4265 -0.2000
 5067WAT    EPW20976   7.632   5.269   2.557  0.2623 -0.9649  0.0397
 5068WAT      O20977   3.425   6.421   1.684  0.0249  0.4596  0.0798
 5068WAT     H120978   3.442   6.462   1.759  1.9228  0.5536 -0.3401
 5068WAT     H220979   3.388   6.346   1.708  1.4764  0.0610  1.1827
 5068WAT    EPW20980   3.422   6.416   1.698  0.0049 -0.1126 -0.4833
 5069WAT      O20981   5.811   7.728   7.508 -0.1216  0.0641  0.0359
 5069WAT     H120982   5.743   7.734   7.563  1.0895  0.5370  1.5325
 5069WAT     H220983   5.790   7.785   7.445 -0.3735  1.5287  1.3639
 5069WAT    EPW20984   5.798   7.738   7.507 -0.4307  0.6935 -0.0724
 5070WAT      O20985   1.935   0.187   1.082  0.3618  0.0187  0.3286
 5070WAT     H120986   1.879   0.128   1.049  1.6319  0.1305 -2.2182
 5070WAT     H220987   1.900   0.264   1.059 -0.5568  0.3392  2.4493
 5070WAT    EPW20988   1.921   0.190   1.074 -0.1549  0.4106  0.5277
 5071WAT      O20989   6.337   1.876   3.838  0.4048  1.0379 -0.3550
 5071WAT     H120990   6.388   1.943   3.814 -0.5456  1.9257 -0.0030
 5071WAT     H220991   6.257   1.912   3.843 -0.2869 -0.3105 -0.9499
 5071WAT    EPW20992   6.332   1.891   3.835 -0.2034  0.1030  0.6440
 5072WAT      O20993   0.795   3.908   4.861  0.4690  0.1920 -0.1597
 5072WAT     H120994   0.845   3.837   4.870 -0.1150 -0.1688  0.2838
 5072WAT     H220995   0.720   3.876   4.829 -1.1284  0.0263  3.2555
 5072WAT    EPW20996   0.791   3.893   4.857 -0.1850  0.2215 -0.3601
 5073WAT      O20997   6.620   3.411   2.602 -0.0222 -0.8205 -0.0858
 5073WAT     H120998   6.684   3.462   2.572 -0.9261 -0.6743 -1.8612
 5073WAT     H220999   6.661   3.356   2.656  1.6021 -0.6925 -1.1332
 5073WAT    EPW21000   6.635   3.410   2.606 -0.1006  0.3233  0.2008
 5074WAT      O21001   3.554   0.596   6.925 -0.0762  0.5512 -0.4048
 5074WAT     H121002   3.632   0.631   6.906  0.4923  0.0507  0.9284
 5074WAT     H221003   3.560   0.575   7.009 -2.0908  1.5983  0.0705
 5074WAT    EPW21004   3.566   0.598   6.934 -0.2391 -0.0709  0.2432
 5075WAT      O21005   3.188   0.200   6.162 -0.2798 -0.4130  0.5926
 5075WAT     H121006   3.226   0.193   6.084  0.1731  0.2756  0.7477
 5075WAT     H221007   3.112   0.157   6.152 -0.3221 -0.1458 -0.2887
 5075WAT    EPW21008   3.182   0.193   6.149 -0.4175 -0.3394  0.4163
 5076WAT      O21009   0.918   7.661   7.918 -0.3791  0.4164  0.0025
 5076WAT     H121010   0.983   7.646   7.861 -0.8487  0.2720 -0.5072
 5076WAT     H221011   0.902   7.746   7.909  0.6273  0.7569  1.1088
 5076WAT    EPW21012   0.925   7.671   7.908  0.2335 -0.0674  0.0919
 5077WAT      O21013   7.357   4.951   2.547 -0.2168  0.0064  0.3347
 5077WAT     H121014   7.314   4.883   2.581 -1.6461 -0.1358 -1.6046
 5077WAT     H221015   7.432   4.917   2.521 -0.1597 -0.4172  1.0291
 5077WAT    EPW21016   7.361   4.936   2.548  0.5151  0.2162 -0.7118
 5078WAT      O21017   3.679   4.273   1.179 -0.1507  0.4234  0.4755
 5078WAT     H121018   3.615   4.225   1.144  0.2049  2.3926 -3.3987
 5078WAT     H221019   3.636   4.338   1.218 -0.5337  0.2201  0.4029
 5078WAT    EPW21020   3.663   4.275   1.180  0.0391  0.0898 -0.6913
 5079WAT      O21021   6.846   4.573   1.443  0.2565  0.1137 -0.2890
 5079WAT     H121022   6.849   4.486   1.444  0.7071  0.0957 -1.4300
 5079WAT     H221023   6.866   4.593   1.360  3.0104  1.4070  0.5970
 5079WAT    EPW21024   6.849   4.563   1.431  0.2288 -0.1154  0.2617
 5080WAT      O21025   5.318   7.945   4.465 -0.6786 -0.0737 -0.5994
 5080WAT     H121026   5.370   7.987   4.409  1.0300 -0.1762  0.8387
 5080WAT     H221027   5.369   7.883   4.499 -1.3218  0.5870  1.7646
 5080WAT    EPW21028   5.333   7.942   4.462 -0.0618 -0.1054 -0.0001
 5081WAT      O21029   5.508   2.956   0.636  0.4709 -0.2803  0.4157
 5081WAT     H121030   5.480   2.874   0.624 -0.8552  0.4221 -2.0149
 5081WAT     H221031   5.433   3.002   0.644  1.1599  0.8024  0.8679
 5081WAT    EPW21032   5.493   2.951   0.635 -0.2155 -0.6274 -0.3037
 5082WAT      O21033   2.780   3.065   0.648  0.6779  0.2411  0.1246
 5082WAT     H121034   2.808   3.032   0.573 -0.7497  2.8570 -1.7108
 5082WAT     H221035   2.707   3.020   0.664  1.4224 -0.8860  0.4255
 5082WAT    EPW21036   2.773   3.054   0.639 -0.0686  0.4860  0.0086
 5083WAT      O21037   2.668   0.230   7.572 -0.1401 -0.2622 -0.4969
 5083WAT     H121038   2.699   0.246   7.652  1.1196  0.7531 -1.1506
 5083WAT     H221039   2.592   0.189   7.587  0.5504 -0.9990  1.1932
 5083WAT    EPW21040   2.661   0.227   7.586  1.0090  0.2971  0.5345
 5084WAT      O21041   5.048   0.782   1.593  0.0605  0.3463  0.4120
 5084WAT     H121042   5.116   0.733   1.568 -1.1383 -2.3797  2.0302
 5084WAT     H221043   5.041   0.765   1.678 -0.5490  3.3700  1.0774
 5084WAT    EPW21044   5.057   0.772   1.602 -0.1035  0.4416 -0.4414
 5085WAT      O21045   5.779   6.855   7.454 -0.4863  0.2401  0.4179
 5085WAT     H121046   5.716   6.915   7.457 -0.0156  0.8040 -0.5199
 5085WAT     H221047   5.789   6.832   7.538 -1.3875  0.7047  0.6684
 5085WAT    EPW21048   5.771   6.861   7.467  0.1898 -0.8465  0.4950
 5086WAT      O21049   6.336   2.021   1.506  0.4485 -0.3800  0.1295
 5086WAT     H121050   6.360   1.938   1.492  0.5926 -0.0034 -2.3099
 5086WAT     H221051   6.409   2.066   1.491  0.1450  0.2502  0.5211
 5086WAT    EPW21052   6.350   2.015   1.501  0.3557  0.6740 -0.1335
 5087WAT      O21053   3.732   7.569   2.865  0.3904 -0.1133 -0.5939
 5087WAT     H121054   3.663   7.524   2.896 -0.5536  1.7121  0.1298
 5087WAT     H221055   3.739   7.636   2.921  1.5367  0.8023 -1.7765
 5087WAT    EPW21056   3.723   7.572   2.878  0.3823  0.1308 -0.0251
 5088WAT      O21057   2.162   7.110   1.332  0.6333 -0.0985 -0.0071
 5088WAT     H121058   2.160   7.136   1.249 -0.9858 -1.8120 -0.5975
 5088WAT     H221059   2.222   7.046   1.333 -0.8490 -1.5704 -0.4365
 5088WAT    EPW21060   2.170   7.104   1.320 -0.4867 -0.4688 -0.1085
 5089WAT      O21061   6.225   7.932   7.134  0.9976  0.4434  0.7508
 5089WAT     H121062   6.209   7.850   7.161  4.5198 -0.3961  0.8875
 5089WAT     H221063   6.179   7.938   7.060  0.2218 -1.4661  1.0119
 5089WAT    EPW21064   6.216   7.920   7.127 -0.1794 -0.3646  0.4856
 5090WAT      O21065   4.392   6.957   2.926 -0.2243  0.1993  0.0081
 5090WAT     H121066   4.319   6.959   2.879  0.4763 -1.1219 -1.1830
 5090WAT     H221067   4.454   6.982   2.870  0.2509  1.4976  1.0558
 5090WAT    EPW21068   4.390   6.961   2.911 -0.1179  0.0992  0.2498
 5091WAT      O21069   4.651   1.263   7.831  0.5882  0.3481  0.4477
 5091WAT     H121070   4.590   1.320   7.854 -1.0268 -0.5977 -1.1913
 5091WAT     H221071   4.695   1.304   7.767 -1.0896 -0.4228 -1.3021
 5091WAT    EPW21072   4.649   1.277   7.825 -0.1854  0.0617 -0.6133
 5092WAT      O21073   3.320   2.586   7.587 -0.1753  0.5820  0.3046
 5092WAT     H121074   3.250   2.548   7.622  1.4263 -2.2402  0.7921
 5092WAT     H221075   3.345   2.643   7.648 -1.0183  0.3018  0.9365
 5092WAT    EPW21076   3.314   2.589   7.601 -0.0115  0.2455 -0.4674
 5093WAT      O21077   1.862   2.107   6.487  0.3954  0.3061  0.2754
 5093WAT     H121078   1.837   2.184   6.455  1.5046  0.1811 -0.9822
 5093WAT     H221079   1.949   2.112   6.487  0.5391 -1.2832 -0.7867
 5093WAT    EPW21080   1.871   2.119   6.482  0.0177  0.2104  0.1563
 5094WAT      O21081   4.538   1.427   5.694 -0.6055 -0.2420  0.5629
 5094WAT     H121082   4.624   1.441   5.693 -0.7320  0.6843 -0.8225
 5094WAT     H221083   4.519   1.419   5.779  1.0103 -1.7278  0.8344
 5094WAT    EPW21084   4.548   1.428   5.706 -0.5206 -0.1445 -0.4038
 5095WAT      O21085   6.796   0.780   3.339  0.2000 -0.6091  0.5098
 5095WAT     H121086   6.765   0.756   3.417  0.0799  2.4999  1.5434
 5095WAT     H221087   6.725   0.805   3.295  0.2455 -2.4586 -0.7470
 5095WAT    EPW21088   6.781   0.780   3.344  0.3360  0.4305  0.3003
 5096WAT      O21089   5.376   3.292   2.327  0.0995 -0.0715  0.0181
 5096WAT     H121090   5.372   3.231   2.265 -0.3898 -1.2198  1.1212
 5096WAT     H221091   5.383   3.245   2.401 -0.7233  1.1879  0.9407
 5096WAT    EPW21092   5.376   3.276   2.329  0.0057  0.2471 -0.4146
 5097WAT      O21093   0.093   7.821   2.514  0.0762 -0.2518  0.0351
 5097WAT     H121094   0.032   7.856   2.462  0.0343 -0.4253 -0.0359
 5097WAT     H221095   0.047   7.794   2.583  0.3355  1.3136  0.8569
 5097WAT    EPW21096   0.077   7.822   2.516 -0.1763  0.4810 -0.3345
 5098WAT      O21097   5.344   1.159   6.791  0.5141 -0.5800  0.6870
 5098WAT     H121098   5.290   1.100   6.757 -0.1108  0.4341 -0.1317
 5098WAT     H221099   5.291   1.224   6.816  1.2535 -0.0297  0.8707
 5098WAT    EPW21100   5.328   1.160   6.790  0.2302  0.6818  0.0398
 5099WAT      O21101   6.171   7.623   7.513 -0.1557 -0.2173  0.0816
 5099WAT     H121102   6.220   7.564   7.471 -1.3346 -1.3620  0.2530
 5099WAT     H221103   6.229   7.666   7.562  0.7549 -1.1780 -0.1126
 5099WAT    EPW21104   6.187   7.621   7.514  0.5845  0.4256 -0.3146
 5100WAT      O21105   2.186   0.230   1.824 -0.0227  0.8110 -0.5477
 5100WAT     H121106   2.214   0.309   1.850 -1.5550  1.6343 -1.3274
 5100WAT     H221107   2.100   0.233   1.838  0.1891 -1.8322  2.2309
 5100WAT    EPW21108   2.178   0.242   1.830 -0.6707  0.9550 -0.5555
 5101WAT      O21109   6.505   2.508   2.344  0.2397  0.2741  0.2410
 5101WAT     H121110   6.507   2.461   2.270 -0.2167  0.8539 -0.1532
 5101WAT     H221111   6.581   2.549   2.344 -1.3959  3.8783 -2.3662
 5101WAT    EPW21112   6.516   2.507   2.333  0.2376  0.1750  0.5984
 5102WAT      O21113   6.493   1.763   4.736 -0.2304 -0.1748  0.1613
 5102WAT     H121114   6.558   1.753   4.794 -0.6815 -0.2575  0.6624
 5102WAT     H221115   6.526   1.731   4.662  0.4725  0.2402  0.2878
 5102WAT    EPW21116   6.507   1.757   4.734 -0.4289  0.3335 -0.1397
 5103WAT      O21117   3.056   3.401   6.572  0.3159 -0.4408 -0.4453
 5103WAT     H121118   3.078   3.486   6.574 -0.4991 -0.2344  0.1298
 5103WAT     H221119   2.998   3.396   6.508  0.0918 -0.4977 -0.2373
 5103WAT    EPW21120   3.051   3.413   6.563  0.1910  0.0551  0.3019
 5104WAT      O21121   1.226   8.008   1.717  0.2182  0.0572  0.3290
 5104WAT     H121122   1.234   8.071   1.776 -0.2780  0.6423 -0.2054
 5104WAT     H221123   1.228   8.051   1.641  1.3910 -0.7323 -0.1176
 5104WAT    EPW21124   1.227   8.023   1.715  0.1529 -0.4793  0.2699
 5105WAT      O21125   7.980   1.539   0.445  0.1360 -0.4214  0.2933
 5105WAT     H121126   8.038   1.542   0.511  1.4471  0.0251 -0.8352
 5105WAT     H221127   7.968   1.454   0.433  1.1176 -0.5465  0.0957
 5105WAT    EPW21128   7.987   1.527   0.453 -0.0530 -0.1419  0.3928
 5106WAT      O21129   7.087   2.908   2.355 -0.1387 -0.1712 -0.1756
 5106WAT     H121130   7.149   2.954   2.396  0.0403  1.7445 -2.4285
 5106WAT     H221131   7.014   2.953   2.371 -0.4640 -0.7238 -0.0662
 5106WAT    EPW21132   7.085   2.922   2.364 -0.3529  0.3128 -0.4444
 5107WAT      O21133   3.539   6.922   5.553 -0.7152  0.0058  0.2538
 5107WAT     H121134   3.608   6.915   5.607 -1.6597  0.4701  1.5847
 5107WAT     H221135   3.567   6.886   5.479  1.1882  0.8004  0.5290
 5107WAT    EPW21136   3.554   6.916   5.550  0.1817  0.1236 -0.4940
 5108WAT      O21137   5.910   4.232   0.929  0.4287  0.0114  0.2336
 5108WAT     H121138   5.862   4.168   0.894 -0.2222 -0.5013  1.9132
 5108WAT     H221139   5.862   4.304   0.915  0.7195  0.0004 -0.8597
 5108WAT    EPW21140   5.895   4.233   0.922 -0.0450  0.3446 -0.4986
 5109WAT      O21141   4.225   1.070   2.702 -0.3913 -1.0556  0.2441
 5109WAT     H121142   4.238   1.062   2.616  1.2113  1.9119  0.0578
 5109WAT     H221143   4.146   1.107   2.708  0.1798  0.2931 -0.1362
 5109WAT    EPW21144   4.215   1.074   2.690  0.5761 -0.2574  0.0273
 5110WAT      O21145   4.530   0.602   1.250  0.3200 -0.6681 -0.1614
 5110WAT     H121146   4.587   0.662   1.224 -0.3109  0.3480  0.7193
 5110WAT     H221147   4.464   0.611   1.194 -0.0566 -0.0597  0.3629
 5110WAT    EPW21148   4.529   0.612   1.238  0.4201  0.3945 -0.3804
 5111WAT      O21149   3.132   0.681   6.931 -0.3141  0.5668  0.1043
 5111WAT     H121150   3.179   0.683   6.858  1.6330  1.6098  1.3004
 5111WAT     H221151   3.136   0.598   6.957  0.3913  0.5242 -0.1320
 5111WAT    EPW21152   3.140   0.669   6.924  0.5920  0.3156 -0.3584
 5112WAT      O21153   7.105   2.788   2.760 -0.5364  0.7788 -0.3473
 5112WAT     H121154   7.061   2.760   2.690 -1.8228 -1.0162  1.0821
 5112WAT     H221155   7.042   2.819   2.812  0.4593  2.6382 -0.1620
 5112WAT    EPW21156   7.089   2.789   2.757  0.2968  0.0686  0.6072
 5113WAT      O21157   5.299   3.599   5.078  0.0619 -0.1768  0.1583
 5113WAT     H121158   5.239   3.555   5.032 -0.9253  0.6069  0.6637
 5113WAT     H221159   5.262   3.606   5.157  0.1247  1.6840  0.0488
 5113WAT    EPW21160   5.284   3.593   5.083 -0.3585  0.2286  0.8964
 5114WAT      O21161   7.462   1.903   0.219  0.5047  0.1405 -0.3445
 5114WAT     H121162   7.423   1.830   0.244  0.0735  0.2689 -0.6237
 5114WAT     H221163   7.404   1.939   0.164  1.0017  0.3479 -0.7426
 5114WAT    EPW21164   7.448   1.898   0.215  0.0625  0.3062 -0.9777
 5115WAT      O21165   6.477   3.806   0.338 -0.0962 -0.5307 -0.7786
 5115WAT     H121166   6.459   3.736   0.387  1.8373 -1.6051 -1.4880
 5115WAT     H221167   6.560   3.794   0.315  0.8604  2.7900  0.3113
 5115WAT    EPW21168   6.486   3.794   0.342  0.7790  0.2988  0.0248
 5116WAT      O21169   7.392   2.634   1.000 -0.2584  0.5021 -0.6257
 5116WAT     H121170   7.346   2.673   1.063 -0.9861 -1.5049  0.1514
 5116WAT     H221171   7.475   2.654   1.020 -0.4340 -0.3797  1.2431
 5116WAT    EPW21172   7.398   2.643   1.012 -0.1852  0.4740  0.1878
 5117WAT      O21173   4.601   0.050   3.278  0.1260 -0.5275  0.0837
 5117WAT     H121174   4.529   0.004   3.295 -0.0192 -1.0495 -1.6915
 5117WAT     H221175   4.666  -0.001   3.305 -0.1103 -0.7176  0.2938
 5117WAT    EPW21176   4.600   0.036   3.284 -0.4488 -0.2402  0.0110
 5118WAT      O21177   3.454   1.516   7.288  0.3947  0.8161 -0.3873
 5118WAT     H121178   3.532   1.478   7.277 -0.2547 -0.1430 -1.9235
 5118WAT     H221179   3.397   1.452   7.272 -0.7481  1.4857  0.7460
 5118WAT    EPW21180   3.457   1.501   7.284  0.3682 -0.4445 -0.1592
 5119WAT      O21181   3.907   2.470   6.645 -0.3251 -0.1110 -0.0475
 5119WAT     H121182   3.954   2.472   6.718 -0.8106  1.3794  0.2483
 5119WAT     H221183   3.854   2.401   6.656  1.5112 -1.6368 -0.2560
 5119WAT    EPW21184   3.906   2.460   6.657  0.0383  0.2057 -0.4879
 5120WAT      O21185   1.688   3.559   0.014  0.1769 -0.2095 -0.0047
 5120WAT     H121186   1.758   3.592   0.055 -0.0291  0.5021 -0.2135
 5120WAT     H221187   1.644   3.519   0.078  1.6804 -2.3274 -0.1670
 5120WAT    EPW21188   1.692   3.558   0.030  0.2678 -0.3419 -0.3927
 5121WAT      O21189   3.259   2.909   2.848  0.1992 -0.4151 -0.2560
 5121WAT     H121190   3.230   2.852   2.788  0.4066  1.0554 -1.8069
 5121WAT     H221191   3.256   2.986   2.807  3.3914  0.2428  0.5015
 5121WAT    EPW21192   3.254   2.912   2.833 -0.3724 -0.3968  0.4309
 5122WAT      O21193   2.260   1.094   1.657 -0.4982  0.1865  0.9093
 5122WAT     H121194   2.300   1.016   1.663 -1.0393 -0.0816  1.2130
 5122WAT     H221195   2.315   1.148   1.697 -0.8922 -0.3714  2.2932
 5122WAT    EPW21196   2.274   1.090   1.664 -0.2374  0.2522 -0.0732
 5123WAT      O21197   5.007   1.331   6.613  0.5802  0.0922 -0.1256
 5123WAT     H121198   5.083   1.373   6.620 -0.4159  1.8844  0.6625
 5123WAT     H221199   5.023   1.254   6.650  1.6343  1.0130  1.4733
 5123WAT    EPW21200   5.020   1.326   6.620 -0.2111 -0.2328  0.3833
 5124WAT      O21201   1.745   4.284   0.748  0.2958  0.3173 -0.2457
 5124WAT     H121202   1.788   4.356   0.723  0.0402  0.5233 -0.1007
 5124WAT     H221203   1.807   4.236   0.787  0.5690  0.2514 -0.7523
 5124WAT    EPW21204   1.761   4.288   0.750  0.0825  0.4494  0.0200
 5125WAT      O21205   2.299   5.924   0.919  0.4851  0.0994  0.2057
 5125WAT     H121206   2.322   5.888   0.995 -1.0865  0.5165  0.9195
 5125WAT     H221207   2.241   5.867   0.887  0.7572  0.1816 -0.4584
 5125WAT    EPW21208   2.294   5.910   0.925  0.7279 -0.1276  0.4148
 5126WAT      O21209   5.429   8.001   2.222  0.4276  0.0789  0.4549
 5126WAT     H121210   5.479   7.966   2.159 -0.9447 -0.9533 -0.1011
 5126WAT     H221211   5.483   8.056   2.262  1.4981  0.3557 -1.2702
 5126WAT    EPW21212   5.445   8.004   2.219  0.6156  0.3339 -0.6377
 5127WAT      O21213   1.898   2.357   4.125 -0.0068 -0.0220 -0.7353
 5127WAT     H121214   1.917   2.401   4.052  0.8356 -1.0629 -1.1813
 5127WAT     H221215   1.975   2.344   4.162 -0.0398 -2.0965 -1.2402
 5127WAT    EPW21216   1.912   2.361   4.120 -0.2531  0.5818  0.1679
 5128WAT      O21217   4.999   5.469   4.545  0.0208  0.2958  0.4644
 5128WAT     H121218   4.960   5.536   4.583 -0.5113  0.0897  0.2813
 5128WAT     H221219   4.962   5.399   4.582  0.3417  0.0999  0.4239
 5128WAT    EPW21220   4.988   5.469   4.556  0.0935  0.2032  0.0819
 5129WAT      O21221   7.720   0.504   3.678  0.0837 -0.0393 -0.2123
 5129WAT     H121222   7.755   0.576   3.711  2.6489 -0.8586 -0.9162
 5129WAT     H221223   7.699   0.457   3.749  0.5149  0.4469  0.2429
 5129WAT    EPW21224   7.722   0.507   3.693  0.0447  0.0163 -0.4536
 5130WAT      O21225   6.847   6.314   2.467 -0.4558  0.2679 -0.6260
 5130WAT     H121226   6.859   6.230   2.448 -0.1331 -0.2611  1.6265
 5130WAT     H221227   6.927   6.349   2.458 -0.5902  0.3772 -1.5618
 5130WAT    EPW21228   6.861   6.307   2.463 -0.0586  0.2511 -0.1937
 5131WAT      O21229   4.082   7.662   3.550  0.2509 -0.0755  0.5663
 5131WAT     H121230   4.036   7.669   3.477  2.6112 -1.0022 -1.1135
 5131WAT     H221231   4.141   7.726   3.545  4.0159 -3.2874 -1.2745
 5131WAT    EPW21232   4.084   7.672   3.539  0.2706  0.0907 -0.2843
 5132WAT      O21233   6.289   2.150   5.098  0.7996  0.2608  0.1778
 5132WAT     H121234   6.208   2.154   5.132  0.5268  1.0169 -0.5065
 5132WAT     H221235   6.337   2.192   5.158  0.9165 -1.2231  1.1607
 5132WAT    EPW21236   6.284   2.157   5.112  0.1779 -0.1218  0.6742
 5133WAT      O21237   1.396   4.762   6.148  0.4430  0.0772  0.5076
 5133WAT     H121238   1.462   4.711   6.174  0.9121  1.6386  2.6623
 5133WAT     H221239   1.365   4.796   6.223  0.1792  2.9353 -0.7680
 5133WAT    EPW21240   1.401   4.759   6.163 -0.1849  0.4861 -0.2527
 5134WAT      O21241   2.333   0.376   5.879  0.0301 -0.8031 -0.8875
 5134WAT     H121242   2.270   0.401   5.934 -0.6006 -1.7409 -1.1560
 5134WAT     H221243   2.395   0.437   5.889 -0.6474 -0.2185 -0.1461
 5134WAT    EPW21244   2.333   0.389   5.889 -0.2983  0.0962  0.3522
 5135WAT      O21245   4.823   4.907   7.560 -0.2998 -0.2568  0.3023
 5135WAT     H121246   4.757   4.851   7.569 -0.2856 -0.2558  0.4035
 5135WAT     H221247   4.855   4.915   7.640  0.9786 -1.6769 -0.0140
 5135WAT    EPW21248   4.818   4.900   7.573  0.0283  0.0676 -0.2328
 5136WAT      O21249   3.221   7.637   5.822  0.3004 -0.5308 -0.7854
 5136WAT     H121250   3.229   7.688   5.892  0.5417 -0.2840 -0.9923
 5136WAT     H221251   3.258   7.562   5.847  1.1644 -0.1654 -0.9340
 5136WAT    EPW21252   3.227   7.633   5.836  0.1067 -0.7754  0.1088
 5137WAT      O21253   4.238   7.904   3.565 -0.6508 -0.1112 -0.1628
 5137WAT     H121254   4.228   7.916   3.651 -1.0241  0.0884 -0.2302
 5137WAT     H221255   4.199   7.974   3.530  2.5313  1.7284 -0.4423
 5137WAT    EPW21256   4.231   7.916   3.573 -0.4404  0.4403  0.3777
 5138WAT      O21257   2.771   3.916   4.059  0.0550 -0.3201  0.0098
 5138WAT     H121258   2.821   3.970   4.105 -3.0458  1.9561  1.0744
 5138WAT     H221259   2.821   3.894   3.991  2.5897  1.3348  1.1847
 5138WAT    EPW21260   2.786   3.920   4.056  0.3425  0.6334  0.1935
 5139WAT      O21261   6.105   4.163   0.016  0.2423 -0.4486  0.0833
 5139WAT     H121262   6.079   4.112  -0.050 -0.0074  0.5716 -0.6343
 5139WAT     H221263   6.159   4.112   0.061 -0.9739 -1.7763  0.1224
 5139WAT    EPW21264   6.109   4.148   0.013 -0.3714 -0.1171  0.1159
 5140WAT      O21265   4.767   3.371   5.315  0.3895 -0.7280 -0.0943
 5140WAT     H121266   4.766   3.288   5.341 -1.2368 -0.7252 -0.0256
 5140WAT     H221267   4.772   3.416   5.390 -3.2341 -0.7397  0.3153
 5140WAT    EPW21268   4.768   3.366   5.330  0.3338  0.0356  0.0629
 5141WAT      O21269   5.362   6.466   5.684 -0.5858 -0.3762 -0.7182
 5141WAT     H121270   5.396   6.423   5.752 -2.1067  0.3646  0.5710
 5141WAT     H221271   5.280   6.484   5.709 -1.0731  0.2690 -2.5959
 5141WAT    EPW21272   5.355   6.463   5.698 -0.1027 -0.4728  0.4939
 5142WAT      O21273   4.668   7.820   3.541  0.1079 -0.0844  0.3128
 5142WAT     H121274   4.596   7.824   3.493 -0.8371  0.4258  1.7135
 5142WAT     H221275   4.652   7.873   3.608  2.1272  0.7051  0.2502
 5142WAT    EPW21276   4.655   7.828   3.544 -0.4089 -0.1945  0.4299
 5143WAT      O21277   4.452   4.002   6.196 -0.3024  0.8219 -0.1106
 5143WAT     H121278   4.413   3.942   6.246 -1.4067  0.1266 -1.7431
 5143WAT     H221279   4.406   4.002   6.122  2.6671  0.0259 -2.1626
 5143WAT    EPW21280   4.439   3.993   6.192 -0.4060 -0.3140  0.0695
 5144WAT      O21281   7.603   7.984   2.005 -0.1021 -0.0078 -0.0170
 5144WAT     H121282   7.658   8.025   1.951  0.5878  3.1821  2.7052
 5144WAT     H221283   7.526   8.020   1.988  0.2472  1.5631  1.4291
 5144WAT    EPW21284   7.600   7.995   1.995  0.9654  0.0523 -0.3162
 5145WAT      O21285   4.512   3.386   5.176  0.0214 -0.2772  0.0555
 5145WAT     H121286   4.482   3.400   5.257 -0.0412 -1.1288  0.1887
 5145WAT     H221287   4.597   3.372   5.188 -0.0150 -0.5584  0.0004
 5145WAT    EPW21288   4.520   3.386   5.190  0.1495 -0.0546 -0.7553
 5146WAT      O21289   2.902   1.610   6.171 -0.3507 -0.2509  0.0872
 5146WAT     H121290   2.927   1.669   6.112  0.1164 -0.0323  0.4914
 5146WAT     H221291   2.974   1.562   6.184  0.1316  0.8558  1.8307
 5146WAT    EPW21292   2.916   1.612   6.165 -0.5501 -0.9188  0.0226
 5147WAT      O21293   5.384   1.211   7.180 -0.5355  0.0988  0.4520
 5147WAT     H121294   5.375   1.128   7.154  0.0651  0.3397 -0.6004
 5147WAT     H221295   5.359   1.257   7.110 -0.4777  0.8124  0.8863
 5147WAT    EPW21296   5.379   1.206   7.166 -0.5485 -0.3080 -0.2780
 5148WAT      O21297   3.154   0.134   4.030 -0.0357  0.0247 -0.2340
 5148WAT     H121298   3.139   0.051   4.006 -2.4279  0.1261  0.6428
 5148WAT     H221299   3.196   0.168   3.961 -1.1718 -1.3021 -1.6503
 5148WAT    EPW21300   3.158   0.127   4.016 -0.6894  0.4207 -0.1252
 5149WAT      O21301   5.144   0.568   4.828  0.0206  0.2458  0.0773
 5149WAT     H121302   5.146   0.523   4.753  1.1084 -0.2310  0.3820
 5149WAT     H221303   5.211   0.623   4.820  0.0927  0.2448  0.6768
 5149WAT    EPW21304   5.154   0.570   4.816  0.2375 -0.0824 -0.1296
 5150WAT      O21305   2.576   3.588   4.971  0.1224 -0.0765  0.4083
 5150WAT     H121306   2.573   3.675   4.980  0.3233 -0.0596  0.3150
 5150WAT     H221307   2.561   3.559   5.052 -1.6125  0.0062  0.1571
 5150WAT    EPW21308   2.574   3.597   4.984  0.4334  0.0646 -0.2378
 5151WAT      O21309   3.420   2.457   0.873  0.2606 -0.3408 -0.4776
 5151WAT     H121310   3.416   2.519   0.934 -0.0645 -0.1855 -0.6539
 5151WAT     H221311   3.339   2.423   0.874 -0.0889  0.4033 -1.5983
 5151WAT    EPW21312   3.407   2.461   0.882 -0.2423  0.1776  0.2204
 5152WAT      O21313   3.563   0.474   4.200 -0.1107  0.4288  0.5252
 5152WAT     H121314   3.623   0.434   4.249  2.3548  3.2576  0.0819
 5152WAT     H221315   3.512   0.514   4.258 -0.2705 -0.2244  0.8459
 5152WAT    EPW21316   3.564   0.474   4.216  0.1287  0.1807  0.8380
 5153WAT      O21317   5.761   4.352   4.357  0.5923  0.0166 -0.9365
 5153WAT     H121318   5.764   4.293   4.292  1.7942 -0.9742 -0.0470
 5153WAT     H221319   5.806   4.313   4.421  3.1638  2.6209 -0.9253
 5153WAT    EPW21320   5.768   4.337   4.357 -0.3748 -0.1282  0.1466
 5154WAT      O21321   7.394   7.245   4.103 -0.2444 -0.4015  0.1445
 5154WAT     H121322   7.441   7.210   4.039 -0.0284  0.1433 -0.0051
 5154WAT     H221323   7.322   7.275   4.062  0.2984  0.7490 -0.0129
 5154WAT    EPW21324   7.390   7.244   4.088  0.7119  0.4529  0.4690
 5155WAT      O21325   4.739   2.311   4.409  0.1781  0.0688  0.0139
 5155WAT     H121326   4.666   2.331   4.453  0.9388  0.9306  0.9396
 5155WAT     H221327   4.778   2.388   4.398  0.4810 -0.2600 -1.3618
 5155WAT    EPW21328   4.734   2.325   4.414  0.1012  0.3547 -0.2191
 5156WAT      O21329   7.971   2.931   2.184  0.4341  0.4435 -0.2818
 5156WAT     H121330   7.918   2.922   2.116  0.4566  1.0925 -0.3961
 5156WAT     H221331   7.985   3.017   2.188 -0.0276  0.4846  0.8931
 5156WAT    EPW21332   7.965   2.942   2.174  0.1625 -0.2512 -0.4268
 5157WAT      O21333   6.276   1.947   4.588  0.3262  0.1147  0.0334
 5157WAT     H121334   6.269   1.905   4.664  0.1339  0.5575  0.2680
 5157WAT     H221335   6.229   2.020   4.600  0.7488  0.4564 -0.3175
 5157WAT    EPW21336   6.268   1.952   4.601 -0.2059  1.0360 -0.0870
 5158WAT      O21337   6.914   6.608   1.169  0.0761 -0.0331 -0.8473
 5158WAT     H121338   6.922   6.643   1.249  2.3697  1.2265 -1.5307
 5158WAT     H221339   6.956   6.531   1.176  1.3265  0.5974 -1.0738
 5158WAT    EPW21340   6.921   6.602   1.182 -0.4324  0.6067 -0.0818
 5159WAT      O21341   4.406   1.204   0.503  0.3702  0.0336  0.0789
 5159WAT     H121342   4.372   1.275   0.540  0.3181 -0.4930  1.0668
 5159WAT     H221343   4.336   1.164   0.468  0.0226 -0.6738  1.4842
 5159WAT    EPW21344   4.391   1.208   0.503 -0.1680 -0.2117  0.5725
 5160WAT      O21345   7.662   1.996   4.118  1.0013 -0.2982 -0.0051
 5160WAT     H121346   7.709   1.941   4.167  0.8005 -1.6984 -1.2922
 5160WAT     H221347   7.587   2.005   4.162  1.0621 -1.0263  0.2616
 5160WAT    EPW21348   7.658   1.989   4.132 -0.3721  0.0573  0.3196
 5161WAT      O21349   1.601   1.983   5.067 -0.3622 -0.0038 -0.5038
 5161WAT     H121350   1.603   2.063   5.101  0.4969  0.0180 -0.5813
 5161WAT     H221351   1.519   1.956   5.081 -0.0061 -0.0627  1.6912
 5161WAT    EPW21352   1.589   1.990   5.074  0.1717  0.2450 -0.1985
 5162WAT      O21353   5.360   7.123   7.646 -0.0538 -1.0456  0.3823
 5162WAT     H121354   5.389   7.071   7.709  0.0298 -0.8134  0.5350
 5162WAT     H221355   5.378   7.203   7.675  0.5605 -0.9585 -0.2085
 5162WAT    EPW21356   5.367   7.127   7.659 -0.0627  0.0848  0.9263
 5163WAT      O21357   5.520   0.594   2.419  0.0469  0.1243  0.5699
 5163WAT     H121358   5.562   0.538   2.366 -0.8439  0.5393 -0.6251
 5163WAT     H221359   5.438   0.565   2.418  0.1146 -0.2117  2.2505
 5163WAT    EPW21360   5.514   0.581   2.411  0.1368 -0.2467 -0.1765
 5164WAT      O21361   5.623   2.611   6.813  0.9417  0.0143  0.8827
 5164WAT     H121362   5.612   2.606   6.726 -0.2923 -0.2500  1.0263
 5164WAT     H221363   5.590   2.689   6.834  0.8179 -0.1119  1.1669
 5164WAT    EPW21364   5.616   2.622   6.803  0.0626  0.1557 -0.2972
 5165WAT      O21365   2.822   7.333   2.529 -0.7382 -0.2498  0.0047
 5165WAT     H121366   2.897   7.371   2.506 -0.4315 -2.0066 -2.3249
 5165WAT     H221367   2.840   7.298   2.607 -0.1599  1.8263  0.8781
 5165WAT    EPW21368   2.836   7.333   2.537  0.0231  0.4409 -0.2267
 5166WAT      O21369   4.994   2.991   0.152  0.2302 -0.2131  0.2612
 5166WAT     H121370   4.935   2.982   0.088  1.2945  1.4119 -1.0246
 5166WAT     H221371   5.070   2.997   0.109  0.8415  2.2656  1.5435
 5166WAT    EPW21372   4.996   2.990   0.136  0.2658  0.1273 -0.4005
 5167WAT      O21373   4.554   4.791   7.590 -0.2484  0.1372 -0.2451
 5167WAT     H121374   4.597   4.721   7.561  3.0204  2.8032 -2.5492
 5167WAT     H221375   4.488   4.799   7.533 -0.4843 -0.8184 -0.1328
 5167WAT    EPW21376   4.551   4.782   7.577  0.2425 -0.5797 -0.2729
 5168WAT      O21377   2.019   2.712   2.580 -0.3654  0.0130 -0.1408
 5168WAT     H121378   1.993   2.697   2.662 -1.5571  2.4333  0.0022
 5168WAT     H221379   1.955   2.677   2.532  0.4356 -1.5924 -0.0939
 5168WAT    EPW21380   2.005   2.705   2.585 -0.4595  0.0480 -0.1519
 5169WAT      O21381   7.750   1.990   4.607  0.1789  0.7258  0.3228
 5169WAT     H121382   7.832   2.008   4.634  0.2116  0.6851  0.2501
 5169WAT     H221383   7.749   2.023   4.526  0.5249 -0.4187 -0.1586
 5169WAT    EPW21384   7.762   1.998   4.599 -0.2733  0.4823 -0.2517
 5170WAT      O21385   6.123   2.871   7.174  0.2478  0.3445 -0.8060
 5170WAT     H121386   6.195   2.877   7.223 -0.1598 -0.7836 -0.0381
 5170WAT     H221387   6.148   2.905   7.097  1.4242  0.4903 -0.3776
 5170WAT    EPW21388   6.138   2.877   7.170 -0.1358 -0.6640 -0.0274
 5171WAT      O21389   5.517   2.987   3.205 -0.1853  0.2018  0.1941
 5171WAT     H121390   5.431   2.996   3.209 -0.2353 -0.3263  0.4773
 5171WAT     H221391   5.536   2.938   3.275  0.5582  1.7748  1.1402
 5171WAT    EPW21392   5.507   2.981   3.216  0.0285 -0.3044 -0.1828
 5172WAT      O21393   6.020   3.897   7.969  0.1112  0.5608 -0.3379
 5172WAT     H121394   6.055   3.870   7.894  1.3660 -0.9335  0.6993
 5172WAT     H221395   5.934   3.887   7.957  0.4013 -2.6544 -0.5999
 5172WAT    EPW21396   6.013   3.892   7.956 -0.0930  0.0023  0.2227
 5173WAT      O21397   3.179   5.891   0.700 -0.1790 -0.1093  0.0398
 5173WAT     H121398   3.118   5.859   0.754  1.6054  0.4049  2.5154
 5173WAT     H221399   3.242   5.831   0.702  0.2494  0.2754 -0.9707
 5173WAT    EPW21400   3.179   5.877   0.708 -0.0633 -0.5447 -0.1057
 5174WAT      O21401   3.021   1.514   5.519  0.0374  0.0970  0.4373
 5174WAT     H121402   3.094   1.557   5.500 -0.6768  2.2137  1.9501
 5174WAT     H221403   2.976   1.516   5.444  0.2077  1.7582  0.3307
 5174WAT    EPW21404   3.025   1.521   5.505  0.1459  0.1467 -0.2751
 5175WAT      O21405   4.639   1.492   5.201  0.7732  0.0704  0.0353
 5175WAT     H121406   4.635   1.412   5.165 -2.0592  0.2259 -0.2154
 5175WAT     H221407   4.703   1.531   5.156 -0.3115 -0.8743 -2.5072
 5175WAT    EPW21408   4.648   1.486   5.189  0.2004  0.6582 -0.3731
 5176WAT      O21409   6.750   6.343   3.313 -0.2592 -0.3835  0.0283
 5176WAT     H121410   6.747   6.256   3.318  1.5535 -0.4144  1.3594
 5176WAT     H221411   6.751   6.358   3.227  0.8318 -1.7696 -0.2401
 5176WAT    EPW21412   6.750   6.332   3.301 -0.1771 -0.2655 -0.3775
 5177WAT      O21413   3.384   7.741   7.398  0.2624 -1.0625  0.4182
 5177WAT     H121414   3.323   7.803   7.403 -0.2517 -1.5319  0.0529
 5177WAT     H221415   3.415   7.749   7.317  0.4403 -1.0569  0.4856
 5177WAT    EPW21416   3.380   7.751   7.387  0.1360  0.3725  0.4185
 5178WAT      O21417   8.033   7.577   2.594  0.1521 -0.3960 -0.6571
 5178WAT     H121418   8.094   7.548   2.648  0.1996  0.3456 -0.2879
 5178WAT     H221419   7.958   7.549   2.630  0.0577  1.5264  0.7890
 5178WAT    EPW21420   8.031   7.569   2.607 -0.1227 -0.3602 -0.3779
 5179WAT      O21421   5.433   0.472   5.566 -0.1681 -0.0222  0.3995
 5179WAT     H121422   5.367   0.529   5.563 -0.6641 -0.5731  0.6936
 5179WAT     H221423   5.396   0.396   5.544  0.7327 -0.0323 -1.2456
 5179WAT    EPW21424   5.418   0.469   5.562  0.4156  0.1740 -0.6918
 5180WAT      O21425   6.854   4.814   0.646  0.2557 -0.3580  0.2970
 5180WAT     H121426   6.901   4.746   0.673 -0.3878 -0.6079  0.8304
 5180WAT     H221427   6.787   4.778   0.604  0.8114  0.0099 -0.9557
 5180WAT    EPW21428   6.851   4.799   0.644  0.2259 -0.1010 -0.1879
 5181WAT      O21429   3.634   1.524   2.156 -0.2394  0.0261 -0.3035
 5181WAT     H121430   3.663   1.442   2.168 -0.1642  0.0018 -0.6528
 5181WAT     H221431   3.613   1.550   2.237  0.2026 -0.1628 -0.1254
 5181WAT    EPW21432   3.635   1.516   2.170  0.9729  0.0193  0.1720
 5182WAT      O21433   0.049   4.599   4.029 -0.1627  0.7700  0.2198
 5182WAT     H121434   0.123   4.643   4.024  0.1404  0.2316 -0.1544
 5182WAT     H221435   0.008   4.617   3.954  0.6805 -0.8091 -0.6769
 5182WAT    EPW21436   0.054   4.608   4.017 -0.1304  0.3332  0.2968
 5183WAT      O21437   4.570   7.047   5.613  0.6541 -0.1222 -0.2201
 5183WAT     H121438   4.521   7.115   5.589 -1.6381 -1.0790  1.4317
 5183WAT     H221439   4.650   7.081   5.620 -0.2864  2.2547 -0.0397
 5183WAT    EPW21440   4.574   7.062   5.610 -0.0675  0.3966  0.5504
 5184WAT      O21441   2.681   1.023   5.249  0.2570 -0.3016  0.0467
 5184WAT     H121442   2.622   1.010   5.312  2.3589 -3.3507  1.6645
 5184WAT     H221443   2.736   1.081   5.283  1.5342 -2.1385  1.2997
 5184WAT    EPW21444   2.680   1.030   5.263  0.5989  0.1069 -0.3760
 5185WAT      O21445   1.624   7.131   2.280  0.4007  0.1260  0.1827
 5185WAT     H121446   1.584   7.111   2.355  1.6356 -0.2559  0.7585
 5185WAT     H221447   1.617   7.058   2.233  0.4630  0.0413  0.3036
 5185WAT    EPW21448   1.617   7.117   2.284 -0.4005  0.0599  0.2160
 5186WAT      O21449   4.781   2.560   0.666  0.3064 -0.0498  0.4532
 5186WAT     H121450   4.740   2.604   0.729  0.1848 -0.7830  0.9002
 5186WAT     H221451   4.750   2.479   0.674  1.8335 -0.6448  0.8387
 5186WAT    EPW21452   4.771   2.555   0.677  0.4534 -0.1041 -0.1254
 5187WAT      O21453   4.354   5.038   5.387  0.1140 -0.8316  0.1901
 5187WAT     H121454   4.398   5.034   5.463 -1.4695 -0.1574  1.1937
 5187WAT     H221455   4.298   4.972   5.392 -2.0697  0.9462  1.0477
 5187WAT    EPW21456   4.352   5.028   5.399  0.9022 -0.4186 -0.0692
 5188WAT      O21457   6.786   1.543   1.705  0.1687  0.1753  0.4183
 5188WAT     H121458   6.862   1.499   1.703  0.0402 -0.1435  1.7669
 5188WAT     H221459   6.745   1.516   1.633  1.6699  1.0181 -0.8332
 5188WAT    EPW21460   6.791   1.533   1.694  0.3712 -0.3871 -0.0818
 5189WAT      O21461   6.229   3.950   4.815  0.7430 -0.3511 -0.0841
 5189WAT     H121462   6.187   3.909   4.880  0.2772 -1.5720 -1.1260
 5189WAT     H221463   6.171   4.011   4.789 -0.2047 -1.6377 -1.1224
 5189WAT    EPW21464   6.214   3.953   4.821 -0.6281 -0.9096 -0.4967
 5190WAT      O21465   2.800   5.547   3.929 -0.1974  0.5133  0.2567
 5190WAT     H121466   2.808   5.556   4.016  0.4875 -1.8764  0.4936
 5190WAT     H221467   2.882   5.547   3.901 -0.4267  1.7118 -0.4926
 5190WAT    EPW21468   2.813   5.548   3.938 -0.3875 -0.0790  0.5211
 5191WAT      O21469   0.889   6.624   4.382 -0.2551  0.0843 -0.0170
 5191WAT     H121470   0.817   6.592   4.345  1.4762 -0.6248 -3.1184
 5191WAT     H221471   0.932   6.552   4.408 -0.2454  0.4575  1.0607
 5191WAT    EPW21472   0.885   6.608   4.381  0.5790  0.4574  0.0874
 5192WAT      O21473   3.674   1.774   6.609 -0.1275 -0.2124  0.2877
 5192WAT     H121474   3.609   1.801   6.557 -0.1955 -0.4290  0.2574
 5192WAT     H221475   3.636   1.714   6.659 -0.0957  0.0920  0.6830
 5192WAT    EPW21476   3.659   1.769   6.608  0.3731 -0.1302  0.0624
 5193WAT      O21477   5.580   1.085   2.209 -0.1238  0.1684 -0.5659
 5193WAT     H121478   5.539   1.134   2.268 -0.1219  0.5065 -0.8424
 5193WAT     H221479   5.531   1.093   2.138  0.1455  0.1661 -0.7535
 5193WAT    EPW21480   5.567   1.093   2.207  0.1920  0.5927  0.3543
 5194WAT      O21481   1.442   1.723   5.428  0.4643  0.3225  0.6552
 5194WAT     H121482   1.498   1.658   5.447 -0.4772 -0.7050  0.0686
 5194WAT     H221483   1.391   1.688   5.366 -1.8371  0.6153  2.2594
 5194WAT    EPW21484   1.443   1.708   5.422 -0.3700  0.1446 -0.1087
 5195WAT      O21485   0.164   0.509   4.543 -0.2062 -0.0232  0.3473
 5195WAT     H121486   0.126   0.508   4.464 -2.9735  0.5925  1.5655
 5195WAT     H221487   0.129   0.579   4.582  2.0570  0.4508  1.7365
 5195WAT    EPW21488   0.153   0.519   4.537 -0.6150  0.1409  0.2383
 5196WAT      O21489   2.610   6.851   6.106  0.3002  0.5036  0.7525
 5196WAT     H121490   2.685   6.808   6.122 -0.3421 -1.0571 -0.1675
 5196WAT     H221491   2.613   6.864   6.020 -0.5366  0.2845  0.6809
 5196WAT    EPW21492   2.622   6.846   6.095 -0.8932  0.5349  0.2569
 5197WAT      O21493   2.566   0.228   4.581  0.4067 -0.0108 -0.1995
 5197WAT     H121494   2.577   0.221   4.495 -0.8103  0.7584 -0.4408
 5197WAT     H221495   2.648   0.230   4.612  0.8944  1.0437 -1.4513
 5197WAT    EPW21496   2.580   0.228   4.573 -0.2625  0.2365 -0.2443
 5198WAT      O21497   3.028   3.138   7.943 -0.1852  0.6070  0.2761
 5198WAT     H121498   3.083   3.205   7.947  0.5438  0.3979 -3.1530
 5198WAT     H221499   2.951   3.175   7.927 -0.2942  0.7028  0.9853
 5198WAT    EPW21500   3.025   3.153   7.941 -0.2597 -0.1055 -0.5888
 5199WAT      O21501   6.013   3.190   4.763 -0.5877  0.2336 -0.6154
 5199WAT     H121502   5.997   3.253   4.821  0.7081  0.6112 -0.6310
 5199WAT     H221503   6.027   3.119   4.812  1.1149  0.6839 -0.3729
 5199WAT    EPW21504   6.013   3.189   4.779  0.2790  0.6690 -0.0332
 5200WAT      O21505   5.054   1.894   5.296  0.2164  0.6756  0.0528
 5200WAT     H121506   4.979   1.889   5.251  1.0339 -1.1528 -1.2261
 5200WAT     H221507   5.114   1.902   5.233  1.2496 -0.1384  0.9053
 5200WAT    EPW21508   5.052   1.894   5.280  0.3562 -0.6228 -0.1867
 5201WAT      O21509   5.821   1.111   5.021 -0.7101 -0.3233  0.0393
 5201WAT     H121510   5.868   1.181   4.999 -0.9565  0.0003  0.5334
 5201WAT     H221511   5.856   1.047   4.973  1.3260 -0.4517  1.5271
 5201WAT    EPW21512   5.833   1.112   5.011 -0.2053 -0.2289  0.2898
 5202WAT      O21513   4.295   1.710   3.155 -0.2139 -0.4007  0.1202
 5202WAT     H121514   4.309   1.667   3.229  1.0109  2.1510  1.5210
 5202WAT     H221515   4.361   1.685   3.104 -0.0808 -0.8949  0.5247
 5202WAT    EPW21516   4.307   1.700   3.158 -0.3830 -0.6285  0.1985
 5203WAT      O21517   2.312   0.750   6.110  0.7280 -0.6491  0.1583
 5203WAT     H121518   2.347   0.825   6.139 -0.2756  0.0570 -0.4190
 5203WAT     H221519   2.229   0.755   6.136  0.8482 -1.9822  0.8799
 5203WAT    EPW21520   2.305   0.762   6.118  0.1455 -0.4734 -0.1100
 5204WAT      O21521   6.139   2.022   5.874 -0.0719  0.3512 -0.0469
 5204WAT     H121522   6.114   2.050   5.953 -1.1502 -0.5019 -0.0549
 5204WAT     H221523   6.066   2.026   5.827 -0.8618 -3.8476  0.3796
 5204WAT    EPW21524   6.125   2.027   5.879  0.2993 -0.3893  0.6146
 5205WAT      O21525   4.762   0.059   7.450  0.5201 -0.2748 -0.4604
 5205WAT     H121526   4.765   0.145   7.463  0.9492 -0.3516 -0.0491
 5205WAT     H221527   4.717   0.029   7.519 -0.6889 -0.2590 -1.2136
 5205WAT    EPW21528   4.756   0.067   7.462 -0.3110 -0.1027  0.4904
 5206WAT      O21529   3.498   1.547   7.863  0.2961  0.8447 -0.1425
 5206WAT     H121530   3.417   1.569   7.838  0.3310 -0.1578 -1.1957
 5206WAT     H221531   3.485   1.495   7.932  0.0068  0.2346 -0.6487
 5206WAT    EPW21532   3.484   1.543   7.870 -0.1257  0.4883 -0.3429
 5207WAT      O21533   6.249   5.929   2.577  0.3113  0.2807  0.8812
 5207WAT     H121534   6.320   5.974   2.555 -0.8694  1.4476 -0.7487
 5207WAT     H221535   6.274   5.846   2.567  1.9882  0.5913  2.2013
 5207WAT    EPW21536   6.263   5.923   2.572  0.5680 -0.4122 -0.3906
 5208WAT      O21537   3.910   7.587   3.788  0.3138 -0.0842 -0.2534
 5208WAT     H121538   3.885   7.662   3.825  2.5043 -0.0349  1.3573
 5208WAT     H221539   3.958   7.614   3.720 -0.3863 -0.0815 -0.7519
 5208WAT    EPW21540   3.914   7.602   3.783 -0.3841  0.0197 -0.3969
 5209WAT      O21541   3.701   7.484   0.548  0.0012 -0.4391  0.2967
 5209WAT     H121542   3.665   7.485   0.468 -0.2375 -0.9161  0.3953
 5209WAT     H221543   3.697   7.568   0.573  0.6325 -0.1784 -0.4367
 5209WAT    EPW21544   3.695   7.497   0.540 -0.0428  0.2439 -0.3599
 5210WAT      O21545   0.392   2.121   3.791 -0.1881  0.4049 -0.2439
 5210WAT     H121546   0.361   2.046   3.825 -0.8957 -0.1771 -2.0392
 5210WAT     H221547   0.326   2.177   3.804 -0.9719 -0.1341 -1.6517
 5210WAT    EPW21548   0.378   2.118   3.798 -0.4834  0.3720 -0.4774
 5211WAT      O21549   1.222   6.948   3.204  0.1266  0.0379 -0.2785
 5211WAT     H121550   1.194   6.997   3.270  2.3139  0.8591  0.1481
 5211WAT     H221551   1.166   6.881   3.202 -1.1684  1.0266  1.0901
 5211WAT    EPW21552   1.210   6.945   3.214  0.1778 -0.1265  0.1402
 5212WAT      O21553   2.914   4.727   4.863  0.4858  0.2865 -0.2705
 5212WAT     H121554   2.945   4.711   4.943  2.0133  0.0649 -0.8623
 5212WAT     H221555   2.829   4.740   4.876  0.7377  0.5061  1.4179
 5212WAT    EPW21556   2.906   4.727   4.877  0.0477  0.7790 -0.1569
 5213WAT      O21557   3.109   7.803   8.020 -0.3333 -0.3427  0.2590
 5213WAT     H121558   3.089   7.878   8.060  0.1924  0.4490 -0.9120
 5213WAT     H221559   3.031   7.768   8.003 -0.6592  0.6561 -0.4492
 5213WAT    EPW21560   3.094   7.809   8.023 -0.0534 -0.3660 -0.2926
 5214WAT      O21561   2.618   5.422   3.391  0.8190 -0.2024 -0.0798
 5214WAT     H121562   2.579   5.356   3.433 -0.5343  1.6892  1.8003
 5214WAT     H221563   2.702   5.411   3.411  0.5713 -1.1050  0.5586
 5214WAT    EPW21564   2.625   5.410   3.400 -0.1702  0.1953  0.1741
 5215WAT      O21565   3.871   3.623   1.489 -0.2855  0.0913 -0.4698
 5215WAT     H121566   3.911   3.679   1.435 -1.6805 -0.9876 -2.8096
 5215WAT     H221567   3.857   3.669   1.561 -0.5892  2.4911 -1.9628
 5215WAT    EPW21568   3.875   3.638   1.491  0.2242 -0.8044  0.0486
 5216WAT      O21569   6.120   3.495   6.553 -0.5010  0.3195  0.4873
 5216WAT     H121570   6.039   3.525   6.541  0.3862  3.0729  0.6660
 5216WAT     H221571   6.126   3.486   6.639 -0.2329  1.3315  0.5763
 5216WAT    EPW21572   6.109   3.498   6.564 -0.4022 -1.2081  0.0887
 5217WAT      O21573   3.862   1.324   5.578 -0.1837  0.4034 -0.0903
 5217WAT     H121574   3.848   1.394   5.528  0.9088 -0.6337 -1.9621
 5217WAT     H221575   3.949   1.320   5.583 -0.2066 -1.1305 -0.5293
 5217WAT    EPW21576   3.873   1.334   5.572 -0.1653 -0.2249 -0.3339
 5218WAT      O21577   5.718   0.301   0.756 -0.8192 -0.2206  0.8410
 5218WAT     H121578   5.718   0.388   0.759  1.2047 -0.1692  0.7125
 5218WAT     H221579   5.684   0.278   0.834  0.3030  0.7182  1.6482
 5218WAT    EPW21580   5.713   0.310   0.768 -0.2168 -0.6434  0.2185
 5219WAT      O21581   1.843   6.035   5.332  0.0437 -0.1475 -0.3628
 5219WAT     H121582   1.762   6.063   5.345 -0.1389 -0.8248  0.0246
 5219WAT     H221583   1.862   5.991   5.405  1.8330  2.3947  0.8492
 5219WAT    EPW21584   1.834   6.033   5.345 -0.2900 -0.6492 -0.6669
 5220WAT      O21585   2.342   1.049   0.845  0.6906 -0.0422 -0.3364
 5220WAT     H121586   2.310   0.970   0.827 -0.9037  0.6045 -0.4479
 5220WAT     H221587   2.399   1.033   0.910 -0.4281 -1.1547  0.4180
 5220WAT    EPW21588   2.346   1.035   0.852 -0.4219 -0.0090  0.5830
 5221WAT      O21589   6.203   7.651   1.920  0.3391 -0.2504  0.0608
 5221WAT     H121590   6.279   7.688   1.938  0.4861 -0.8225  0.6187
 5221WAT     H221591   6.200   7.652   1.833  0.8097  0.1132  0.0474
 5221WAT    EPW21592   6.213   7.657   1.910 -0.2485  0.7012  0.0719
 5222WAT      O21593   3.607   2.063   4.501  0.3968  0.3335 -0.3057
 5222WAT     H121594   3.561   2.092   4.569  0.0939 -3.4583  1.3180
 5222WAT     H221595   3.545   2.043   4.442  0.3697  0.2121 -0.2368
 5222WAT    EPW21596   3.591   2.064   4.502 -1.2000 -0.5667  0.2593
 5223WAT      O21597   1.160   1.320   1.625 -0.3118  0.5271  0.2191
 5223WAT     H121598   1.240   1.293   1.647 -0.5308  0.4119  0.8934
 5223WAT     H221599   1.133   1.363   1.696 -2.0718 -2.1214  1.2744
 5223WAT    EPW21600   1.168   1.322   1.638 -0.3701  0.1747 -0.5175
 5224WAT      O21601   5.948   2.701   5.663  0.3432 -0.0870 -0.1502
 5224WAT     H121602   6.023   2.694   5.707  0.3449 -0.7136 -0.2456
 5224WAT     H221603   5.887   2.705   5.726  0.3757 -0.6101 -0.0820
 5224WAT    EPW21604   5.950   2.700   5.679  0.1710 -0.5317  0.3924
 5225WAT      O21605   5.361   2.263   5.803 -0.2420 -0.1858 -0.2488
 5225WAT     H121606   5.368   2.283   5.719  0.4865  0.2989 -0.0867
 5225WAT     H221607   5.289   2.305   5.828  1.3173  2.4777  0.1074
 5225WAT    EPW21608   5.352   2.272   5.795  0.2669  0.4479 -0.1968
 5226WAT      O21609   4.606   2.056   3.689  0.6383 -0.0058  0.0318
 5226WAT     H121610   4.605   2.144   3.690 -0.1939  0.0039 -0.4833
 5226WAT     H221611   4.561   2.036   3.617  1.1226 -0.8626 -0.0470
 5226WAT    EPW21612   4.599   2.066   3.678 -0.5536  0.3473 -0.2584
 5227WAT      O21613   3.697   1.133   4.150 -0.1851  0.7263  0.3496
 5227WAT     H121614   3.774   1.100   4.127 -0.0214  1.1196  0.3154
 5227WAT     H221615   3.676   1.185   4.082 -0.5374  0.5244  0.3010
 5227WAT    EPW21616   3.705   1.136   4.136 -0.1863  0.3313  0.3350
 5228WAT      O21617   6.218   5.695   2.836  0.1616 -0.2731 -0.3438
 5228WAT     H121618   6.165   5.651   2.782  0.1233 -0.1297 -0.4244
 5228WAT     H221619   6.294   5.698   2.793  0.5244 -1.3125  0.1809
 5228WAT    EPW21620   6.221   5.689   2.822  0.3160  0.0040 -0.4854
 5229WAT      O21621   5.195   5.583   5.188 -0.3595  0.2309 -0.3479
 5229WAT     H121622   5.200   5.583   5.101  0.9624  0.0114 -0.2931
 5229WAT     H221623   5.196   5.667   5.209 -1.3890  0.3104 -0.5578
 5229WAT    EPW21624   5.196   5.595   5.178 -0.2996 -0.1782  0.3962
 5230WAT      O21625   4.491   3.558   6.055  0.6429  0.2472 -0.0852
 5230WAT     H121626   4.444   3.628   6.079  1.4399  0.6983  0.2032
 5230WAT     H221627   4.477   3.553   5.969 -1.7706 -1.0370  0.2893
 5230WAT    EPW21628   4.482   3.568   6.046 -0.2216 -0.6122 -0.2585
 5231WAT      O21629   6.199   1.241   2.694 -0.1184 -0.1691  0.2083
 5231WAT     H121630   6.276   1.274   2.669 -0.1518  0.2460  0.6229
 5231WAT     H221631   6.141   1.297   2.662 -0.1500  0.4917  1.3635
 5231WAT    EPW21632   6.202   1.254   2.686 -0.5215 -0.1934 -0.8957
 5232WAT      O21633   5.000   7.350   1.898 -0.0593  0.9042 -0.3287
 5232WAT     H121634   5.034   7.313   1.827  0.6508 -0.0284  0.4723
 5232WAT     H221635   5.065   7.400   1.928  0.5879 -0.7310  1.1009
 5232WAT    EPW21636   5.015   7.352   1.892  0.2109 -0.2365  0.3607
 5233WAT      O21637   4.103   0.724   1.367  0.7595 -0.3354  0.3622
 5233WAT     H121638   4.073   0.651   1.403  0.6896 -0.5472 -0.1121
 5233WAT     H221639   4.173   0.744   1.415 -0.0381  0.0770  1.3831
 5233WAT    EPW21640   4.109   0.716   1.379  0.5320 -0.3403 -0.0709
 5234WAT      O21641   4.981   1.510   3.399  0.1842 -0.6203  0.2359
 5234WAT     H121642   4.973   1.484   3.482  1.1821 -1.6110  0.0396
 5234WAT     H221643   4.932   1.582   3.396 -0.7579 -1.1598  1.4103
 5234WAT    EPW21644   4.972   1.516   3.411 -0.3505  0.1813 -0.4603
 5235WAT      O21645   0.823   2.830   3.628 -0.1387 -0.0951  0.1820
 5235WAT     H121646   0.795   2.912   3.623  2.9681  1.0261 -2.3424
 5235WAT     H221647   0.906   2.838   3.652  0.0738 -2.5833  0.5478
 5235WAT    EPW21648   0.831   2.843   3.631  0.2157  0.0875  0.3782
 5236WAT      O21649   5.449   1.765   7.623 -0.1697 -0.0754 -0.2708
 5236WAT     H121650   5.431   1.794   7.543  1.5692  0.7224 -0.4198
 5236WAT     H221651   5.495   1.693   7.608  0.1072  0.0427  0.0091
 5236WAT    EPW21652   5.453   1.759   7.609 -0.3854 -0.3672  0.3323
 5237WAT      O21653   6.580   7.395   4.174  0.7119 -0.3437  0.4058
 5237WAT     H121654   6.550   7.337   4.231 -1.6195  0.3987  0.0496
 5237WAT     H221655   6.515   7.404   4.117  2.3672  0.0356 -1.5717
 5237WAT    EPW21656   6.566   7.388   4.174  0.2512  0.0884  0.4695
 5238WAT      O21657   3.409   1.793   5.321 -0.1429 -0.0843 -0.1566
 5238WAT     H121658   3.492   1.799   5.349  0.3431  1.4680 -1.7098
 5238WAT     H221659   3.386   1.876   5.309 -3.0494 -0.2556  3.0524
 5238WAT    EPW21660   3.418   1.806   5.323 -0.3400  0.0455 -0.5124
 5239WAT      O21661   4.095   1.429   7.208 -0.1318  0.6300  0.7497
 5239WAT     H121662   4.064   1.397   7.283 -1.4181  1.1772  0.4744
 5239WAT     H221663   4.168   1.469   7.232  0.3095 -0.5443  1.4545
 5239WAT    EPW21664   4.101   1.430   7.223  0.2847  0.0883  0.2134
 5240WAT      O21665   5.881   1.141   1.988  0.2699  0.5942  0.5662
 5240WAT     H121666   5.867   1.114   2.069  1.3839  0.3697  0.7021
 5240WAT     H221667   5.821   1.203   1.976  0.1838  0.7290  1.6145
 5240WAT    EPW21668   5.870   1.146   1.998  0.0339 -0.1245 -0.5536
 5241WAT      O21669   1.672   1.760   4.385  0.0994  0.7122 -0.2132
 5241WAT     H121670   1.745   1.747   4.432 -0.0662 -0.4404 -0.2439
 5241WAT     H221671   1.675   1.696   4.325 -0.7777  0.8446 -0.4109
 5241WAT    EPW21672   1.683   1.749   4.383 -0.7334  0.2889 -0.3516
 5242WAT      O21673   2.155   4.839   3.047  0.1986 -0.0924  0.1782
 5242WAT     H121674   2.139   4.842   2.961  0.1763 -1.2237  0.1205
 5242WAT     H221675   2.239   4.858   3.053  0.4757 -1.0861 -0.2272
 5242WAT    EPW21676   2.165   4.842   3.035 -0.9646 -0.6842  0.1343
 5243WAT      O21677   5.115   2.362   4.164  0.1538 -0.1881 -0.0694
 5243WAT     H121678   5.136   2.447   4.158 -0.0664 -0.1906 -0.8971
 5243WAT     H221679   5.193   2.323   4.168  0.2699 -0.0236 -0.7244
 5243WAT    EPW21680   5.130   2.369   4.164  0.5823 -0.2939 -0.0680
 5244WAT      O21681   6.534   4.067   3.281  0.8289 -0.0220 -0.1460
 5244WAT     H121682   6.487   4.062   3.354 -1.5789  0.4650 -1.5344
 5244WAT     H221683   6.546   4.153   3.269  0.8219 -0.0686 -0.5263
 5244WAT    EPW21684   6.529   4.079   3.290  0.1392 -0.6418  0.3078
 5245WAT      O21685   5.189   7.570   1.387 -0.5250  0.0920  0.2090
 5245WAT     H121686   5.189   7.586   1.473  1.2328  1.7472 -0.0404
 5245WAT     H221687   5.109   7.538   1.373 -1.2607  0.8150  2.2746
 5245WAT    EPW21688   5.177   7.568   1.398  0.3251 -0.2880 -0.4259
 5246WAT      O21689   4.946   1.212   6.376  0.4792  0.0177  0.1518
 5246WAT     H121690   5.004   1.147   6.382  0.7169  0.1380 -0.7603
 5246WAT     H221691   4.955   1.254   6.452  1.8354  0.2340 -0.1130
 5246WAT    EPW21692   4.956   1.208   6.388 -0.0371  0.0813  0.0286
 5247WAT      O21693   2.826   0.291   6.589 -0.9718  0.3624  0.5640
 5247WAT     H121694   2.878   0.327   6.650 -3.2532  1.8851  1.8134
 5247WAT     H221695   2.791   0.223   6.631 -1.7504  0.7857  0.6218
 5247WAT    EPW21696   2.829   0.286   6.604 -0.9946  0.0545  0.7737
 5248WAT      O21697   5.590   7.868   2.021  0.0751 -0.2381 -0.5483
 5248WAT     H121698   5.594   7.800   1.967  0.4595 -1.3384  0.7929
 5248WAT     H221699   5.657   7.855   2.076 -0.5706  0.5561  0.4844
 5248WAT    EPW21700   5.601   7.856   2.021  0.4336 -0.1773 -0.2729
 5249WAT      O21701   4.170   2.424   4.232 -0.1367 -0.5593 -0.5512
 5249WAT     H121702   4.175   2.461   4.311  0.6272  3.0687 -2.1118
 5249WAT     H221703   4.245   2.381   4.225 -0.2012 -0.9204  0.6342
 5249WAT    EPW21704   4.182   2.423   4.243  0.1524 -0.0210  0.1360
 5250WAT      O21705   3.150   4.768   3.069  0.1833  0.1866  0.4878
 5250WAT     H121706   3.202   4.707   3.034 -1.0287 -0.5462 -0.1146
 5250WAT     H221707   3.103   4.723   3.128 -1.4104  0.2767 -0.6434
 5250WAT    EPW21708   3.151   4.752   3.073 -0.7021 -0.4227  0.5268
 5251WAT      O21709   5.825   3.686   4.958 -0.0850 -0.3176 -0.4846
 5251WAT     H121710   5.754   3.634   4.962 -0.1830 -0.2898 -1.4353
 5251WAT     H221711   5.813   3.729   4.883  1.3217 -0.8853 -1.0667
 5251WAT    EPW21712   5.813   3.685   4.947  0.6362  0.0144 -0.9216
 5252WAT      O21713   7.931   1.429   3.961 -0.1487 -0.1093 -0.1050
 5252WAT     H121714   7.868   1.370   3.972 -1.2266  0.9025 -0.5816
 5252WAT     H221715   7.908   1.470   3.888  1.2199  0.1238 -0.4361
 5252WAT    EPW21716   7.918   1.426   3.952  0.3911  0.0974  0.2686
 5253WAT      O21717   3.139   6.544   0.420 -0.4513  0.2876 -0.3975
 5253WAT     H121718   3.151   6.556   0.335 -1.2579  1.0347 -0.4211
 5253WAT     H221719   3.101   6.465   0.424  0.7244 -0.3051 -0.6168
 5253WAT    EPW21720   3.135   6.534   0.408  0.3669  0.0830  0.0790
 5254WAT      O21721   6.212   7.954   2.211  0.4994  0.0057  0.2618
 5254WAT     H121722   6.197   7.997   2.285  0.9269  1.4225 -0.4423
 5254WAT     H221723   6.259   8.009   2.163  2.2808 -1.7743 -0.1840
 5254WAT    EPW21724   6.217   7.968   2.215  0.1689 -0.4740  0.3675
 5255WAT      O21725   0.563   2.200   1.873 -0.5453  0.2240 -0.0394
 5255WAT     H121726   0.635   2.236   1.841 -1.1555  1.5301 -0.0065
 5255WAT     H221727   0.536   2.257   1.933 -2.4473  0.5708 -1.1437
 5255WAT    EPW21728   0.569   2.213   1.877 -0.6754 -0.4651 -0.1936
 5256WAT      O21729   5.518   4.567   4.163  0.0954 -0.4349 -0.5030
 5256WAT     H121730   5.464   4.564   4.095  0.5103 -0.9280 -0.8169
 5256WAT     H221731   5.590   4.603   4.131  0.1612 -0.3133 -0.2246
 5256WAT    EPW21732   5.521   4.572   4.148  0.0232 -0.3261 -0.1224
 5257WAT      O21733   5.401   6.903   3.736 -0.0018  0.3307 -0.4016
 5257WAT     H121734   5.336   6.884   3.791 -1.0951  0.7050 -1.5310
 5257WAT     H221735   5.384   6.985   3.713 -0.5857 -0.3708 -2.6441
 5257WAT    EPW21736   5.389   6.913   3.741 -0.2342  0.2061 -0.1139
 5258WAT      O21737   4.386   7.720   1.464  0.2936 -0.3008 -0.1308
 5258WAT     H121738   4.409   7.650   1.511  0.3963  0.2199  0.6069
 5258WAT     H221739   4.447   7.779   1.483 -1.2308  0.8811  1.3524
 5258WAT    EPW21740   4.398   7.718   1.473 -0.5246 -0.0769 -0.5403
 5259WAT      O21741   6.009   1.300   4.967  0.0448 -0.0027 -0.3608
 5259WAT     H121742   6.067   1.243   4.936  2.2615  0.5266  2.4007
 5259WAT     H221743   6.033   1.375   4.930  0.4474  0.0162 -0.0704
 5259WAT    EPW21744   6.021   1.303   4.957 -0.2002 -0.2592 -0.1688
 5260WAT      O21745   1.644   7.791   7.903 -0.3124 -0.4628  0.0371
 5260WAT     H121746   1.646   7.869   7.942  1.0746 -0.3658 -0.1923
 5260WAT     H221747   1.588   7.746   7.953  0.5499  0.0025  1.4919
 5260WAT    EPW21748   1.636   7.796   7.916 -0.2941 -0.3588  0.0022
 5261WAT      O21749   4.171   0.911   6.624  0.3784 -0.4420  0.3979
 5261WAT     H121750   4.246   0.932   6.663  0.2185  0.8882  0.0272
 5261WAT     H221751   4.133   0.988   6.609  0.4850 -0.8394 -2.5021
 5261WAT    EPW21752   4.176   0.926   6.627  0.0883  0.4579  0.1006
 5262WAT      O21753   5.845   6.868   1.616 -0.7420 -0.0941  0.8585
 5262WAT     H121754   5.866   6.894   1.535 -1.3008  0.4082  0.8718
 5262WAT     H221755   5.921   6.843   1.650  0.3365  3.8238  1.7177
 5262WAT    EPW21756   5.859   6.868   1.609  0.3837  0.2492 -0.1627
 5263WAT      O21757   5.611   7.454   0.168  0.0375  0.2700  0.0692
 5263WAT     H121758   5.588   7.494   0.242 -0.4717  2.4948 -1.2054
 5263WAT     H221759   5.608   7.517   0.109  1.7887 -1.1369 -1.6435
 5263WAT    EPW21760   5.607   7.469   0.170 -0.0690  0.0744 -0.1141
 5264WAT      O21761   5.941   1.878   2.860  0.3243  0.2823 -0.4506
 5264WAT     H121762   6.002   1.929   2.824  0.8711 -0.8582 -1.1757
 5264WAT     H221763   5.889   1.935   2.901  1.7557  1.2909  0.0333
 5264WAT    EPW21764   5.942   1.894   2.861  0.1081  0.1735  0.2995
 5265WAT      O21765   5.821   7.387   2.770  0.7561  0.7435  0.1214
 5265WAT     H121766   5.759   7.449   2.773  0.1625  0.2566 -1.2686
 5265WAT     H221767   5.848   7.390   2.687  0.4231 -1.1176 -0.0935
 5265WAT    EPW21768   5.816   7.396   2.758  0.1506 -0.2748  0.4341
 5266WAT      O21769   1.544   2.374   5.927 -0.3958 -0.1227  0.5423
 5266WAT     H121770   1.598   2.307   5.943 -0.0366 -0.3272 -1.2846
 5266WAT     H221771   1.582   2.441   5.969 -0.3672 -0.8703  1.7783
 5266WAT    EPW21772   1.558   2.374   5.936  0.0857  0.5684  0.4840
 5267WAT      O21773   0.043   1.511   2.750  0.3997  0.3329 -0.0029
 5267WAT     H121774   0.110   1.455   2.743  0.6185  0.5586  0.2817
 5267WAT     H221775  -0.024   1.459   2.774  1.2745  0.5447  3.5547
 5267WAT    EPW21776   0.043   1.495   2.753 -0.5058  0.1771  0.5262
 5268WAT      O21777   4.686   7.888   2.184  0.3986 -1.0483 -0.1890
 5268WAT     H121778   4.659   7.912   2.105  2.4972 -0.8266 -0.9088
 5268WAT     H221779   4.625   7.832   2.211 -1.4632  0.4708 -1.0286
 5268WAT    EPW21780   4.673   7.884   2.176  0.5887  0.0121 -0.0920
 5269WAT      O21781   0.405   1.572   3.913  0.3282 -0.4034 -0.0097
 5269WAT     H121782   0.389   1.649   3.874  1.3226  0.2240  0.7617
 5269WAT     H221783   0.368   1.514   3.860  1.9988  0.3489 -2.1593
 5269WAT    EPW21784   0.397   1.575   3.900 -0.7514  0.2181  0.3563
 5270WAT      O21785   6.539   1.019   3.464  0.3186  0.0737  0.5687
 5270WAT     H121786   6.563   1.100   3.443  0.0671  0.2715  1.0214
 5270WAT     H221787   6.453   1.018   3.450  0.6308 -0.8375 -1.6987
 5270WAT    EPW21788   6.530   1.031   3.459  0.1807 -0.0049 -0.4485
 5271WAT      O21789   0.490   0.856   4.005 -0.1540  0.0768  0.1696
 5271WAT     H121790   0.441   0.916   4.045 -0.5409  0.3586 -0.7099
 5271WAT     H221791   0.451   0.781   4.024 -2.4141  0.4322 -2.4346
 5271WAT    EPW21792   0.477   0.854   4.014  0.6051  0.0949  0.0757
 5272WAT      O21793   7.091   6.270   3.331  0.0010 -0.5995 -0.7833
 5272WAT     H121794   7.035   6.313   3.280 -0.4018  1.3243  1.1070
 5272WAT     H221795   7.064   6.188   3.328 -1.2454 -0.1749 -2.0358
 5272WAT    EPW21796   7.079   6.264   3.323  0.2982  0.0274 -0.4280
 5273WAT      O21797   7.640   1.852   3.149 -0.3134  0.0673 -0.3598
 5273WAT     H121798   7.727   1.854   3.143 -0.1670  0.6052  1.3953
 5273WAT     H221799   7.619   1.932   3.176 -1.3536 -0.1036 -0.6115
 5273WAT    EPW21800   7.650   1.864   3.152 -0.3583  0.7463 -0.2251
 5274WAT      O21801   3.832   3.731   0.011  0.0123 -0.2760 -0.1911
 5274WAT     H121802   3.896   3.756   0.065  0.7806  0.0633 -1.2096
 5274WAT     H221803   3.825   3.645   0.025 -0.5928 -0.0155  1.2334
 5274WAT    EPW21804   3.840   3.722   0.021 -0.0612  0.2725 -0.4350
 5275WAT      O21805   3.669   0.972   6.721  0.8933  0.4620 -0.0291
 5275WAT     H121806   3.721   1.027   6.678 -0.0523  0.4509 -1.2445
 5275WAT     H221807   3.589   0.998   6.699  0.3988 -0.5718  0.4542
 5275WAT    EPW21808   3.665   0.984   6.712 -0.4518 -0.2764 -0.0694
 5276WAT      O21809   0.280   4.367   1.861 -0.4703 -0.7821  0.3762
 5276WAT     H121810   0.342   4.351   1.802 -0.7495  1.1179 -0.4908
 5276WAT     H221811   0.325   4.401   1.928 -0.4510 -0.4320  0.1864
 5276WAT    EPW21812   0.296   4.370   1.863  0.2020  0.0544  0.4483
 5277WAT      O21813   0.700   7.804   3.533 -0.5833 -0.3303  0.0174
 5277WAT     H121814   0.748   7.870   3.564  0.0591 -1.6404  2.0678
 5277WAT     H221815   0.745   7.776   3.464 -0.8904  1.3432 -0.9071
 5277WAT    EPW21816   0.714   7.809   3.527  0.2023  0.1898  0.1962
 5278WAT      O21817   6.223   7.086   7.861 -0.1383  0.1046  0.5061
 5278WAT     H121818   6.191   7.054   7.787  0.7429 -0.2485  0.2618
 5278WAT     H221819   6.181   7.041   7.923 -0.2257 -0.2313  0.2038
 5278WAT    EPW21820   6.212   7.075   7.859 -0.1680 -0.5439 -0.6555
 5279WAT      O21821   7.517   6.945   4.168  0.2793 -0.0125  0.1057
 5279WAT     H121822   7.460   6.963   4.232  1.6896  0.6214  1.2441
 5279WAT     H221823   7.473   6.966   4.096 -0.8595  0.6922  0.9512
 5279WAT    EPW21824   7.502   6.951   4.167 -0.5768  0.5728 -0.4016
 5280WAT      O21825   4.925   5.313   4.165  0.4726 -0.3624 -0.1239
 5280WAT     H121826   4.902   5.382   4.118  0.9394 -0.3246 -0.2966
 5280WAT     H221827   4.849   5.271   4.178  0.0662  0.5693  0.6247
 5280WAT    EPW21828   4.911   5.317   4.160 -0.7295 -0.1306  0.1764
 5281WAT      O21829   5.716   5.735   5.719  0.2823 -0.0305 -0.0664
 5281WAT     H121830   5.746   5.702   5.794 -0.2414 -0.6407 -0.1157
 5281WAT     H221831   5.644   5.777   5.743  1.0902  1.3585  0.0412
 5281WAT    EPW21832   5.710   5.736   5.734  0.3572  0.1912  0.3247
 5282WAT      O21833   7.413   2.839   1.255 -0.4838 -0.0980 -0.7445
 5282WAT     H121834   7.390   2.887   1.186  0.5029  1.6417  0.0767
 5282WAT     H221835   7.499   2.827   1.244 -0.5093 -0.7077 -0.3353
 5282WAT    EPW21836   7.422   2.844   1.243 -0.0933  0.2564  0.0974
 5283WAT      O21837   6.660   6.920   3.122 -0.5785  0.1502 -0.1146
 5283WAT     H121838   6.628   6.997   3.146  0.0505 -0.0990  1.6675
 5283WAT     H221839   6.592   6.866   3.132 -0.9497  0.4114 -1.1287
 5283WAT    EPW21840   6.645   6.923   3.127  0.0729 -0.5176 -0.0537
 5284WAT      O21841   5.534   2.523   5.773  0.0829 -0.2602 -0.4017
 5284WAT     H121842   5.563   2.553   5.696 -0.6774  0.9049 -0.2625
 5284WAT     H221843   5.483   2.456   5.751  0.4875 -0.4309 -0.8484
 5284WAT    EPW21844   5.531   2.518   5.758  0.3245 -0.3381  0.0813
 5285WAT      O21845   7.766   2.459   1.943 -0.0009  0.0908  0.5023
 5285WAT     H121846   7.700   2.510   1.966  0.5976  0.5603  1.2336
 5285WAT     H221847   7.763   2.393   2.000 -0.6477 -0.5994 -0.3126
 5285WAT    EPW21848   7.756   2.457   1.955 -0.3542 -0.3596 -0.2970
 5286WAT      O21849   2.657   6.114   5.600  0.1026  0.0731 -0.6653
 5286WAT     H121850   2.730   6.069   5.615  0.8304  1.2101 -0.6883
 5286WAT     H221851   2.598   6.075   5.651  0.2914 -1.8795 -1.8131
 5286WAT    EPW21852   2.659   6.102   5.609  0.6884  0.3724 -0.1589
 5287WAT      O21853   7.246   0.552   2.654  0.0605 -0.0655 -0.3310
 5287WAT     H121854   7.315   0.525   2.701  0.6688  2.1454  0.1344
 5287WAT     H221855   7.181   0.551   2.711  0.1199 -0.3219 -0.2649
 5287WAT    EPW21856   7.247   0.548   2.669 -0.4718 -0.2582  0.2471
 5288WAT      O21857   7.547   1.246   0.328 -0.6042 -0.3101 -0.4304
 5288WAT     H121858   7.560   1.320   0.284 -0.1154 -1.1189 -1.6803
 5288WAT     H221859   7.464   1.253   0.356 -1.1319 -0.0426 -1.9890
 5288WAT    EPW21860   7.537   1.258   0.326  0.0971  0.5072  0.1858
 5289WAT      O21861   6.305   1.201   4.431 -0.2734 -0.1133 -0.0946
 5289WAT     H121862   6.229   1.230   4.400 -0.4830 -0.9083 -0.3337
 5289WAT     H221863   6.312   1.241   4.509 -1.1072 -0.3149  0.0912
 5289WAT    EPW21864   6.295   1.211   4.438  0.4128 -0.1884 -0.8536
 5290WAT      O21865   2.763   3.663   7.044  0.1953 -0.1186 -0.5025
 5290WAT     H121866   2.826   3.715   7.013  0.7874 -1.1336 -1.0487
 5290WAT     H221867   2.799   3.629   7.116 -1.0003  1.8690  1.1373
 5290WAT    EPW21868   2.777   3.665   7.050  0.0047 -0.1295  0.4402
 5291WAT      O21869   4.753   1.916   5.545  0.3550  0.7170 -0.6481
 5291WAT     H121870   4.828   1.933   5.587  0.2003 -0.0922 -0.0212
 5291WAT     H221871   4.694   1.965   5.588 -0.3197 -2.0528  1.9516
 5291WAT    EPW21872   4.755   1.926   5.558 -0.2482 -0.2000 -0.5364
 5292WAT      O21873   6.336   0.219   7.403 -0.8159 -0.0716 -0.1738
 5292WAT     H121874   6.369   0.178   7.333 -1.2719 -0.5317 -0.1319
 5292WAT     H221875   6.283   0.159   7.438 -0.7640  0.2316  0.4420
 5292WAT    EPW21876   6.333   0.204   7.398  0.6347  0.2276 -0.7570
 5293WAT      O21877   2.669   0.907   2.988  0.3244 -0.3990 -0.0847
 5293WAT     H121878   2.733   0.887   3.044 -0.5736 -0.0191  1.1258
 5293WAT     H221879   2.629   0.831   2.975  1.4076 -0.7795 -1.4002
 5293WAT    EPW21880   2.673   0.893   2.994 -0.0592  0.4626  0.3089
 5294WAT      O21881   3.112   7.711   2.714  0.2448  0.0215 -0.1167
 5294WAT     H121882   3.040   7.716   2.763  1.3583  1.7763  1.4612
 5294WAT     H221883   3.094   7.763   2.646 -0.2470 -0.1785 -0.1426
 5294WAT    EPW21884   3.099   7.719   2.711 -0.2479  0.2186  0.4012
 5295WAT      O21885   3.597   2.496   2.150 -0.0572 -0.0323 -0.1985
 5295WAT     H121886   3.536   2.479   2.210  1.4436 -1.1933  1.0954
 5295WAT     H221887   3.671   2.498   2.196  0.9444  0.9415 -1.7623
 5295WAT    EPW21888   3.598   2.494   2.165  0.3080 -0.0013  0.4645
 5296WAT      O21889   5.293   3.647   3.553 -0.2547 -0.0827  0.0348
 5296WAT     H121890   5.279   3.580   3.607  0.0816 -1.3468 -1.3698
 5296WAT     H221891   5.254   3.714   3.593 -1.3231 -1.2806  1.1104
 5296WAT    EPW21892   5.285   3.647   3.567  0.1001 -0.5852  0.1736
 5297WAT      O21893   0.826   0.899   4.214 -0.2586 -0.5934  0.2924
 5297WAT     H121894   0.830   0.985   4.203  1.8768 -0.5584  1.0022
 5297WAT     H221895   0.821   0.868   4.132 -0.8088  0.1588  0.0267
 5297WAT    EPW21896   0.826   0.907   4.200 -1.0087 -0.5060 -0.1058
 5298WAT      O21897   5.447   5.634   1.623  0.0179 -0.6212 -0.1649
 5298WAT     H121898   5.466   5.568   1.677  1.1851 -0.0766  0.1235
 5298WAT     H221899   5.507   5.627   1.560 -0.3861 -0.3472 -0.5839
 5298WAT    EPW21900   5.459   5.623   1.622 -0.9413 -0.8129 -0.4661
 5299WAT      O21901   3.700   7.525   2.315 -0.1212 -0.4083  0.1628
 5299WAT     H121902   3.666   7.449   2.291  0.3217 -0.0781 -1.6463
 5299WAT     H221903   3.785   7.508   2.326 -0.0727 -0.2431  0.0548
 5299WAT    EPW21904   3.708   7.511   2.313 -0.4069  0.3084  0.1072
 5300WAT      O21905   3.841   2.479   6.367 -0.0520  0.2588  0.2788
 5300WAT     H121906   3.870   2.475   6.449  0.1334  2.5271  0.3878
 5300WAT     H221907   3.806   2.401   6.353  0.7675 -0.4918  2.1938
 5300WAT    EPW21908   3.840   2.467   6.377  0.3740  0.7568  0.5213
 5301WAT      O21909   7.403   5.599   3.487 -0.0271  0.3705  0.8094
 5301WAT     H121910   7.362   5.609   3.411  0.9192 -0.4163  0.1706
 5301WAT     H221911   7.381   5.518   3.512  0.8570  0.0668  0.6226
 5301WAT    EPW21912   7.394   5.589   3.480 -0.1141  0.4212 -0.2475
 5302WAT      O21913   4.649   3.655   4.776 -0.3203 -0.0746  0.7960
 5302WAT     H121914   4.607   3.610   4.714  2.1517  0.1561 -1.2275
 5302WAT     H221915   4.604   3.730   4.781 -0.7366 -0.1975 -0.5585
 5302WAT    EPW21916   4.636   3.659   4.768  0.3462  0.3845 -0.3739
 5303WAT      O21917   7.305   7.588   3.458 -0.5434 -0.6840 -0.1923
 5303WAT     H121918   7.298   7.541   3.532  1.2176 -0.4145  0.1842
 5303WAT     H221919   7.222   7.609   3.440 -0.9171  1.1770  2.9616
 5303WAT    EPW21920   7.292   7.584   3.466  0.5549  0.3450  0.6222
 5304WAT      O21921   7.341   0.569   4.568 -0.4180  0.0374  0.7609
 5304WAT     H121922   7.286   0.572   4.636 -1.5065 -0.5037 -0.0739
 5304WAT     H221923   7.315   0.635   4.517 -1.0539 -0.8953 -0.1709
 5304WAT    EPW21924   7.329   0.579   4.571 -0.4530 -0.0454  0.5174
 5305WAT      O21925   4.599   0.116   7.937 -0.6505  0.4553  0.1313
 5305WAT     H121926   4.534   0.135   7.992 -1.7714 -0.5673 -0.7827
 5305WAT     H221927   4.576   0.156   7.863  0.2059  0.7976  0.0442
 5305WAT    EPW21928   4.586   0.124   7.934  0.1662  0.0460 -0.1465
 5306WAT      O21929   5.895   5.903   4.150 -0.1944  0.4366 -0.2835
 5306WAT     H121930   5.916   5.987   4.158 -1.7495  0.7368  1.6581
 5306WAT     H221931   5.883   5.877   4.233 -1.6211 -1.1599 -0.9146
 5306WAT    EPW21932   5.896   5.912   4.164  0.6002  0.3382  0.6787
 5307WAT      O21933   0.200   7.738   3.813 -0.2513 -0.3199  0.0336
 5307WAT     H121934   0.238   7.817   3.816 -0.7052 -0.1234  0.8707
 5307WAT     H221935   0.248   7.691   3.869  0.6116 -0.9151 -1.1836
 5307WAT    EPW21936   0.213   7.743   3.822 -0.3737 -0.1713  0.1516
 5308WAT      O21937   1.659   0.352   4.883  0.5291 -0.0820 -0.1240
 5308WAT     H121938   1.589   0.391   4.917  0.6484  1.3127 -1.3807
 5308WAT     H221939   1.625   0.282   4.843 -0.1094  0.3788 -0.4076
 5308WAT    EPW21940   1.644   0.347   4.882  0.4412  0.3842 -0.5073
 5309WAT      O21941   1.834   4.004   7.095  0.7231 -0.0005  0.4081
 5309WAT     H121942   1.798   3.994   7.016 -0.6934  0.7585  0.9233
 5309WAT     H221943   1.810   3.931   7.137 -1.9943  1.3138  1.3571
 5309WAT    EPW21944   1.825   3.992   7.089 -0.3561  0.2648  0.1840
 5310WAT      O21945   2.847   7.312   2.840 -0.0353 -0.0073  0.3084
 5310WAT     H121946   2.815   7.231   2.839 -0.4286  0.1419  0.4829
 5310WAT     H221947   2.932   7.300   2.858 -0.0465 -0.3898  0.1276
 5310WAT    EPW21948   2.855   7.298   2.842 -0.1981 -0.1413 -0.1307
 5311WAT      O21949   3.482   1.144   3.577 -0.4997  0.0549 -0.3299
 5311WAT     H121950   3.507   1.074   3.530  0.5843 -0.2204  0.5997
 5311WAT     H221951   3.513   1.211   3.532 -0.0601 -0.1646 -0.3574
 5311WAT    EPW21952   3.490   1.143   3.563 -0.4703  0.2115  1.0126
 5312WAT      O21953   0.422   1.048   4.427 -0.0614 -0.4605 -0.0135
 5312WAT     H121954   0.383   1.019   4.499  0.3034 -0.1166  0.3266
 5312WAT     H221955   0.500   1.008   4.428  0.1798  0.0067  0.1058
 5312WAT    EPW21956   0.428   1.038   4.437 -0.0462  0.0663  0.1118
 5313WAT      O21957   1.615   3.369   3.921 -0.0634  0.0863  0.2318
 5313WAT     H121958   1.633   3.305   3.864 -0.5902  1.2939 -1.3644
 5313WAT     H221959   1.534   3.393   3.899 -0.6924 -0.0888  2.2066
 5313WAT    EPW21960   1.605   3.363   3.909  0.4093  0.4075  0.4217
 5314WAT      O21961   3.762   6.213   7.960  0.5564 -0.2356  0.2126
 5314WAT     H121962   3.727   6.169   7.892  1.3650  1.3760 -1.3289
 5314WAT     H221963   3.695   6.260   7.990  0.1763 -1.0082  0.6203
 5314WAT    EPW21964   3.747   6.213   7.954  0.3774  0.0999  0.0106
 5315WAT      O21965   6.477   2.157   1.810  0.4445 -0.4317 -0.0079
 5315WAT     H121966   6.402   2.159   1.766 -0.0370 -1.3906  0.7206
 5315WAT     H221967   6.481   2.236   1.848  0.8112  0.3607 -1.6187
 5315WAT    EPW21968   6.466   2.169   1.809  0.0630 -0.2866 -0.3110
 5316WAT      O21969   5.289   0.432   4.482  0.1165 -0.1040 -0.6518
 5316WAT     H121970   5.356   0.457   4.431 -0.0414 -0.9310 -1.2862
 5316WAT     H221971   5.257   0.363   4.440  1.3579 -2.2785  1.7242
 5316WAT    EPW21972   5.294   0.426   4.468 -0.0310 -0.1628 -0.3734
 5317WAT      O21973   1.988   5.211   1.766 -0.7908  0.4758  0.2777
 5317WAT     H121974   1.944   5.243   1.698  2.2267  2.0219 -1.1298
 5317WAT     H221975   1.998   5.126   1.747 -0.4504  0.7824 -0.9969
 5317WAT    EPW21976   1.983   5.203   1.753 -0.3079  0.5907 -0.0612
 5318WAT      O21977   4.131   1.462   4.501  0.4044  0.3233  0.4369
 5318WAT     H121978   4.050   1.493   4.497  1.1794  2.5460  0.1989
 5318WAT     H221979   4.180   1.534   4.493  2.3833 -0.5306  3.3352
 5318WAT    EPW21980   4.127   1.478   4.499  0.0468 -0.3475 -0.2913
 5319WAT      O21981   5.545   6.450   5.199 -0.0554  0.2973 -0.5428
 5319WAT     H121982   5.514   6.517   5.152  0.7918  0.7748 -0.4483
 5319WAT     H221983   5.546   6.481   5.280 -0.4771 -0.1400 -0.3699
 5319WAT    EPW21984   5.541   6.465   5.204 -0.3769 -0.1619  0.5488
 5320WAT      O21985   3.594   6.485   6.228 -0.0871 -0.0780  0.2494
 5320WAT     H121986   3.576   6.401   6.242  0.2443 -0.0530  0.8747
 5320WAT     H221987   3.645   6.485   6.158 -0.5569 -0.3451 -0.0993
 5320WAT    EPW21988   3.599   6.473   6.220 -0.7343 -0.1856  0.3345
 5321WAT      O21989   7.736   5.498   3.599 -0.0486  0.2578  0.1669
 5321WAT     H121990   7.721   5.508   3.513  2.0859  0.0377 -0.2892
 5321WAT     H221991   7.712   5.416   3.614  3.1570 -1.1054 -1.2078
 5321WAT    EPW21992   7.730   5.488   3.588 -0.3268 -0.2731  0.1125
 5322WAT      O21993   7.021   5.328   3.716  0.1107 -0.1787 -0.6289
 5322WAT     H121994   7.045   5.348   3.797  0.5053 -1.1734 -0.4941
 5322WAT     H221995   6.978   5.253   3.725  0.7861 -0.6732 -1.4277
 5322WAT    EPW21996   7.018   5.320   3.729  0.2795 -0.0713  0.0484
 5323WAT      O21997   6.414   3.752   3.823  0.2874  0.2092 -0.0143
 5323WAT     H121998   6.434   3.767   3.906  2.2045  0.4382 -0.4768
 5323WAT     H221999   6.476   3.794   3.779 -0.9919  0.5479 -1.5996
 5323WAT    EPW22000   6.426   3.760   3.829  0.2933  0.0366 -0.2774
 5324WAT      O22001   5.804   1.873   0.274  0.5968  0.0524  0.0603
 5324WAT     H122002   5.720   1.897   0.270  0.6236 -0.0291 -2.7919
 5324WAT     H222003   5.834   1.917   0.342 -1.7603 -0.0093  1.2700
 5324WAT    EPW22004   5.796   1.883   0.284  0.0660 -0.4765 -0.5043
 5325WAT      O22005   7.133   6.174   2.404  0.1974  0.6579 -0.6208
 5325WAT     H122006   7.219   6.162   2.397 -0.0004 -0.7677 -0.8295
 5325WAT     H222007   7.102   6.146   2.327 -0.4938  0.8799 -0.4313
 5325WAT    EPW22008   7.141   6.168   2.391  0.0665  0.0007 -0.1756
 5326WAT      O22009   0.842   5.879   2.048  0.4309  0.4557  0.0414
 5326WAT     H122010   0.871   5.951   2.009 -0.7561  0.6280 -0.5485
 5326WAT     H222011   0.816   5.828   1.982  2.7337 -1.2523  0.3088
 5326WAT    EPW22012   0.843   5.882   2.033  0.1442  0.0923 -0.2834
 5327WAT      O22013   5.732   7.499   4.684 -0.7693  0.0147 -0.6335
 5327WAT     H122014   5.731   7.413   4.670  0.7889 -0.2269  0.4407
 5327WAT     H222015   5.661   7.512   4.733 -1.8185 -0.3842 -1.9871
 5327WAT    EPW22016   5.721   7.488   4.689  0.3653  0.2287  0.2592
 5328WAT      O22017   4.223   1.017   2.044  0.5995  0.0003  0.1104
 5328WAT     H122018   4.309   1.013   2.030  0.3688  0.3593 -1.5824
 5328WAT     H222019   4.213   1.092   2.087  0.9448  0.9833 -1.4562
 5328WAT    EPW22020   4.235   1.027   2.048 -0.6194 -0.1303  0.2557
 5329WAT      O22021   1.981   4.110   7.474  0.7304 -0.4387 -0.3554
 5329WAT     H122022   1.969   4.032   7.512  0.4919 -0.0962  0.2925
 5329WAT     H222023   2.015   4.090   7.396 -1.1645 -1.2978 -1.0116
 5329WAT    EPW22024   1.984   4.095   7.468 -0.1381  0.0398  0.3793
 5330WAT      O22025   6.874   6.678   4.019 -0.0065 -0.1781  0.5751
 5330WAT     H122026   6.947   6.636   4.042  1.9863  2.0651 -1.1501
 5330WAT     H222027   6.879   6.681   3.932 -2.0775  0.2783  0.4314
 5330WAT    EPW22028   6.885   6.672   4.010 -0.0255  0.6640  0.4714
 5331WAT      O22029   1.224   5.306   3.414  0.0530  0.3289 -0.2899
 5331WAT     H122030   1.225   5.370   3.355  0.3793  0.1723 -0.4552
 5331WAT     H222031   1.139   5.295   3.431  0.0304  1.4782  0.4775
 5331WAT    EPW22032   1.211   5.314   3.408 -0.0436 -0.2701  0.0320
 5332WAT      O22033   6.845   4.394   3.603 -0.5888 -0.4065  0.3434
 5332WAT     H122034   6.788   4.449   3.642  0.2759  1.2545 -0.6313
 5332WAT     H222035   6.820   4.395   3.520  0.9449  0.5095 -0.1370
 5332WAT    EPW22036   6.833   4.403   3.597  0.2890 -0.0706 -0.5822
 5333WAT      O22037   4.140   1.970   5.533 -0.1744 -0.1708  0.1707
 5333WAT     H122038   4.159   1.939   5.454 -1.0293  0.1483 -0.1713
 5333WAT     H222039   4.199   1.933   5.585  0.5117 -0.2329 -0.6469
 5333WAT    EPW22040   4.151   1.960   5.529  0.3266  0.1713 -0.6765
 5334WAT      O22041   2.238   1.621   0.690  0.9423  0.5136 -0.0660
 5334WAT     H122042   2.220   1.543   0.655 -0.6730  0.6651  0.3579
 5334WAT     H222043   2.319   1.611   0.721  0.4449 -1.3070  0.7803
 5334WAT    EPW22044   2.247   1.608   0.689  0.0032 -0.2062  0.7189
 5335WAT      O22045   2.938   3.491   2.862  0.1182  0.7969 -0.5135
 5335WAT     H122046   2.945   3.470   2.947 -1.2801  0.7512 -0.3810
 5335WAT     H222047   3.007   3.543   2.848  0.7357  0.2932  0.4802
 5335WAT    EPW22048   2.949   3.495   2.873  0.6809 -0.4308  0.2223
 5336WAT      O22049   2.157   7.609   5.241 -0.2292 -0.2983 -0.3573
 5336WAT     H122050   2.206   7.555   5.193 -1.5222  1.3013 -3.7997
 5336WAT     H222051   2.091   7.559   5.267 -0.7772 -0.7191 -2.4280
 5336WAT    EPW22052   2.155   7.594   5.238  0.3158  0.0352  0.2392
 5337WAT      O22053  -0.006   6.070   4.373 -0.2694 -0.4762  0.4507
 5337WAT     H122054   0.065   6.043   4.415  0.2085  0.4956  0.2945
 5337WAT     H222055   0.014   6.060   4.289 -0.4837 -0.5784  0.4082
 5337WAT    EPW22056   0.007   6.064   4.366 -0.1058 -0.0343  0.4473
 5338WAT      O22057   4.503   0.260   6.369 -0.0941 -0.1745 -0.3754
 5338WAT     H122058   4.550   0.332   6.379 -0.5819  0.3282 -1.5576
 5338WAT     H222059   4.422   0.285   6.392  0.2075 -1.1547  2.1437
 5338WAT    EPW22060   4.498   0.274   6.374 -0.7913 -0.0466  0.4065
 5339WAT      O22061   3.997   0.416   4.202  0.2190 -0.0937  0.3733
 5339WAT     H122062   4.012   0.404   4.117  0.0022 -2.3517  0.6036
 5339WAT     H222063   4.076   0.413   4.238  0.2961  0.7121  0.2949
 5339WAT    EPW22064   4.011   0.414   4.195 -0.6039 -0.5605  0.1804
 5340WAT      O22065   3.495   7.488   3.008 -0.1179 -0.0189  0.7022
 5340WAT     H122066   3.429   7.545   2.999  0.5510  0.4957 -1.9158
 5340WAT     H222067   3.476   7.427   2.949 -0.0041 -1.7601  2.3958
 5340WAT    EPW22068   3.482   7.488   2.998 -0.2240 -0.5791 -0.1705
 5341WAT      O22069   2.697   6.441   1.878  0.0032 -0.0500 -0.3839
 5341WAT     H122070   2.637   6.456   1.939 -1.4352  1.3603 -2.0635
 5341WAT     H222071   2.656   6.393   1.819  0.5492  0.7997 -1.4918
 5341WAT    EPW22072   2.682   6.436   1.878 -0.0076  0.1286  0.3958
 5342WAT      O22073   3.202   4.002   7.790  0.2697  0.1559  0.3494
 5342WAT     H122074   3.141   4.061   7.773  0.9669  0.5867 -0.7836
 5342WAT     H222075   3.266   4.049   7.827  0.1207 -0.2042  1.0759
 5342WAT    EPW22076   3.202   4.018   7.793  0.1008  0.5818  0.3772
 5343WAT      O22077   5.724   3.606   1.238  0.3545  0.3591 -0.4538
 5343WAT     H122078   5.756   3.681   1.269  0.1977  0.5904 -0.8440
 5343WAT     H222079   5.738   3.612   1.152 -1.6539  0.9519 -0.8116
 5343WAT    EPW22080   5.730   3.618   1.230  0.6585  0.0424  0.0696
 5344WAT      O22081   5.478   7.191   6.131 -0.6170 -0.1992  0.3014
 5344WAT     H122082   5.392   7.180   6.142 -0.7422  0.5137  0.0669
 5344WAT     H222083   5.507   7.109   6.119 -1.5619 -0.3201 -1.6640
 5344WAT    EPW22084   5.470   7.177   6.131  0.5253 -0.1331  0.1069
 5345WAT      O22085   7.213   3.891   3.617  0.0833 -0.1091  0.1812
 5345WAT     H122086   7.228   3.975   3.601 -1.2387  0.0428 -0.4585
 5345WAT     H222087   7.138   3.891   3.662 -0.0757 -0.9344 -0.0499
 5345WAT    EPW22088   7.204   3.903   3.621  0.3918  0.2384 -0.4271
 5346WAT      O22089   2.250   7.365   6.463  0.3073 -0.0023 -0.0165
 5346WAT     H122090   2.170   7.375   6.431  0.7886 -0.2588 -1.3732
 5346WAT     H222091   2.240   7.307   6.528 -0.9878  1.9339  1.6278
 5346WAT    EPW22092   2.237   7.357   6.468 -0.1372 -0.0961 -0.0946
 5347WAT      O22093   2.273   3.612   4.625 -0.2110  0.1704 -0.0735
 5347WAT     H122094   2.251   3.565   4.555  0.1172 -1.6458  0.9815
 5347WAT     H222095   2.196   3.636   4.658 -0.4435 -0.6032 -0.0228
 5347WAT    EPW22096   2.258   3.609   4.619 -0.1920 -0.0943 -0.3604
 5348WAT      O22097   4.344   1.727   0.711 -0.5431  0.0913 -0.4032
 5348WAT     H122098   4.337   1.656   0.761 -1.2615 -0.5919 -1.4326
 5348WAT     H222099   4.266   1.766   0.719 -0.0600  0.9281  0.3740
 5348WAT    EPW22100   4.331   1.722   0.719  0.2045 -0.2952  0.0710
 5349WAT      O22101   7.030   3.628   4.684 -0.2583  0.2156 -0.1470
 5349WAT     H122102   7.044   3.688   4.623  2.0111  0.0931  0.1659
 5349WAT     H222103   7.089   3.566   4.666 -1.4469 -1.1935  0.5008
 5349WAT    EPW22104   7.041   3.627   4.672 -0.4806 -0.0395  0.3408
 5350WAT      O22105   1.824   0.152   3.213  0.3139 -0.5413 -0.0545
 5350WAT     H122106   1.753   0.167   3.261  0.4264 -0.3748  0.0603
 5350WAT     H222107   1.816   0.068   3.191  0.6802 -0.8543  0.9484
 5350WAT    EPW22108   1.812   0.141   3.217  0.2211  0.6629  0.2157
 5351WAT      O22109   7.364   3.167   4.285 -0.0411  0.1055 -0.3605
 5351WAT     H122110   7.280   3.188   4.288 -0.4952 -1.5324 -0.2330
 5351WAT     H222111   7.405   3.243   4.286 -1.4851  0.9169  0.7699
 5351WAT    EPW22112   7.358   3.181   4.286  0.7335  0.2715  0.0407
 5352WAT      O22113   4.172   6.460   4.956  0.0234 -0.4448 -0.5459
 5352WAT     H122114   4.147   6.423   5.031  0.0093  0.3096 -0.1682
 5352WAT     H222115   4.256   6.437   4.949  0.6111  1.0791  0.7310
 5352WAT    EPW22116   4.181   6.451   4.966 -0.1156 -0.5447 -0.4276
 5353WAT      O22117   1.899   7.811   2.684  0.5640 -0.0522 -0.2145
 5353WAT     H122118   1.885   7.742   2.735  0.2768 -0.2707 -0.5772
 5353WAT     H222119   1.930   7.871   2.738 -0.1478 -0.1359  0.3000
 5353WAT    EPW22120   1.901   7.809   2.699  0.1907 -0.6706  0.1460
 5354WAT      O22121   5.437   0.920   4.170 -0.0495  0.5429  0.2271
 5354WAT     H122122   5.416   0.897   4.088  1.1009 -0.4794  0.1943
 5354WAT     H222123   5.497   0.983   4.159  1.0373 -0.4696  0.2555
 5354WAT    EPW22124   5.442   0.926   4.156  0.1387  0.4438 -0.5081
 5355WAT      O22125   0.358   2.179   1.116  0.5497  0.0031 -0.0546
 5355WAT     H122126   0.350   2.189   1.202  0.2913  0.3743 -0.1156
 5355WAT     H222127   0.424   2.232   1.095  0.6902 -0.1768 -0.0702
 5355WAT    EPW22128   0.366   2.189   1.125  0.5874  0.0543  0.3406
 5356WAT      O22129   7.011   3.844   8.030  0.0113 -0.1494  0.3968
 5356WAT     H122130   6.991   3.803   8.104  2.0367 -0.3265  0.9030
 5356WAT     H222131   7.062   3.786   7.988  2.1376  1.4011  0.6872
 5356WAT    EPW22132   7.016   3.829   8.035 -0.7962  0.0311 -0.2392
 5357WAT      O22133   3.617   6.257   1.008  0.1727  0.2433  0.3616
 5357WAT     H122134   3.566   6.204   1.055 -0.6213  0.4794 -0.2239
 5357WAT     H222135   3.634   6.323   1.063 -0.5102  0.3725  0.4283
 5357WAT    EPW22136   3.612   6.259   1.023 -0.1246 -0.0198 -0.2176
 5358WAT      O22137   1.976   7.916   0.465  0.0594 -0.7753  0.0781
 5358WAT     H122138   1.996   7.857   0.403  0.1902 -1.0194  0.3539
 5358WAT     H222139   1.889   7.912   0.468  0.0743 -1.0511  0.1897
 5358WAT    EPW22140   1.966   7.907   0.456 -0.4096 -0.2869 -0.2582
 5359WAT      O22141   4.401   0.029   5.531  0.2955 -0.0010 -0.7113
 5359WAT     H122142   4.390   0.103   5.576 -0.6855 -1.4648  1.6964
 5359WAT     H222143   4.459   0.050   5.470  0.6023  2.5503  0.3290
 5359WAT    EPW22144   4.408   0.043   5.529 -0.0330  0.3910  0.2013
 5360WAT      O22145   6.056   0.436   1.651  0.4703  0.0267  0.2160
 5360WAT     H122146   6.080   0.364   1.607  0.9662 -0.1803  0.8134
 5360WAT     H222147   6.016   0.485   1.590 -1.8752 -1.6806  0.2657
 5360WAT    EPW22148   6.054   0.433   1.636 -0.3687 -0.1255  0.0537
 5361WAT      O22149   1.867   2.629   7.521 -0.5353  1.1856 -0.4191
 5361WAT     H122150   1.804   2.630   7.460 -0.1730 -2.1532 -1.0728
 5361WAT     H222151   1.823   2.631   7.596 -1.2679  1.3936 -0.8379
 5361WAT    EPW22152   1.851   2.629   7.523  0.1966  0.5079  0.1752
 5362WAT      O22153   6.305   1.876   0.900  0.1927  0.0087  0.3799
 5362WAT     H122154   6.346   1.849   0.828 -0.2063 -0.0034  0.1574
 5362WAT     H222155   6.289   1.960   0.885  0.4417  0.0990  0.6112
 5362WAT    EPW22156   6.309   1.884   0.887  0.2073 -0.1641 -0.6913
 5363WAT      O22157   7.804   1.433   3.315  0.2690  1.0348 -0.9266
 5363WAT     H122158   7.775   1.394   3.243  2.2620 -0.9148 -0.7682
 5363WAT     H222159   7.735   1.480   3.342 -1.4180 -0.3576 -2.5761
 5363WAT    EPW22160   7.789   1.434   3.308  0.2627 -0.2656 -0.2415
 5364WAT      O22161   4.153   7.254   1.463  0.1200 -0.7742  0.1041
 5364WAT     H122162   4.219   7.232   1.515 -0.8211 -0.9025  1.3008
 5364WAT     H222163   4.119   7.325   1.502  1.0657  0.8471 -1.8615
 5364WAT    EPW22164   4.158   7.261   1.476  0.4379 -1.0996 -0.4875
 5365WAT      O22165   7.395   1.126   4.793  0.0435 -0.2023 -0.0996
 5365WAT     H122166   7.439   1.194   4.761 -0.3165 -0.4855 -1.2735
 5365WAT     H222167   7.325   1.161   4.830 -0.2654  0.0745 -0.9160
 5365WAT    EPW22168   7.391   1.141   4.794  0.6885  0.1997 -0.0564
 5366WAT      O22169   7.429   7.430   2.202  0.1959 -0.1135 -0.2314
 5366WAT     H122170   7.513   7.420   2.182  0.2391  1.2419 -0.8670
 5366WAT     H222171   7.387   7.395   2.134  0.1915 -1.7511  0.5677
 5366WAT    EPW22172   7.435   7.423   2.189 -0.1814 -0.1466  0.2534
 5367WAT      O22173   5.433   6.170   5.623 -0.0819 -0.7587 -0.0878
 5367WAT     H122174   5.433   6.095   5.578 -0.1224 -1.2277  0.6870
 5367WAT     H222175   5.365   6.163   5.677  0.0805 -0.2839  0.1929
 5367WAT    EPW22176   5.423   6.158   5.624  0.5423 -0.0873  0.4098
 5368WAT      O22177   3.653   6.779   3.179  0.1073  0.3869  0.4814
 5368WAT     H122178   3.713   6.784   3.241 -0.9604 -1.9959  1.8565
 5368WAT     H222179   3.603   6.850   3.192  1.0397  0.9628  1.0188
 5368WAT    EPW22180   3.654   6.790   3.190  0.6532  0.3466 -0.2390
 5369WAT      O22181   5.024   7.009   4.172  0.6040 -0.1318  0.1565
 5369WAT     H122182   4.994   6.939   4.129  2.0326 -0.7277  0.0929
 5369WAT     H222183   4.999   7.075   4.121  0.3684 -0.6747 -0.4614
 5369WAT    EPW22184   5.016   7.008   4.158 -0.7301  0.6035  0.1328
 5370WAT      O22185   0.736   4.294   4.601  0.1832 -0.8678  0.1736
 5370WAT     H122186   0.696   4.242   4.658 -1.4721  0.1762  0.0290
 5370WAT     H222187   0.718   4.259   4.524  0.1185 -0.7654  0.1424
 5370WAT    EPW22188   0.728   4.281   4.598 -0.1023  0.0235 -0.1150
 5371WAT      O22189   7.312   3.930   2.572  0.4556  0.3867 -0.9707
 5371WAT     H122190   7.247   3.873   2.587 -0.1667  0.7673 -2.1116
 5371WAT     H222191   7.299   3.992   2.632  0.6879 -0.2794 -0.2111
 5371WAT    EPW22192   7.300   3.931   2.583  0.0087 -0.3184  0.4127
 5372WAT      O22193   4.641   0.262   3.452 -0.2878  0.0270 -0.0252
 5372WAT     H122194   4.669   0.218   3.522  0.0648 -0.1694 -0.2860
 5372WAT     H222195   4.619   0.199   3.396 -2.6565  0.1321  0.6879
 5372WAT    EPW22196   4.642   0.246   3.455 -0.2318 -0.1599  0.1548
 5373WAT      O22197   5.988   2.833   2.778 -0.5108 -0.9962 -0.4471
 5373WAT     H122198   5.938   2.782   2.728 -0.8938  0.3543 -1.4997
 5373WAT     H222199   6.023   2.889   2.721 -0.9213  0.5656  0.7899
 5373WAT    EPW22200   5.986   2.834   2.762 -0.1709  0.0489  0.3736
 5374WAT      O22201   6.906   3.395   8.026  0.3032  0.3008 -0.4453
 5374WAT     H122202   6.984   3.363   8.045  0.6867 -0.4255 -2.8397
 5374WAT     H222203   6.860   3.325   8.001 -0.8191  0.8387  0.0186
 5374WAT    EPW22204   6.911   3.380   8.025  0.4401  0.3048  0.0013
 5375WAT      O22205   3.305   2.218   4.060  0.7666  0.0841  0.1145
 5375WAT     H122206   3.296   2.274   3.993 -1.3948 -0.0865  0.1945
 5375WAT     H222207   3.391   2.203   4.063  0.9475  0.0945 -2.6186
 5375WAT    EPW22208   3.317   2.224   4.050 -0.1115  0.1413  0.2455
 5376WAT      O22209   3.096   1.357   2.518 -0.0004 -0.2786 -0.5892
 5376WAT     H122210   3.090   1.441   2.542  0.3592  0.0601 -1.6389
 5376WAT     H222211   3.031   1.319   2.563  0.0743  0.4775  0.1980
 5376WAT    EPW22212   3.085   1.364   2.528 -0.4619 -0.7545 -0.2257
 5377WAT      O22213   4.740   1.531   2.479  0.0026  0.5267 -0.0649
 5377WAT     H122214   4.761   1.538   2.563  1.8939  0.1759 -0.4506
 5377WAT     H222215   4.656   1.507   2.480  0.0894  0.1839  1.7196
 5377WAT    EPW22216   4.731   1.528   2.492  0.5296 -0.3242  0.3374
 5378WAT      O22217   5.065   0.620   7.843  0.1351  0.3795 -0.4780
 5378WAT     H122218   5.138   0.662   7.820 -0.2948  1.3899 -0.0985
 5378WAT     H222219   5.041   0.661   7.917  0.0330 -0.9885  0.2726
 5378WAT    EPW22220   5.072   0.632   7.851  0.0999 -0.2602 -0.6211
 5379WAT      O22221   4.859   7.300   1.534 -0.5555 -0.5345 -0.2063
 5379WAT     H122222   4.797   7.240   1.521 -1.9764  0.3012  2.1780
 5379WAT     H222223   4.923   7.255   1.572  0.1645 -1.2960 -2.2015
 5379WAT    EPW22224   4.859   7.285   1.538 -0.2889 -0.5390  0.3377
 5380WAT      O22225   6.007   0.825   0.680 -0.1591 -0.3445  0.1417
 5380WAT     H122226   6.021   0.766   0.617 -1.6412 -0.8873  0.2728
 5380WAT     H222227   6.075   0.879   0.673 -0.8057  0.2688 -2.6634
 5380WAT    EPW22228   6.019   0.824   0.670 -0.4188  0.8364  0.1178
 5381WAT      O22229   1.853   6.853   0.920  0.1760 -0.0689 -0.6499
 5381WAT     H122230   1.881   6.829   0.841  0.0747 -0.1914 -0.6493
 5381WAT     H222231   1.816   6.931   0.906 -1.5889 -0.9255 -1.1046
 5381WAT    EPW22232   1.851   6.861   0.907  0.2907  0.2527 -0.1039
 5382WAT      O22233   7.262   6.906   3.288 -0.1311  0.1117  0.5009
 5382WAT     H122234   7.248   6.883   3.371  0.6155  0.8567  0.8593
 5382WAT     H222235   7.334   6.956   3.293 -0.7532  1.1616 -0.4274
 5382WAT    EPW22236   7.271   6.910   3.301 -0.2779 -0.3679 -0.4022
 5383WAT      O22237   0.024   0.257   1.918 -0.4182 -0.0105  0.3119
 5383WAT     H122238   0.043   0.186   1.870  1.9718  1.1807 -0.7238
 5383WAT     H222239   0.076   0.319   1.884 -0.6456  1.6423  2.6841
 5383WAT    EPW22240   0.035   0.256   1.906 -0.4856  0.0020  0.3068
 5384WAT      O22241   0.904   0.134   0.413  0.0978 -0.2494  0.0454
 5384WAT     H122242   0.917   0.150   0.328 -1.2248  1.6845  0.1375
 5384WAT     H222243   0.953   0.195   0.453  0.4901 -0.9636  0.6864
 5384WAT    EPW22244   0.914   0.145   0.406 -0.1544  0.4236 -0.2452
 5385WAT      O22245   0.318   1.921   4.013 -0.0450  0.2497  0.4988
 5385WAT     H122246   0.285   1.919   4.093 -0.5113 -1.2511  0.2988
 5385WAT     H222247   0.403   1.907   4.024 -0.5729 -4.3818  0.5897
 5385WAT    EPW22248   0.326   1.919   4.026 -0.0885  0.3286 -0.4064
 5386WAT      O22249   6.141   3.028   6.937  0.7134  0.1006  0.1500
 5386WAT     H122250   6.087   2.974   6.895 -0.1018  0.4057  0.7876
 5386WAT     H222251   6.184   3.069   6.873 -1.0245  1.1029 -0.4286
 5386WAT    EPW22252   6.139   3.026   6.921 -0.4974  0.3036  0.2850
 5387WAT      O22253   6.698   6.341   4.174  0.2456  0.4235 -0.2938
 5387WAT     H122254   6.640   6.313   4.115  0.4770 -0.3679 -0.1673
 5387WAT     H222255   6.689   6.427   4.173 -1.4491  0.2851  0.2317
 5387WAT    EPW22256   6.688   6.349   4.165 -0.3964  0.0673  0.5473
 5388WAT      O22257   7.102   5.281   2.117 -0.6206 -0.8936  0.0543
 5388WAT     H122258   7.074   5.360   2.139 -0.3635 -0.2155 -1.8374
 5388WAT     H222259   7.038   5.250   2.066  0.2743 -0.9335 -1.0943
 5388WAT    EPW22260   7.088   5.288   2.113 -0.1541 -0.1315  0.4430
 5389WAT      O22261   2.445   7.940   1.792  0.2134  0.0773  0.0094
 5389WAT     H122262   2.382   7.919   1.735  0.0064  2.2981 -0.6791
 5389WAT     H222263   2.401   7.975   1.859  0.6222  0.3568  0.1340
 5389WAT    EPW22264   2.429   7.942   1.793 -0.6271 -0.4052 -0.2386
 5390WAT      O22265   0.796   5.279   1.061  0.5645 -0.2518  0.3878
 5390WAT     H122266   0.825   5.226   1.125  0.6205  0.2164  0.7525
 5390WAT     H222267   0.869   5.314   1.029  0.5704 -0.7959 -0.2170
 5390WAT    EPW22268   0.811   5.276   1.066 -0.1723  0.2112  0.1411
 5391WAT      O22269   5.433   2.296   2.685  0.4499 -0.0368  0.1634
 5391WAT     H122270   5.368   2.248   2.651 -1.0881  0.7884  1.7469
 5391WAT     H222271   5.480   2.319   2.615 -1.3629 -0.0977 -1.1645
 5391WAT    EPW22272   5.430   2.292   2.670 -0.1025 -0.3918  0.0890
 5392WAT      O22273   3.966   1.033   6.954 -0.0356  0.3042 -0.3440
 5392WAT     H122274   3.979   0.965   6.901  1.1489  0.7744 -0.6931
 5392WAT     H222275   4.046   1.067   6.963 -0.1552  0.1581  1.8631
 5392WAT    EPW22276   3.980   1.028   6.947 -0.3376  0.4887 -0.0426
 5393WAT      O22277   5.988   0.536   4.976 -0.9298 -0.2397 -0.1709
 5393WAT     H122278   6.014   0.477   5.036  0.6865 -1.1189 -1.6415
 5393WAT     H222279   6.051   0.596   4.978  0.6784 -1.6458 -2.7611
 5393WAT    EPW22280   6.002   0.536   4.985  0.2167 -0.1276  0.4217
 5394WAT      O22281   4.790   6.644   7.398  0.0929 -0.3000 -0.8638
 5394WAT     H122282   4.765   6.565   7.424  0.4180  0.0893  0.7433
 5394WAT     H222283   4.719   6.693   7.408 -0.1838 -0.4248 -2.1090
 5394WAT    EPW22284   4.776   6.640   7.403 -0.5206 -0.2298 -0.7091
 5395WAT      O22285   0.923   3.282   4.053 -0.0700  0.2291 -0.0767
 5395WAT     H122286   0.907   3.222   3.992  1.6497 -0.7648  0.3974
 5395WAT     H222287   1.004   3.309   4.036 -0.7231  2.3336 -0.1662
 5395WAT    EPW22288   0.933   3.277   4.042 -0.1272 -0.2687 -0.2225
 5396WAT      O22289   1.680   1.139   5.971  0.3337  0.1914  0.1104
 5396WAT     H122290   1.740   1.087   6.007  0.7505  0.1777 -0.5839
 5396WAT     H222291   1.661   1.196   6.034  0.1519 -0.5642  0.7522
 5396WAT    EPW22292   1.686   1.139   5.985  0.1151  0.0669  0.1262
 5397WAT      O22293   6.165   5.939   5.378 -0.2306  0.7633 -0.0661
 5397WAT     H122294   6.232   5.900   5.339  0.3658 -0.3690  1.9780
 5397WAT     H222295   6.202   6.001   5.426 -0.8218  1.1815 -0.1312
 5397WAT    EPW22296   6.180   5.943   5.379  0.1118 -0.2632  0.0496
 5398WAT      O22297   6.002   1.909   4.241  0.6903 -0.7911 -0.1264
 5398WAT     H122298   6.024   1.992   4.223  0.0890 -0.8569 -1.2766
 5398WAT     H222299   5.956   1.915   4.315 -0.5839  0.0985 -0.9438
 5398WAT    EPW22300   5.999   1.922   4.249 -0.2749  0.4610  0.3202
 5399WAT      O22301   6.864   4.757   2.368  0.0156 -0.4701 -0.1407
 5399WAT     H122302   6.865   4.841   2.344 -0.6700  0.2119  2.0375
 5399WAT     H222303   6.780   4.735   2.363 -0.3249  0.0030  2.4189
 5399WAT    EPW22304   6.852   4.766   2.363 -0.3968  0.3498 -0.1130
 5400WAT      O22305   6.577   0.912   3.209  0.2408  0.2016  0.3877
 5400WAT     H122306   6.494   0.884   3.204  0.3307 -0.0890  0.4768
 5400WAT     H222307   6.578   0.958   3.283  0.1089  0.3714  0.2832
 5400WAT    EPW22308   6.565   0.914   3.220 -0.2798  0.5006  0.0140
 5401WAT      O22309   3.618   6.330   1.478 -0.2400  0.3696 -0.0693
 5401WAT     H122310   3.630   6.249   1.509 -1.0467  0.1890 -0.2316
 5401WAT     H222311   3.551   6.360   1.525 -0.7035  0.5218 -0.8252
 5401WAT    EPW22312   3.610   6.323   1.490 -0.3188 -0.2589 -0.4419
 5402WAT      O22313   7.906   6.056   2.203  0.0600 -0.7367  0.8443
 5402WAT     H122314   7.827   6.018   2.211 -1.6204  2.0644 -0.8123
 5402WAT     H222315   7.951   5.999   2.155 -1.6164 -1.6046  0.2231
 5402WAT    EPW22316   7.901   6.042   2.197 -0.0670  0.3895 -0.0250
 5403WAT      O22317   5.172   2.333   4.838 -0.2484 -0.1855  0.0585
 5403WAT     H122318   5.124   2.381   4.784 -0.3190  0.4414  0.6560
 5403WAT     H222319   5.171   2.379   4.912 -0.2144 -1.0562  0.6122
 5403WAT    EPW22320   5.165   2.347   4.841  0.2527  0.5874 -0.2882
 5404WAT      O22321   1.922   0.919   1.425  0.1376 -0.2081  0.4423
 5404WAT     H122322   1.947   0.883   1.500  0.6400  1.8747  1.3243
 5404WAT     H222323   1.835   0.923   1.432 -0.0112 -1.7900  0.0189
 5404WAT    EPW22324   1.913   0.914   1.437 -0.0487  0.7812  0.1727
 5405WAT      O22325   7.760   5.173   2.778  0.3429 -0.4609 -0.4272
 5405WAT     H122326   7.727   5.151   2.856 -1.5271  1.2543 -0.6449
 5405WAT     H222327   7.816   5.237   2.796  1.3593 -1.3338 -0.3603
 5405WAT    EPW22328   7.763   5.179   2.792 -0.0569  0.3910 -0.3457
 5406WAT      O22329   1.005   2.679   2.454  0.3625  0.0402 -0.1453
 5406WAT     H122330   0.964   2.714   2.386  1.2050  1.3638 -0.0035
 5406WAT     H222331   1.057   2.743   2.482  1.3856 -1.0753  0.6122
 5406WAT    EPW22332   1.007   2.693   2.448 -0.4505 -0.3698  0.1925
 5407WAT      O22333   2.298   2.436   0.155  0.1740  0.1802  0.2585
 5407WAT     H122334   2.261   2.410   0.229 -0.7909  0.5078 -0.0918
 5407WAT     H222335   2.255   2.391   0.094  0.7017  0.1954 -0.1310
 5407WAT    EPW22336   2.286   2.425   0.157 -0.6878  0.4578  0.2915
 5408WAT      O22337   7.140   4.306   3.076 -0.0968  0.0712  0.1362
 5408WAT     H122338   7.219   4.341   3.083 -0.1223  0.0530  0.5299
 5408WAT     H222339   7.113   4.297   3.159 -0.7230  0.5477 -0.0087
 5408WAT    EPW22340   7.148   4.310   3.089 -0.5655 -0.1947  0.5351
 5409WAT      O22341   6.466   5.769   4.395  0.0239  0.1280 -0.0128
 5409WAT     H122342   6.387   5.748   4.364  0.0374 -0.0365  0.0606
 5409WAT     H222343   6.492   5.833   4.343  0.4813 -0.8384 -0.9993
 5409WAT    EPW22344   6.458   5.775   4.383  0.0632  0.0057 -0.2421
 5410WAT      O22345   1.612   4.879   2.455  0.3354  0.1591  0.2937
 5410WAT     H122346   1.666   4.887   2.523  0.4417  0.4224  0.1810
 5410WAT     H222347   1.571   4.804   2.470  2.9667 -1.7677 -1.1836
 5410WAT    EPW22348   1.614   4.869   2.467 -0.3258  0.9921 -0.4238
 5411WAT      O22349   8.035   1.445   4.413 -0.0882 -0.3406  0.3052
 5411WAT     H122350   8.104   1.430   4.465  0.1136 -0.4957 -0.0095
 5411WAT     H222351   8.037   1.379   4.357 -1.1559 -0.9760  0.9830
 5411WAT    EPW22352   8.046   1.433   4.413  0.2348  0.2432 -0.2639
 5412WAT      O22353   2.906   6.668   2.422  0.2366  0.2421  0.2190
 5412WAT     H122354   2.847   6.719   2.383  0.4473  0.9426  0.7893
 5412WAT     H222355   2.956   6.724   2.466  1.9245 -0.2526 -0.9884
 5412WAT    EPW22356   2.904   6.683   2.423 -0.0483 -0.7327 -0.4255
 5413WAT      O22357   0.567   1.270   2.024  0.6196  0.2888  0.1466
 5413WAT     H122358   0.555   1.188   2.053  0.5169 -0.5858 -2.1112
 5413WAT     H222359   0.514   1.318   2.074 -1.7135 -1.4900 -0.4507
 5413WAT    EPW22360   0.557   1.265   2.036  0.3645 -0.1072  0.7123
 5414WAT      O22361   6.115   0.347   1.197 -0.3350  0.5557 -0.1587
 5414WAT     H122362   6.118   0.434   1.192  0.1363  0.6546  1.3159
 5414WAT     H222363   6.105   0.332   1.283  0.4119 -0.8485 -0.2882
 5414WAT    EPW22364   6.114   0.357   1.209  0.1285 -0.0205 -0.0841
 5415WAT      O22365   1.121   1.466   0.610 -0.2027 -0.5001  0.5493
 5415WAT     H122366   1.051   1.474   0.661 -0.8031 -0.5380 -0.2498
 5415WAT     H222367   1.119   1.383   0.585  0.5029 -0.6688  1.0414
 5415WAT    EPW22368   1.110   1.455   0.614  0.0167 -0.9926 -0.2407
 5416WAT      O22369   3.967   2.855   1.193 -0.1361  0.0605 -0.0159
 5416WAT     H122370   3.891   2.868   1.236 -0.1567 -0.0640 -0.0135
 5416WAT     H222371   3.979   2.930   1.151 -0.1491  0.1624  0.1581
 5416WAT    EPW22372   3.957   2.868   1.193  0.0724  0.1771 -0.5362
 5417WAT      O22373   1.517   0.314   1.653 -0.2063 -0.0684 -0.3363
 5417WAT     H122374   1.495   0.390   1.615  0.7335  0.7197  0.6493
 5417WAT     H222375   1.452   0.301   1.710 -0.1853  0.1786 -0.2534
 5417WAT    EPW22376   1.504   0.323   1.656  0.5531 -0.0319  0.1216
 5418WAT      O22377   3.545   7.147   2.558  0.4495  0.0784  0.4090
 5418WAT     H122378   3.566   7.063   2.562  1.1652  0.2127 -0.2461
 5418WAT     H222379   3.503   7.154   2.482  1.1123  0.4558  0.0701
 5418WAT    EPW22380   3.542   7.136   2.547 -0.3120  0.3608  0.4656
 5419WAT      O22381   7.082   6.100   2.693  0.3193 -0.1708 -0.2478
 5419WAT     H122382   7.083   6.121   2.608  1.2177  0.1292 -0.1686
 5419WAT     H222383   7.164   6.113   2.719 -0.5108  2.7818  1.4062
 5419WAT    EPW22384   7.094   6.105   2.684  0.3913  0.2757  0.4389
 5420WAT      O22385   5.078   0.696   6.714  0.2520 -0.5075 -0.1816
 5420WAT     H122386   5.031   0.769   6.714  0.7768 -0.1673 -0.6368
 5420WAT     H222387   5.112   0.694   6.795  1.3763  0.4997 -0.6090
 5420WAT    EPW22388   5.076   0.706   6.726  0.2222 -0.0894  0.1791
 5421WAT      O22389   6.716   6.809   1.065 -0.5096 -0.6389 -0.3587
 5421WAT     H122390   6.780   6.756   1.092  0.8610  0.3784 -1.4777
 5421WAT     H222391   6.757   6.884   1.048 -2.3585  0.7970  1.0343
 5421WAT    EPW22392   6.732   6.813   1.067 -0.6057 -0.1576 -0.0445
 5422WAT      O22393   6.947   0.813   2.454 -0.0204  0.1597  0.4302
 5422WAT     H122394   6.986   0.746   2.413 -0.2752  0.3577 -0.1460
 5422WAT     H222395   7.013   0.867   2.473  0.0957  0.0885  0.2311
 5422WAT    EPW22396   6.963   0.811   2.450 -0.6035 -0.2556 -0.1451
 5423WAT      O22397   0.678   4.657   1.878 -0.4105 -0.4668 -0.2460
 5423WAT     H122398   0.747   4.627   1.834  0.1313 -1.5710  1.2794
 5423WAT     H222399   0.679   4.611   1.952 -0.5652  2.1215  1.4858
 5423WAT    EPW22400   0.688   4.646   1.882 -0.5265 -0.7236  0.1023
 5424WAT      O22401   6.297   7.884   2.700  0.1211  0.4966 -0.1482
 5424WAT     H122402   6.313   7.941   2.764 -2.5116  1.2909 -0.1040
 5424WAT     H222403   6.376   7.868   2.666  1.2743  1.9175  1.7022
 5424WAT    EPW22404   6.311   7.890   2.704  0.1796  0.7119 -0.0653
 5425WAT      O22405   6.713   6.600   2.881  0.2923 -0.0583 -0.1969
 5425WAT     H122406   6.730   6.546   2.815  0.4218  0.0455 -0.2497
 5425WAT     H222407   6.773   6.663   2.871 -0.0223  0.2275 -0.2901
 5425WAT    EPW22408   6.725   6.601   2.870  0.0635  0.0581  0.1481
 5426WAT      O22409   1.129   6.757   7.711 -0.6158  0.7373  0.1142
 5426WAT     H122410   1.192   6.807   7.677 -0.7464  0.3846 -0.6790
 5426WAT     H222411   1.152   6.749   7.794  0.4336  0.5606 -0.1752
 5426WAT    EPW22412   1.142   6.763   7.718  0.0161 -0.2650 -0.1424
 5427WAT      O22413   6.829   8.047   0.211 -0.0223 -0.0990  0.2610
 5427WAT     H122414   6.895   8.037   0.267 -0.0913 -2.8769 -0.0206
 5427WAT     H222415   6.777   7.978   0.227 -0.9034 -0.0648 -2.0524
 5427WAT    EPW22416   6.831   8.035   0.221  0.1437 -0.2396 -0.3216
 5428WAT      O22417   5.371   1.544   3.998  0.3045  0.0162 -0.5881
 5428WAT     H122418   5.394   1.628   4.006  0.0974  0.0943 -0.8021
 5428WAT     H222419   5.421   1.516   3.932  2.1594 -0.6789  1.0308
 5428WAT    EPW22420   5.382   1.552   3.989  0.1157  0.3586  0.0814
 5429WAT      O22421   0.314   1.717   3.588  0.4630  0.2257  0.1676
 5429WAT     H122422   0.269   1.642   3.586 -2.7376  1.8911  1.3481
 5429WAT     H222423   0.304   1.748   3.508 -2.0643  1.2601  0.7740
 5429WAT    EPW22424   0.306   1.710   3.576 -0.2152  0.2030  0.3943
 5430WAT      O22425   6.059   2.174   5.269 -0.1969  0.2732 -0.1712
 5430WAT     H122426   6.061   2.166   5.356  1.1026  1.2627 -0.0819
 5430WAT     H222427   6.074   2.259   5.256 -0.7838  0.2093 -1.3571
 5430WAT    EPW22428   6.062   2.185   5.280 -0.0180  0.7771  0.3176
 5431WAT      O22429   3.438   2.966   7.197 -0.2799 -0.2665 -0.1015
 5431WAT     H122430   3.445   2.880   7.205  0.0535 -0.3447 -1.1143
 5431WAT     H222431   3.440   2.979   7.111  1.0280  0.8536  0.0668
 5431WAT    EPW22432   3.440   2.955   7.186 -0.5724  0.5327 -0.0186
 5432WAT      O22433   1.175   6.369   3.432 -0.0236  0.2929 -0.4336
 5432WAT     H122434   1.239   6.348   3.377 -0.7095 -0.7866 -0.8737
 5432WAT     H222435   1.103   6.357   3.384 -0.5887  0.4057  0.3697
 5432WAT    EPW22436   1.174   6.364   3.416  0.2409 -0.2405 -0.4183
 5433WAT      O22437   6.457   0.177   3.717  0.5163 -0.0378 -0.3316
 5433WAT     H122438   6.476   0.199   3.799 -1.2282  1.3104 -0.2128
 5433WAT     H222439   6.489   0.096   3.710  1.0737 -0.0451  1.5347
 5433WAT    EPW22440   6.464   0.168   3.728  0.6382 -0.1228  0.2817
 5434WAT      O22441   6.783   7.158   3.808 -0.1354  0.5861  0.4060
 5434WAT     H122442   6.781   7.221   3.868  2.0032 -0.1028  1.2986
 5434WAT     H222443   6.836   7.191   3.746  0.2807  0.0437  0.4632
 5434WAT    EPW22444   6.791   7.172   3.808  0.7611 -0.6959  0.1690
 5435WAT      O22445   2.432   5.540   7.694 -0.1834  0.2033 -0.2552
 5435WAT     H122446   2.408   5.499   7.767  3.3106  0.3215  1.1264
 5435WAT     H222447   2.403   5.621   7.705 -1.2846 -0.2143  0.0827
 5435WAT    EPW22448   2.424   5.546   7.706 -0.5074 -0.2196 -0.1624
 5436WAT      O22449   1.376   6.955   7.925 -0.3778 -0.3673 -0.4788
 5436WAT     H122450   1.328   6.950   7.998 -1.1260 -0.1025 -0.9370
 5436WAT     H222451   1.428   7.024   7.940 -0.0049 -0.7721  0.0995
 5436WAT    EPW22452   1.376   6.965   7.938 -0.0925 -0.0390  0.5963
 5437WAT      O22453   7.970   3.307   4.479 -0.1552  0.1836  0.4514
 5437WAT     H122454   7.945   3.283   4.399  0.7670  1.3201 -0.2139
 5437WAT     H222455   8.037   3.362   4.464  0.4232 -0.0354  2.0175
 5437WAT    EPW22456   7.976   3.312   4.465  0.4931 -0.4888 -0.5308
 5438WAT      O22457   3.809   5.131   6.433  0.5130  0.5400  0.0973
 5438WAT     H122458   3.817   5.183   6.503  0.2671 -0.2504  0.7273
 5438WAT     H222459   3.884   5.087   6.431  0.8135  1.0804 -0.5689
 5438WAT    EPW22460   3.821   5.132   6.443  0.0335  0.1176  0.3693
 5439WAT      O22461   1.020   0.318   0.606 -0.5149 -0.1084 -0.0384
 5439WAT     H122462   1.019   0.394   0.649 -0.4806 -0.2993  0.3064
 5439WAT     H222463   1.104   0.294   0.609  0.0052  1.1279 -2.4792
 5439WAT    EPW22464   1.032   0.326   0.613 -0.0382  0.1081  0.2819
 5440WAT      O22465   4.469   5.895   0.904 -0.1648 -0.2308  0.2808
 5440WAT     H122466   4.550   5.865   0.894 -0.2210 -0.2666 -0.1175
 5440WAT     H222467   4.421   5.845   0.850 -0.5404 -0.5463  0.8905
 5440WAT    EPW22468   4.474   5.883   0.894  0.3692  0.1071  0.3777
 5441WAT      O22469   0.468   5.778   2.595  0.9140 -0.6863  0.2755
 5441WAT     H122470   0.500   5.837   2.540  1.5085 -0.4121  0.8972
 5441WAT     H222471   0.507   5.704   2.572 -1.0849 -1.2559 -1.6087
 5441WAT    EPW22472   0.478   5.776   2.584  0.2621  0.1568  0.4651
 5442WAT      O22473   5.562   3.441   2.818 -0.8226 -0.0985 -0.0404
 5442WAT     H122474   5.481   3.429   2.788 -0.7793  1.9931 -1.1556
 5442WAT     H222475   5.613   3.418   2.751 -0.5646  0.4253 -0.0265
 5442WAT    EPW22476   5.558   3.435   2.804  0.2923  0.5119 -0.4505
 5443WAT      O22477   7.355   1.675   0.317 -0.3410  0.7147 -0.2485
 5443WAT     H122478   7.282   1.640   0.286  0.3228  0.4007 -1.4837
 5443WAT     H222479   7.379   1.620   0.381 -0.0480 -0.3544 -1.2551
 5443WAT    EPW22480   7.348   1.662   0.322 -0.8922  0.1476 -0.0438
 5444WAT      O22481   2.252   6.808   6.359  0.4629  0.1746  0.0288
 5444WAT     H122482   2.287   6.886   6.375  0.1022  0.5116 -0.7831
 5444WAT     H222483   2.218   6.785   6.436  2.2758 -0.0888  0.8018
 5444WAT    EPW22484   2.252   6.816   6.373  0.1255 -0.3269 -0.1612
 5445WAT      O22485   5.283   1.557   1.686  0.2416 -0.3171  0.2821
 5445WAT     H122486   5.352   1.540   1.635 -1.7798 -1.6241 -2.2076
 5445WAT     H222487   5.296   1.504   1.755  1.5212 -0.8343 -0.3189
 5445WAT    EPW22488   5.295   1.546   1.689 -0.4491 -0.2846  0.1633
 5446WAT      O22489   2.320   6.416   2.787 -0.1264  0.0390 -0.3782
 5446WAT     H122490   2.372   6.479   2.817  0.1848 -0.8548  1.0637
 5446WAT     H222491   2.375   6.351   2.766 -0.5873 -0.8444  0.9930
 5446WAT    EPW22492   2.336   6.416   2.788 -0.1245  0.7146 -0.5720
 5447WAT      O22493   7.342   5.968   0.996 -0.0088 -0.1632 -0.1113
 5447WAT     H122494   7.368   6.034   1.048  2.7219 -0.0001 -1.5182
 5447WAT     H222495   7.273   6.001   0.955 -1.4415  0.1696  2.3575
 5447WAT    EPW22496   7.336   5.983   0.998  0.0985 -0.3884  0.2503
 5448WAT      O22497   1.303   1.279   4.514 -0.2279 -0.2924  0.3017
 5448WAT     H122498   1.335   1.255   4.591 -0.0514 -1.9375 -0.2512
 5448WAT     H222499   1.363   1.336   4.484  0.6157 -0.9821  0.6308
 5448WAT    EPW22500   1.317   1.284   4.521  0.3659 -0.2298 -0.4033
 5449WAT      O22501   7.697   6.078   1.201  0.1433 -0.2294 -0.6314
 5449WAT     H122502   7.709   6.052   1.284  0.8632  0.2012 -0.5938
 5449WAT     H222503   7.610   6.082   1.194  0.0590 -0.9375 -0.1072
 5449WAT    EPW22504   7.686   6.075   1.212 -0.3110  0.3221 -0.1107
 5450WAT      O22505   2.910   4.164   6.966  0.9131  0.0987  0.1909
 5450WAT     H122506   2.836   4.128   6.938  1.8391 -1.9290  0.2002
 5450WAT     H222507   2.973   4.113   6.933  2.3477  1.8040  0.0949
 5450WAT    EPW22508   2.909   4.152   6.957  0.4335 -0.0031 -0.0220
 5451WAT      O22509   6.855   0.662   3.709  0.6984 -0.3349  0.3072
 5451WAT     H122510   6.804   0.591   3.714  1.6321 -0.9999  0.7837
 5451WAT     H222511   6.867   0.685   3.793 -2.5723  2.6786  0.1915
 5451WAT    EPW22512   6.849   0.655   3.722 -0.0703 -0.3592 -0.3627
 5452WAT      O22513   4.122   6.290   5.557  0.0353  0.5456  0.6853
 5452WAT     H122514   4.133   6.306   5.642  0.2921 -1.0553  0.9817
 5452WAT     H222515   4.132   6.204   5.551  0.5214  0.6949 -1.0583
 5452WAT    EPW22516   4.125   6.280   5.569  0.1122 -0.5542  0.3425
 5453WAT      O22517   0.633   7.962   1.607  0.3858  0.3066  0.3166
 5453WAT     H122518   0.648   7.888   1.651  1.8388  0.4684  0.1442
 5453WAT     H222519   0.603   8.016   1.668  1.4016  0.2217  0.9147
 5453WAT    EPW22520   0.630   7.959   1.622  0.5760 -0.0247  0.7743
 5454WAT      O22521   4.062   8.065   1.624  0.0239 -0.1886 -0.0969
 5454WAT     H122522   4.050   8.033   1.704 -3.8365  0.0146 -0.3740
 5454WAT     H222523   4.033   8.000   1.572  0.6367  0.4026 -1.2198
 5454WAT    EPW22524   4.056   8.050   1.628  0.2747  0.1550  0.1497
 5455WAT      O22525   2.961   1.655   2.293  0.1648  0.1735 -0.0664
 5455WAT     H122526   2.907   1.631   2.358 -0.4574  0.0177 -0.6294
 5455WAT     H222527   2.938   1.737   2.277 -0.1297  0.0054 -0.5235
 5455WAT    EPW22528   2.949   1.664   2.300 -0.2120  0.1539 -0.1469
 5456WAT      O22529   6.462   6.522   3.807  1.2325 -0.1518  0.6987
 5456WAT     H122530   6.477   6.605   3.783  2.4740 -0.3694  0.6157
 5456WAT     H222531   6.378   6.510   3.787  1.1987  0.8860  0.0916
 5456WAT    EPW22532   6.452   6.533   3.800 -0.2201 -0.4250 -0.3429
 5457WAT      O22533   1.473   7.149   5.088 -0.5862 -0.3132  0.4004
 5457WAT     H122534   1.450   7.078   5.043 -0.5425  0.1794 -0.4278
 5457WAT     H222535   1.470   7.123   5.171 -0.4341 -1.3137  0.1029
 5457WAT    EPW22536   1.469   7.135   5.094  0.0138 -0.7613 -0.1662
 5458WAT      O22537   4.675   1.763   5.979  0.0713  0.1190 -0.2957
 5458WAT     H122538   4.663   1.678   5.996 -0.0532  0.2994  0.5733
 5458WAT     H222539   4.604   1.786   5.934  0.8600 -0.6023 -1.9984
 5458WAT    EPW22540   4.663   1.754   5.975 -0.2190  0.0357 -0.6882
 5459WAT      O22541   5.699   5.506   1.978 -1.0424  0.1874  0.3640
 5459WAT     H122542   5.671   5.485   2.058 -0.7628  1.6012  0.8619
 5459WAT     H222543   5.741   5.581   1.991  2.1205 -1.2605 -0.4863
 5459WAT    EPW22544   5.701   5.514   1.992  0.2768 -0.6072  0.3963
 5460WAT      O22545   1.449   1.637   0.903  0.0457 -0.2640 -0.4082
 5460WAT     H122546   1.438   1.633   0.816  1.5415 -0.4398 -0.6194
 5460WAT     H222547   1.511   1.577   0.918  1.5372  1.4171  0.4517
 5460WAT    EPW22548   1.456   1.627   0.892 -0.0813  0.2105 -0.4855
 5461WAT      O22549   3.230   0.509   7.705  0.6666  0.1016  0.0346
 5461WAT     H122550   3.181   0.572   7.740  1.3132  0.5924  0.0798
 5461WAT     H222551   3.255   0.462   7.774  0.4767  0.0021  0.0372
 5461WAT    EPW22552   3.226   0.511   7.720  0.3027  0.2368 -0.1353
 5462WAT      O22553   5.542   0.850   0.507  0.0510 -0.3727 -0.6392
 5462WAT     H122554   5.602   0.894   0.552  0.3195  2.0644 -3.0865
 5462WAT     H222555   5.588   0.813   0.443 -0.6034 -1.7017 -0.3702
 5462WAT    EPW22556   5.557   0.851   0.504  0.1069  0.2354  0.3797
 5463WAT      O22557   0.345   1.774   3.151  0.4075 -0.0466 -0.6993
 5463WAT     H122558   0.350   1.823   3.079 -1.2314  0.4468 -0.5176
 5463WAT     H222559   0.423   1.737   3.156  1.6962  2.4181 -0.9442
 5463WAT    EPW22560   0.357   1.776   3.141  0.1762 -0.0558 -0.1619
 5464WAT      O22561   0.266   3.646   0.781  0.4871  0.0804 -0.2121
 5464WAT     H122562   0.218   3.595   0.832  0.3178 -0.3821 -0.8364
 5464WAT     H222563   0.268   3.722   0.825 -1.1557  0.2453 -0.3850
 5464WAT    EPW22564   0.259   3.650   0.795  0.7663 -0.6010  1.0255
 5465WAT      O22565   6.599   3.039   4.178 -0.2225  0.0222  0.2230
 5465WAT     H122566   6.569   2.984   4.238  1.4245 -0.8412  0.3241
 5465WAT     H222567   6.685   3.038   4.190  0.0915  0.4674 -1.5995
 5465WAT    EPW22568   6.607   3.031   4.188 -0.4337 -0.5163  0.7047
 5466WAT      O22569   6.738   6.945   4.618 -0.2808 -0.4370 -0.0369
 5466WAT     H122570   6.782   7.011   4.582  2.2947 -1.1140  1.5780
 5466WAT     H222571   6.739   6.884   4.556 -0.8830  0.2902 -0.7921
 5466WAT    EPW22572   6.745   6.946   4.604 -0.9985  0.1394 -0.5930
 5467WAT      O22573   1.099   4.921   2.585 -0.2325  0.2411 -0.0351
 5467WAT     H122574   1.013   4.909   2.582 -0.3284  0.3159  1.5541
 5467WAT     H222575   1.131   4.842   2.567 -0.5978  0.3287 -1.1691
 5467WAT    EPW22576   1.091   4.908   2.582  0.0670 -0.4478  0.0458
 5468WAT      O22577   6.018   2.853   6.786  0.3623  0.4226  0.6778
 5468WAT     H122578   6.002   2.771   6.763  0.1427  0.9353 -1.1992
 5468WAT     H222579   6.036   2.892   6.710 -0.1884  2.2599  1.4371
 5468WAT    EPW22580   6.018   2.847   6.771 -0.3286  0.3913 -0.2330
 5469WAT      O22581   5.278   5.772   7.174 -0.3664  0.0861 -0.0582
 5469WAT     H122582   5.234   5.796   7.245  0.2226 -2.9683  1.5144
 5469WAT     H222583   5.282   5.685   7.181 -0.6052 -0.4232 -4.0691
 5469WAT    EPW22584   5.272   5.763   7.185 -0.2121 -0.3953  0.6490
 5470WAT      O22585   3.659   6.502   2.723 -0.2452 -0.0572  0.0024
 5470WAT     H122586   3.650   6.527   2.806  0.1782 -0.7399  0.2656
 5470WAT     H222587   3.665   6.415   2.729  2.1690  0.0119 -0.4886
 5470WAT    EPW22588   3.659   6.493   2.736 -0.0715  0.1285 -0.0975
 5471WAT      O22589   1.839   3.238   6.771  0.2432 -0.4642 -1.0056
 5471WAT     H122590   1.800   3.281   6.705  1.7952  1.8555 -0.5480
 5471WAT     H222591   1.858   3.161   6.737  0.0718  0.2991 -2.9545
 5471WAT    EPW22592   1.836   3.233   6.756 -0.1193 -0.3521 -0.1991
 5472WAT      O22593   5.173   5.618   1.631  0.0695  0.5000  0.6454
 5472WAT     H122594   5.160   5.610   1.716 -0.7517 -0.5727  0.4432
 5472WAT     H222595   5.259   5.605   1.622 -0.2264 -2.3221  1.0591
 5472WAT    EPW22596   5.184   5.615   1.642  0.1826 -0.1318 -0.0980
 5473WAT      O22597   7.929   1.396   2.096 -0.2727 -0.0833 -0.1561
 5473WAT     H122598   7.847   1.401   2.066 -0.7711  1.9525  1.2628
 5473WAT     H222599   7.977   1.429   2.031 -0.9465  1.2438 -0.0246
 5473WAT    EPW22600   7.924   1.402   2.082  0.0575  0.1545  0.2991
 5474WAT      O22601   2.795   0.265   0.366 -0.2534 -0.0966 -0.6976
 5474WAT     H122602   2.738   0.205   0.338 -1.8624  1.4224 -0.7993
 5474WAT     H222603   2.843   0.221   0.425  0.0090 -2.0258 -2.2252
 5474WAT    EPW22604   2.794   0.249   0.371 -0.8382 -0.5592 -0.2939
 5475WAT      O22605   0.132   2.672   0.357  0.1053 -0.3640 -0.1016
 5475WAT     H122606   0.149   2.740   0.305  1.3350  0.4776  1.2990
 5475WAT     H222607   0.046   2.676   0.369 -0.0950 -0.1262 -1.4329
 5475WAT    EPW22608   0.122   2.683   0.351 -0.3523  0.5348 -0.3668
 5476WAT      O22609   6.441   2.300   5.280 -0.2861 -0.5215 -0.4454
 5476WAT     H122610   6.368   2.347   5.275  0.8021  1.1731 -1.4560
 5476WAT     H222611   6.473   2.321   5.359  0.8422  1.5848 -1.3751
 5476WAT    EPW22612   6.435   2.310   5.291 -0.0692  0.3840 -0.2638
 5477WAT      O22613   1.266   3.544   0.077  0.2953  0.1648 -0.2761
 5477WAT     H122614   1.317   3.473   0.074  0.8904  0.5465  0.7066
 5477WAT     H222615   1.193   3.515   0.115  0.0098 -0.2287 -1.0993
 5477WAT    EPW22616   1.263   3.529   0.082 -0.1785 -0.0893 -0.4900
 5478WAT      O22617   5.532   7.213   2.643  0.3888 -0.8267  0.1297
 5478WAT     H122618   5.536   7.296   2.669 -1.4817 -0.8370  0.5971
 5478WAT     H222619   5.524   7.219   2.556 -1.2975 -0.4036  0.2787
 5478WAT    EPW22620   5.531   7.226   2.634  0.4780 -0.1953  0.0118
 5479WAT      O22621   7.009   1.943   0.606 -0.5680 -0.0315  0.0064
 5479WAT     H122622   7.063   1.902   0.552 -1.9918  0.1595 -1.6301
 5479WAT     H222623   7.048   2.019   0.621  0.4621 -0.6062  0.3273
 5479WAT    EPW22624   7.023   1.948   0.601  0.1017 -0.7153  0.5237
 5480WAT      O22625   1.644   0.481   2.479  0.3543 -0.3011  0.2865
 5480WAT     H122626   1.655   0.563   2.508 -0.5942  0.4931 -1.4649
 5480WAT     H222627   1.572   0.454   2.521 -1.0151  0.8438 -1.1820
 5480WAT    EPW22628   1.635   0.489   2.490 -0.5029 -0.0215 -0.0153
 5481WAT      O22629   0.571   6.894   2.059  0.4482 -0.1183 -0.6918
 5481WAT     H122630   0.520   6.954   2.021  0.5039  0.0628 -0.4830
 5481WAT     H222631   0.597   6.845   1.992  1.5364  0.9408 -1.0756
 5481WAT    EPW22632   0.567   6.896   2.043  0.0374  0.1821 -0.4355
 5482WAT      O22633   4.117   5.751   7.680 -0.1475  0.0027 -0.0474
 5482WAT     H122634   4.186   5.708   7.713  1.6181  1.7730 -1.1784
 5482WAT     H222635   4.136   5.755   7.594 -2.5772 -0.9668 -0.7024
 5482WAT    EPW22636   4.130   5.745   7.672  0.2983  0.6904  0.5347
 5483WAT      O22637   5.891   0.301   3.008 -0.6866  0.4639 -0.1573
 5483WAT     H122638   5.927   0.276   2.933 -0.5219 -1.7634  0.5716
 5483WAT     H222639   5.809   0.323   2.986 -0.5447  0.1518 -1.0294
 5483WAT    EPW22640   5.884   0.301   2.994 -1.2924  0.2660  0.3198
 5484WAT      O22641   1.604   7.158   1.514 -0.5237  0.5710 -0.4442
 5484WAT     H122642   1.543   7.182   1.457 -1.8896  0.7482  1.0310
 5484WAT     H222643   1.661   7.224   1.510  0.0671  0.0175 -2.4295
 5484WAT    EPW22644   1.604   7.172   1.505  0.0398 -0.3950 -0.0012
 5485WAT      O22645   2.117   2.443   2.291  0.3362  0.1606  0.3871
 5485WAT     H122646   2.176   2.432   2.228 -0.5963 -0.2461 -0.4489
 5485WAT     H222647   2.042   2.420   2.252 -0.1524 -0.9653  1.8889
 5485WAT    EPW22648   2.114   2.438   2.276  0.4076  0.4817 -0.6327
 5486WAT      O22649   6.493   6.607   8.031  0.1558  0.2424  0.1102
 5486WAT     H122650   6.445   6.553   7.981 -0.0438  0.1708  0.3755
 5486WAT     H222651   6.433   6.655   8.072  0.1542 -1.5087  2.3506
 5486WAT    EPW22652   6.477   6.606   8.029 -0.0021 -0.4828  0.2436
 5487WAT      O22653   1.436   3.689   0.962 -0.3027 -0.1503 -0.1889
 5487WAT     H122654   1.456   3.768   0.931  0.0172 -0.3378 -0.4704
 5487WAT     H222655   1.349   3.688   0.962 -0.3194 -0.1567 -1.1315
 5487WAT    EPW22656   1.426   3.700   0.957 -0.4687 -0.5194  0.5299
 5488WAT      O22657   4.521   6.057   7.883  0.4022  0.6318  0.5794
 5488WAT     H122658   4.555   5.979   7.901 -1.5078 -0.2225  0.7381
 5488WAT     H222659   4.571   6.112   7.928  1.1046 -0.6160  1.3845
 5488WAT    EPW22660   4.533   6.053   7.892 -0.1595  0.1825  0.1092
 5489WAT      O22661   5.413   7.556   6.354  0.1263  0.1555  0.1656
 5489WAT     H122662   5.433   7.471   6.348  1.6088  0.4905 -0.0086
 5489WAT     H222663   5.364   7.560   6.426  1.0249 -0.7011  0.8548
 5489WAT    EPW22664   5.408   7.544   6.364 -0.1236 -0.2199 -0.0561
 5490WAT      O22665   0.323   1.147   3.628  0.3969  0.1416 -0.1900
 5490WAT     H122666   0.277   1.097   3.573 -1.4057  0.3372  1.0638
 5490WAT     H222667   0.405   1.120   3.617 -0.2982 -1.8273 -0.8598
 5490WAT    EPW22668   0.328   1.136   3.618 -0.0169  0.2444 -0.2825
 5491WAT      O22669   1.066   1.526   2.938 -0.0075  0.1421 -0.6184
 5491WAT     H122670   1.122   1.589   2.959  1.6622 -1.8257  1.5000
 5491WAT     H222671   1.003   1.567   2.894  1.6958  2.9595 -0.6550
 5491WAT    EPW22672   1.065   1.541   2.935 -0.2548 -0.1312 -0.0229
 5492WAT      O22673   3.835   6.453   4.462  0.2834 -0.3453 -0.0282
 5492WAT     H122674   3.822   6.516   4.403 -1.0131 -1.4393 -0.9690
 5492WAT     H222675   3.912   6.418   4.439  1.3357  1.2230  0.8824
 5492WAT    EPW22676   3.845   6.457   4.450  0.2968 -0.2941 -0.3713
 5493WAT      O22677   2.258   1.989   4.401 -0.0322 -0.2927 -0.6374
 5493WAT     H122678   2.338   2.017   4.382 -0.0159  0.1852  0.0828
 5493WAT     H222679   2.266   1.958   4.483 -0.0420 -2.4593 -1.3850
 5493WAT    EPW22680   2.271   1.989   4.411  0.6696 -0.1364  0.3736
 5494WAT      O22681   3.216   2.962   2.422 -0.3686 -0.5190  0.5322
 5494WAT     H122682   3.298   2.983   2.446  0.0924 -2.6418  0.9879
 5494WAT     H222683   3.168   2.983   2.492 -0.1696  0.3283  0.4271
 5494WAT    EPW22684   3.221   2.968   2.436 -0.3302  0.0044  0.1371
 5495WAT      O22685   6.615   0.633   4.174 -0.2745 -0.1797 -0.9452
 5495WAT     H122686   6.561   0.700   4.188 -0.7816 -0.7207 -0.2277
 5495WAT     H222687   6.596   0.608   4.093 -0.1548  0.4715 -1.1763
 5495WAT    EPW22688   6.604   0.639   4.164  0.2523 -0.5533  0.3748
 5496WAT      O22689   4.852   7.979   3.402  0.1693 -0.0138  0.1181
 5496WAT     H122690   4.909   8.015   3.457 -0.9155  1.6265  0.2469
 5496WAT     H222691   4.811   7.919   3.451  1.2565 -0.7285  0.2033
 5496WAT    EPW22692   4.854   7.975   3.417  0.6670 -0.1884 -0.1163
 5497WAT      O22693   5.900   0.131   2.120  0.1406  0.2698 -0.0409
 5497WAT     H122694   5.985   0.114   2.134  1.0512  0.5835 -3.9538
 5497WAT     H222695   5.885   0.202   2.168  2.9647  1.8456 -1.2461
 5497WAT    EPW22696   5.911   0.139   2.129 -1.1160 -0.1992  0.1374
 5498WAT      O22697   4.272   2.794   5.375  0.2003 -0.1305  0.5169
 5498WAT     H122698   4.319   2.775   5.304  1.0401  0.6631  0.8494
 5498WAT     H222699   4.231   2.868   5.352 -0.4708 -0.5197  0.4316
 5498WAT    EPW22700   4.273   2.802   5.361 -0.5144 -0.1077  0.4734
 5499WAT      O22701   6.974   0.488   2.786 -0.5278  0.5719  0.2100
 5499WAT     H122702   6.990   0.494   2.871  3.0049  0.2426 -0.2800
 5499WAT     H222703   6.947   0.568   2.765  0.4419  1.2400  1.3696
 5499WAT    EPW22704   6.973   0.501   2.795  0.0592  0.4419 -0.6969
 5500WAT      O22705   7.625   5.038   3.018  0.4017 -0.2461  0.3353
 5500WAT     H122706   7.571   5.021   2.952 -0.5195  0.7236  0.8012
 5500WAT     H222707   7.667   4.963   3.031 -0.2142 -0.7684 -0.6104
 5500WAT    EPW22708   7.624   5.024   3.011 -0.0913  0.6380  0.4173
 5501WAT      O22709   5.166   6.834   3.825  0.2565 -0.1381  0.0657
 5501WAT     H122710   5.175   6.747   3.821 -0.4064 -0.3142  1.6428
 5501WAT     H222711   5.141   6.856   3.745 -0.8766 -1.5781 -0.0098
 5501WAT    EPW22712   5.164   6.824   3.813  0.1035  0.2706  0.3141
 5502WAT      O22713   4.598   0.952   0.035 -0.2755 -0.1857  0.2912
 5502WAT     H122714   4.606   0.881   0.085 -0.2982 -0.1376  0.3631
 5502WAT     H222715   4.677   0.961  -0.001 -0.0763  0.1518  0.8137
 5502WAT    EPW22716   4.611   0.943   0.037 -0.2707  0.2084 -0.6182
 5503WAT      O22717   5.610   3.461   7.076 -0.0282  0.0370  0.7498
 5503WAT     H122718   5.614   3.492   6.994  2.4847  0.9990  1.1413
 5503WAT     H222719   5.535   3.416   7.077 -0.6192  0.7790 -1.7835
 5503WAT    EPW22720   5.600   3.459   7.064 -0.5370  0.7011 -0.0855
 5504WAT      O22721   6.848   1.913   3.999  0.5515 -0.2237 -0.6824
 5504WAT     H122722   6.922   1.958   4.010  0.2276  0.4740 -1.2323
 5504WAT     H222723   6.786   1.975   4.001 -0.3270 -1.0502  2.5574
 5504WAT    EPW22724   6.850   1.929   4.001  0.6688 -0.2148  0.1946
 5505WAT      O22725   6.162   0.913   0.993  0.1135  0.8542  0.2635
 5505WAT     H122726   6.205   0.837   0.991 -0.2016  0.6584  0.6789
 5505WAT     H222727   6.225   0.973   0.984  0.6825  0.6411  2.2527
 5505WAT    EPW22728   6.178   0.910   0.991 -0.1554  0.7895  0.0709
 5506WAT      O22729   5.130   1.484   5.249 -0.1265  0.2790  0.2776
 5506WAT     H122730   5.173   1.510   5.178  0.7613 -0.0508  0.6765
 5506WAT     H222731   5.134   1.397   5.245 -0.6331  0.2490  0.3959
 5506WAT    EPW22732   5.137   1.475   5.238  0.0151  0.4946 -0.0181
 5507WAT      O22733   0.424   7.116   1.969 -0.2483  0.2330  1.1135
 5507WAT     H122734   0.466   7.189   1.947  0.0514 -0.2717 -0.0263
 5507WAT     H222735   0.364   7.106   1.907  1.5208 -1.9774 -0.4074
 5507WAT    EPW22736   0.421   7.125   1.957 -0.2991 -0.0311  0.1620
 5508WAT      O22737   4.462   4.116   1.406 -0.0514  0.0637  0.4071
 5508WAT     H122738   4.434   4.034   1.397 -0.1604 -0.3045  3.0974
 5508WAT     H222739   4.392   4.159   1.435  0.3977  0.7376  0.5143
 5508WAT    EPW22740   4.448   4.110   1.409  0.1886  0.5910  0.2437
 5509WAT      O22741   1.566   1.447   1.192 -0.4370  0.4261  0.1267
 5509WAT     H122742   1.587   1.425   1.274  0.3106 -0.1578 -0.2004
 5509WAT     H222743   1.482   1.425   1.186 -0.4087  0.1473  0.6287
 5509WAT    EPW22744   1.557   1.441   1.204 -0.3509  0.7121 -0.2232
 5510WAT      O22745   6.498   6.834   1.226  0.1506  0.3599  0.5952
 5510WAT     H122746   6.555   6.814   1.164  1.0445  2.7527  0.5691
 5510WAT     H222747   6.421   6.822   1.187  0.6890  2.0241 -1.1176
 5510WAT    EPW22748   6.495   6.829   1.211  0.1794 -0.5673  0.1264
 5511WAT      O22749   6.153   7.640   0.464 -0.5780 -0.0137 -0.3734
 5511WAT     H122750   6.235   7.632   0.434 -0.2976  1.1744  0.0200
 5511WAT     H222751   6.164   7.654   0.549 -1.2406 -0.6312 -0.1757
 5511WAT    EPW22752   6.167   7.641   0.472 -0.8853 -0.1559 -0.5578
 5512WAT      O22753   5.288   0.554   7.133  0.4999  0.3134 -0.3487
 5512WAT     H122754   5.239   0.482   7.133  1.3326 -0.2752 -0.0692
 5512WAT     H222755   5.327   0.552   7.211  1.7799  0.1833 -0.9642
 5512WAT    EPW22756   5.287   0.543   7.145 -0.0873 -0.5534  0.2427
 5513WAT      O22757   5.243   7.938   5.212  0.0798  0.2620  0.7731
 5513WAT     H122758   5.254   7.852   5.209  0.0584  0.0840  3.6743
 5513WAT     H222759   5.161   7.949   5.184  0.1535 -0.6073  0.1720
 5513WAT    EPW22760   5.233   7.927   5.207  0.0387 -0.4249  0.0553
 5514WAT      O22761   7.231   1.253   0.704 -0.0880  0.7849 -0.0285
 5514WAT     H122762   7.181   1.181   0.710 -0.0621  0.7691  0.0064
 5514WAT     H222763   7.178   1.317   0.727 -0.3297  0.8751 -0.8197
 5514WAT    EPW22764   7.216   1.252   0.709  0.1949  0.8795 -0.6465
 5515WAT      O22765   4.771   1.107   3.495 -0.4582  0.0600  0.1730
 5515WAT     H122766   4.757   1.159   3.564 -0.7405  2.2812 -1.4576
 5515WAT     H222767   4.832   1.149   3.450 -2.3907  0.3140 -2.4416
 5515WAT    EPW22768   4.778   1.121   3.499  0.1328 -0.3781 -0.1464
 5516WAT      O22769   4.226   1.717   4.452 -0.6665  0.7843 -0.4333
 5516WAT     H122770   4.311   1.737   4.445 -0.4998  0.3011  0.2094
 5516WAT     H222771   4.192   1.750   4.378  0.2184  0.2478 -1.1039
 5516WAT    EPW22772   4.234   1.725   4.440 -0.0043 -0.4540 -0.5560
 5517WAT      O22773   5.967   5.932   0.113 -0.8372  0.4568  0.6016
 5517WAT     H122774   5.940   5.948   0.195 -0.4380  0.5029  0.7282
 5517WAT     H222775   5.902   5.885   0.079 -0.1110 -1.3912  1.6066
 5517WAT    EPW22776   5.953   5.927   0.120  0.2872 -0.1308  0.3498
 5518WAT      O22777   7.221   0.782   3.392  0.7027  0.0191  0.2684
 5518WAT     H122778   7.176   0.717   3.355 -0.6391  0.4580  1.0663
 5518WAT     H222779   7.193   0.783   3.474 -0.4078  2.5005 -0.0581
 5518WAT    EPW22780   7.210   0.772   3.399 -0.0272 -1.3829  0.3752
 5519WAT      O22781   4.016   2.634   1.511 -0.1950 -0.3844  0.5359
 5519WAT     H122782   4.058   2.597   1.444  0.8193  3.0537 -0.9852
 5519WAT     H222783   3.932   2.622   1.491 -0.0539 -3.6596  1.3759
 5519WAT    EPW22784   4.010   2.627   1.498  0.0827  0.9632  0.6203
 5520WAT      O22785   5.614   5.261   0.368  0.4239 -0.2250 -0.3343
 5520WAT     H122786   5.571   5.254   0.444  1.0329 -0.0640  0.0322
 5520WAT     H222787   5.582   5.333   0.332  1.9392  1.1664  0.9619
 5520WAT    EPW22788   5.603   5.270   0.374 -0.0590  0.0370 -0.7068
 5521WAT      O22789   3.095   0.019   0.008  0.3932  0.1387 -0.7546
 5521WAT     H122790   3.022   0.066   0.004  0.1576 -0.2785 -1.7792
 5521WAT     H222791   3.141   0.057   0.072 -0.7019  0.4210 -0.1128
 5521WAT    EPW22792   3.091   0.032   0.017  0.1528  1.0808  0.1804
 5522WAT      O22793   1.424   2.986   0.085 -0.6598  0.1953 -0.0061
 5522WAT     H122794   1.340   2.963   0.092 -0.1542 -1.7098  0.5010
 5522WAT     H222795   1.428   3.026   0.008 -2.2098  1.2631  0.4170
 5522WAT    EPW22796   1.412   2.988   0.075  0.1832 -0.8069 -0.1508
 5523WAT      O22797   0.729   2.305   2.759 -0.0761 -0.1501 -0.1025
 5523WAT     H122798   0.698   2.379   2.793 -0.4895  0.5045 -1.7954
 5523WAT     H222799   0.815   2.310   2.775 -0.2386  0.1691  0.7240
 5523WAT    EPW22800   0.737   2.317   2.766  0.0609  0.1767  0.9373
 5524WAT      O22801   3.499   6.825   7.562  0.0491 -0.2900 -0.3599
 5524WAT     H122802   3.567   6.784   7.527  1.1039 -0.3434  1.5658
 5524WAT     H222803   3.434   6.767   7.557  0.8693 -1.2794  0.1109
 5524WAT    EPW22804   3.500   6.810   7.556  0.0795 -0.0050 -0.1919
 5525WAT      O22805   1.482   2.055   0.757  0.1232 -0.5590  0.2485
 5525WAT     H122806   1.543   2.060   0.695 -0.6515  0.4183 -0.4650
 5525WAT     H222807   1.432   1.988   0.731 -0.6617  0.3503 -0.6298
 5525WAT    EPW22808   1.484   2.046   0.744 -0.3245 -0.1872  0.8491
 5526WAT      O22809   6.948   0.549   0.858  0.1878  0.0152 -0.1304
 5526WAT     H122810   6.959   0.483   0.801  1.5474 -0.2441  0.4065
 5526WAT     H222811   6.879   0.523   0.905  0.0605 -0.5320 -0.5990
 5526WAT    EPW22812   6.940   0.535   0.856  0.5292 -0.0453  0.2605
 5527WAT      O22813   4.915   2.381   7.808  0.2755 -0.5460 -0.1210
 5527WAT     H122814   4.847   2.383   7.754 -1.0092  0.2920  1.4467
 5527WAT     H222815   4.932   2.296   7.817  0.4833 -0.7028 -1.7504
 5527WAT    EPW22816   4.908   2.369   7.801 -0.3577  0.4383  0.2003
 5528WAT      O22817   3.818   6.484   6.654  0.2641 -0.0229 -0.0065
 5528WAT     H122818   3.807   6.565   6.687  0.0669  0.1467 -0.4804
 5528WAT     H222819   3.888   6.492   6.603  0.5584 -0.2812  0.3535
 5528WAT    EPW22820   3.827   6.497   6.652 -0.2077  0.4410 -0.5022
 5529WAT      O22821   7.368   7.989   0.421  0.8935  0.2607 -0.0502
 5529WAT     H122822   7.346   8.058   0.470 -1.2255 -0.3031 -0.1356
 5529WAT     H222823   7.314   7.926   0.449  3.2807 -1.6652  0.5760
 5529WAT    EPW22824   7.357   7.990   0.433 -0.0222 -0.0554  0.0207
 5530WAT      O22825   7.712   0.873   0.576  0.0357 -0.1239  0.0869
 5530WAT     H122826   7.728   0.955   0.550 -0.2159  0.4454  1.6420
 5530WAT     H222827   7.785   0.849   0.617 -0.7292  0.2322  1.7466
 5530WAT    EPW22828   7.725   0.882   0.578  0.3136  0.4277 -0.3537
 5531WAT      O22829   6.285   1.610   2.167  0.0985  0.0267  0.1687
 5531WAT     H122830   6.286   1.674   2.106  0.6056 -1.2693 -1.2419
 5531WAT     H222831   6.323   1.647   2.236 -0.9092  1.7015 -0.1078
 5531WAT    EPW22832   6.291   1.625   2.168 -0.2411 -0.4015  0.1784
 5532WAT      O22833   4.442   1.795   1.747 -0.3513 -0.1320 -0.0992
 5532WAT     H122834   4.388   1.731   1.771 -1.0679 -0.3993 -2.2109
 5532WAT     H222835   4.478   1.765   1.674  2.2746  0.2961  0.9019
 5532WAT    EPW22836   4.440   1.781   1.740  0.0753 -0.1107 -0.1102
 5533WAT      O22837   5.755   0.973   0.649  0.3044  0.3419 -0.1791
 5533WAT     H122838   5.754   1.018   0.723  2.2142  2.7869 -1.5006
 5533WAT     H222839   5.833   0.934   0.649 -0.2315 -0.7755 -0.3252
 5533WAT    EPW22840   5.766   0.973   0.660 -0.0725  0.6013 -0.4356
 5534WAT      O22841   5.470   4.124   7.703  0.0122  0.1019 -0.0419
 5534WAT     H122842   5.400   4.074   7.715  1.0145 -1.1868  0.7273
 5534WAT     H222843   5.451   4.170   7.631 -0.9414 -1.4145 -0.8009
 5534WAT    EPW22844   5.457   4.124   7.694  0.1726  0.6034  0.8156
 5535WAT      O22845   3.916   2.644   7.642  0.0806 -0.2066 -0.2081
 5535WAT     H122846   3.939   2.725   7.664  1.4046 -0.7409  0.4849
 5535WAT     H222847   3.922   2.600   7.717  0.3672 -1.1568 -0.7786
 5535WAT    EPW22848   3.920   2.649   7.656  0.4572 -0.2634 -0.3847
 5536WAT      O22849   5.007   1.212   1.959 -0.2725  0.0645  0.1875
 5536WAT     H122850   4.960   1.264   2.012  2.5564  3.2075 -0.0134
 5536WAT     H222851   4.971   1.225   1.881 -1.9420 -1.4260  0.6333
 5536WAT    EPW22852   4.995   1.222   1.956  0.0891  0.2943 -0.0666
 5537WAT      O22853   3.026   7.840   1.231 -0.1015 -0.5308 -0.0225
 5537WAT     H122854   3.022   7.872   1.150 -1.5605 -0.3258  0.1045
 5537WAT     H222855   3.104   7.800   1.234  0.1927 -0.0912 -1.3420
 5537WAT    EPW22856   3.037   7.839   1.220 -0.1554 -0.0801 -0.5673
 5538WAT      O22857   4.585   4.226   5.875  0.1788 -0.2531  0.3983
 5538WAT     H122858   4.504   4.249   5.898 -0.1742 -0.6838 -0.3651
 5538WAT     H222859   4.587   4.140   5.890  1.9542  0.2947  4.6311
 5538WAT    EPW22860   4.573   4.216   5.880 -0.8230 -0.5151  0.2705
 5539WAT      O22861   7.449   4.388   1.835 -0.2304  0.5649  0.3931
 5539WAT     H122862   7.398   4.356   1.898 -1.9329  1.8291 -0.2948
 5539WAT     H222863   7.398   4.389   1.765  1.1173  0.8009 -0.6285
 5539WAT    EPW22864   7.434   4.383   1.834  0.6454  0.8256 -0.4876
 5540WAT      O22865   6.108   0.872   1.833 -0.2576 -0.1161 -0.3452
 5540WAT     H122866   6.160   0.803   1.846  0.8679  0.5249 -1.2413
 5540WAT     H222867   6.064   0.880   1.908  1.1311 -0.5312  0.5469
 5540WAT    EPW22868   6.109   0.863   1.846  0.1238 -0.1331  0.2506
 5541WAT      O22869   5.403   1.898   0.468  0.2167  0.3524  0.3225
 5541WAT     H122870   5.339   1.940   0.510 -0.0727 -0.2387  0.4925
 5541WAT     H222871   5.375   1.815   0.468 -0.3275  0.4859 -2.0081
 5541WAT    EPW22872   5.389   1.892   0.474 -0.0871 -1.0688  0.0749
 5542WAT      O22873   7.371   0.801   0.882  0.6185  0.6985  0.1517
 5542WAT     H122874   7.344   0.819   0.963 -1.7423 -1.0949 -0.1011
 5542WAT     H222875   7.301   0.817   0.833  1.9545  1.6244 -1.5733
 5542WAT    EPW22876   7.357   0.806   0.887  0.6185  0.3009 -0.1676
 5543WAT      O22877   2.788   7.202   0.958  0.3992  0.4621 -0.7256
 5543WAT     H122878   2.834   7.265   0.919  0.0726  1.9621  1.1587
 5543WAT     H222879   2.714   7.198   0.910  0.6696  1.0885 -1.2118
 5543WAT    EPW22880   2.784   7.211   0.945  0.0105 -0.0929  0.1546
 5544WAT      O22881   0.876   5.018   0.767 -0.4923  0.3446  0.2166
 5544WAT     H122882   0.949   5.040   0.810 -0.5189  1.7709 -0.4164
 5544WAT     H222883   0.904   4.999   0.687 -0.7612  0.5181  0.0801
 5544WAT    EPW22884   0.891   5.018   0.762  0.0336  0.7738 -0.4289
 5545WAT      O22885   4.410   7.461   3.377  0.3257 -0.0213  0.3455
 5545WAT     H122886   4.349   7.481   3.318  0.7196 -0.3593 -0.1812
 5545WAT     H222887   4.443   7.386   3.348  2.0616  0.9125 -0.2392
 5545WAT    EPW22888   4.406   7.453   3.364  0.0977  0.2468 -0.1905
 5546WAT      O22889   6.252   7.878   7.669  0.5140  0.1898 -0.3654
 5546WAT     H122890   6.171   7.856   7.693  0.4644  1.1263  0.3631
 5546WAT     H222891   6.240   7.922   7.595  0.3848  0.1311 -0.3813
 5546WAT    EPW22892   6.238   7.881   7.662  0.5515  0.0237  0.5585
 5547WAT      O22893   4.034   7.224   2.340  0.1747 -0.1431  0.0618
 5547WAT     H122894   4.057   7.173   2.273 -0.1309 -0.5633  0.2659
 5547WAT     H222895   4.108   7.236   2.384 -0.1979 -2.9403  1.7091
 5547WAT    EPW22896   4.048   7.218   2.337 -0.2282  0.0860  0.0641
 5548WAT      O22897   7.926   0.484   3.995 -0.4265 -0.2151 -0.1778
 5548WAT     H122898   7.927   0.461   4.079 -2.7508 -0.3996 -0.1426
 5548WAT     H222899   7.908   0.569   3.998 -0.7273 -0.2687 -0.5007
 5548WAT    EPW22900   7.924   0.493   4.008  0.2047  0.1042 -0.6177
 5549WAT      O22901   1.560   6.740   7.900 -0.4165  0.1618 -0.1025
 5549WAT     H122902   1.596   6.747   7.821  0.7436  2.7898  0.5543
 5549WAT     H222903   1.496   6.799   7.898 -0.5839  0.0186  0.7987
 5549WAT    EPW22904   1.556   6.750   7.888 -0.0573 -0.1367  0.1988
 5550WAT      O22905   7.480   1.059   3.183 -1.0617  0.2126  0.2096
 5550WAT     H122906   7.447   1.005   3.242 -0.1511 -1.2529 -0.5629
 5550WAT     H222907   7.424   1.054   3.116 -1.6313  1.2098  0.5860
 5550WAT    EPW22908   7.467   1.050   3.182 -0.2730 -0.3444  0.1974
 5551WAT      O22909   4.978   2.296   1.449 -0.0601  0.4842  0.3540
 5551WAT     H122910   5.002   2.326   1.527 -0.0795  1.9890 -0.1854
 5551WAT     H222911   5.012   2.354   1.394 -2.0823  0.8108 -0.6325
 5551WAT    EPW22912   4.987   2.309   1.452  0.2380  0.0660  0.0813
 5552WAT      O22913   6.346   7.786   3.612  0.0508  0.1791  0.2313
 5552WAT     H122914   6.274   7.816   3.650 -0.6198  1.0574 -1.6120
 5552WAT     H222915   6.360   7.842   3.547  1.8466 -0.5402 -0.0586
 5552WAT    EPW22916   6.338   7.799   3.608 -0.1015 -0.3348 -0.0381
 5553WAT      O22917   4.333   2.750   1.434  0.5514  0.0759  0.0956
 5553WAT     H122918   4.383   2.720   1.369  0.3330 -1.7612  0.7078
 5553WAT     H222919   4.331   2.683   1.490 -3.6683 -0.5679 -0.4841
 5553WAT    EPW22920   4.340   2.736   1.433 -0.0469 -0.3248 -0.3293
 5554WAT      O22921   5.314   6.164   7.105 -0.1836  0.4201  0.5758
 5554WAT     H122922   5.345   6.093   7.065  1.7680  0.5253  1.7212
 5554WAT     H222923   5.233   6.172   7.075  0.2790 -1.0409 -1.2165
 5554WAT    EPW22924   5.307   6.155   7.095  0.4090 -0.1551 -0.5279
 5555WAT      O22925   2.358   0.328   2.742  0.0377 -0.1167 -0.2792
 5555WAT     H122926   2.378   0.412   2.754 -0.0013 -0.2640  1.0535
 5555WAT     H222927   2.271   0.328   2.736  0.1392  0.1109 -2.1188
 5555WAT    EPW22928   2.348   0.340   2.743 -0.2999 -0.1142  0.3265
 5556WAT      O22929   6.847   5.399   1.315 -0.5354  0.5488 -0.0668
 5556WAT     H122930   6.796   5.336   1.348 -0.0819  1.0024  1.5965
 5556WAT     H222931   6.824   5.402   1.231  0.9404 -3.3275 -0.8088
 5556WAT    EPW22932   6.836   5.390   1.308 -0.2866  0.7706 -0.5633
 5557WAT      O22933   4.380   6.828   7.779  0.6131  0.0547  0.5181
 5557WAT     H122934   4.442   6.770   7.755  1.1523  0.8671 -0.0856
 5557WAT     H222935   4.426   6.894   7.812 -0.0223  0.0079  1.5579
 5557WAT    EPW22936   4.396   6.829   7.781  0.4558 -0.1659 -0.5799
 5558WAT      O22937   2.809   7.639   7.321 -0.3301 -0.1067  0.6525
 5558WAT     H122938   2.846   7.701   7.272 -0.3187 -0.7219 -0.1534
 5558WAT     H222939   2.753   7.682   7.371 -2.4563  0.3415 -1.8822
 5558WAT    EPW22940   2.807   7.654   7.321 -0.0073  0.5458  1.1633
 5559WAT      O22941   2.910   6.548   7.974 -1.3051  0.3431 -0.2770
 5559WAT     H122942   2.919   6.486   7.914  0.6291 -0.5232  0.8083
 5559WAT     H222943   2.840   6.523   8.019  0.0097 -1.7441  0.7958
 5559WAT    EPW22944   2.901   6.535   7.972  0.6250 -0.1652 -0.0170
 5560WAT      O22945   3.613   6.417   0.544  0.0307 -0.3568 -0.3835
 5560WAT     H122946   3.645   6.483   0.591  2.8747 -2.6461  1.2105
 5560WAT     H222947   3.527   6.422   0.557  0.3154  1.9132  1.1204
 5560WAT    EPW22948   3.605   6.427   0.553  0.9762  0.2587  0.0420
 5561WAT      O22949   2.480   5.329   7.926 -0.0577  0.2092 -0.3289
 5561WAT     H122950   2.477   5.350   8.011  0.7776  0.9519 -0.4634
 5561WAT     H222951   2.429   5.258   7.920 -0.0760  0.1123  0.8016
 5561WAT    EPW22952   2.472   5.321   7.938 -0.7682  0.6301  0.3250
 5562WAT      O22953   3.365   2.395   0.416  0.2223 -0.0560  0.4697
 5562WAT     H122954   3.418   2.327   0.431 -0.3796 -0.4324  0.9557
 5562WAT     H222955   3.386   2.452   0.479  1.2128  0.5215 -0.3559
 5562WAT    EPW22956   3.376   2.393   0.428  0.2958 -0.4013 -0.0065
 5563WAT      O22957   5.345   7.404   7.788  0.1388 -0.2464 -0.1135
 5563WAT     H122958   5.301   7.416   7.862  0.1804  1.1637 -0.3010
 5563WAT     H222959   5.298   7.448   7.729  1.8886  1.4755 -0.2830
 5563WAT    EPW22960   5.331   7.412   7.790 -0.1375  0.2870  0.0890
 5564WAT      O22961   5.316   1.797   4.877 -0.2575 -0.2255  0.0741
 5564WAT     H122962   5.367   1.860   4.844 -1.2669  1.3472  1.3724
 5564WAT     H222963   5.330   1.730   4.823  2.0905  0.5624 -0.4243
 5564WAT    EPW22964   5.325   1.796   4.864  0.4566  0.0635  0.1337
 5565WAT      O22965   5.761   0.635   6.332  0.5543 -0.0795 -0.2661
 5565WAT     H122966   5.717   0.668   6.400  0.1658 -0.9049 -0.1050
 5565WAT     H222967   5.823   0.586   6.370  0.3463 -0.5285 -0.5109
 5565WAT    EPW22968   5.764   0.633   6.348 -0.0379 -0.5492  0.5964
 5566WAT      O22969   2.997   5.849   4.151 -0.3129  0.5661  0.4532
 5566WAT     H122970   3.000   5.887   4.073  0.2516  1.2961  0.8161
 5566WAT     H222971   2.913   5.829   4.161 -0.3362  0.1149 -0.4936
 5566WAT    EPW22972   2.985   5.852   4.141 -0.0734  0.2515 -0.0892
 5567WAT      O22973   5.197   5.152   4.665 -0.1539  0.0398  0.4704
 5567WAT     H122974   5.231   5.090   4.613 -0.5502  0.7472 -0.6849
 5567WAT     H222975   5.124   5.116   4.694 -0.8066  0.2198 -0.8546
 5567WAT    EPW22976   5.191   5.138   4.661 -0.2648  0.2784  0.1938
 5568WAT      O22977   3.399   7.479   1.275 -0.8031  0.0760 -0.3999
 5568WAT     H122978   3.364   7.438   1.206 -0.6648 -1.8922  0.6205
 5568WAT     H222979   3.431   7.413   1.323 -0.7277  1.3950  1.4468
 5568WAT    EPW22980   3.399   7.463   1.272  0.4598  0.2559  0.0189
 5569WAT      O22981   4.499   6.613   4.078  0.0827  0.3691  0.1570
 5569WAT     H122982   4.431   6.661   4.106  0.6468  0.9440  0.5794
 5569WAT     H222983   4.510   6.640   3.996 -1.0149 -0.6767 -0.3629
 5569WAT    EPW22984   4.490   6.624   4.070 -0.1954 -0.2889  0.0530
 5570WAT      O22985   5.627   0.844   7.839 -0.6380 -0.0213  1.0926
 5570WAT     H122986   5.698   0.880   7.804 -0.3646 -1.2616  0.2913
 5570WAT     H222987   5.573   0.911   7.851 -0.0647  0.6782 -0.0797
 5570WAT    EPW22988   5.630   0.859   7.836  0.1686 -0.7369 -0.0524
 5571WAT      O22989   4.133   6.569   5.987  0.4868  0.2550 -0.0278
 5571WAT     H122990   4.087   6.609   5.925  0.8330  1.5198  0.4890
 5571WAT     H222991   4.209   6.613   5.988  0.5990  0.0702  1.0714
 5571WAT    EPW22992   4.138   6.581   5.978 -0.4947  0.3700 -0.2955
 5572WAT      O22993   4.961   2.849   0.867  0.4571 -0.2778  0.5523
 5572WAT     H122994   4.883   2.849   0.906  1.0374  0.9827  1.8182
 5572WAT     H222995   5.001   2.780   0.902  0.0297 -0.7420  0.1366
 5572WAT    EPW22996   4.955   2.839   0.878  1.1048 -0.3377 -0.3114
 5573WAT      O22997   2.251   2.031   6.018  0.1947  0.4734 -0.5067
 5573WAT     H122998   2.259   1.971   5.955 -0.5428 -0.8991  0.6432
 5573WAT     H222999   2.166   2.033   6.034  0.3077  1.2101  0.0840
 5573WAT    EPW23000   2.240   2.023   6.011  0.1151 -0.1079  0.1143
 5574WAT      O23001   4.778   3.387   6.669  0.3077 -0.1626 -0.2899
 5574WAT     H123002   4.772   3.441   6.737 -0.1894 -0.8471  0.2354
 5574WAT     H223003   4.717   3.416   6.614  0.6956  0.3800 -0.4390
 5574WAT    EPW23004   4.768   3.399   6.671  0.3944 -0.0569  0.0306
 5575WAT      O23005   2.224   6.491   0.031 -0.1065  0.5382 -0.0029
 5575WAT     H123006   2.279   6.524   0.091  0.9144 -0.1739 -0.5174
 5575WAT     H223007   2.147   6.526   0.053  0.5509  1.6147  0.7141
 5575WAT    EPW23008   2.221   6.501   0.044 -0.0852 -0.2680 -0.6128
 5576WAT      O23009   2.635   7.579   5.427  0.3095 -0.0271  0.3214
 5576WAT     H123010   2.671   7.500   5.433  0.4168 -0.0771 -0.7622
 5576WAT     H223011   2.671   7.612   5.355  1.2952  1.5455  1.4789
 5576WAT    EPW23012   2.646   7.572   5.417 -0.0325  0.9519  0.1465
 5577WAT      O23013   4.518   7.001   2.689 -0.1973  0.4116  0.2427
 5577WAT     H123014   4.592   7.048   2.693 -0.3616  0.6593  0.4089
 5577WAT     H223015   4.546   6.919   2.696  0.2965  0.3117 -1.9424
 5577WAT    EPW23016   4.533   6.996   2.690 -0.3822 -0.2973  0.3126
 5578WAT      O23017   4.428   5.525   5.704 -0.0155  0.0323  0.9101
 5578WAT     H123018   4.408   5.598   5.749 -0.7256 -0.5391  1.5472
 5578WAT     H223019   4.360   5.514   5.651  0.2986  0.0643  0.4916
 5578WAT    EPW23020   4.415   5.534   5.703  0.4637 -0.1392  0.4517
 5579WAT      O23021   5.196   1.161   4.068  0.0392  0.2724 -0.3445
 5579WAT     H123022   5.199   1.076   4.051 -0.0865  0.8148 -3.6957
 5579WAT     H223023   5.125   1.170   4.118  0.6217 -1.6169  0.9245
 5579WAT    EPW23024   5.186   1.150   4.073 -0.1899  0.2438 -0.1730
 5580WAT      O23025   4.992   5.291   1.550 -0.1208  0.1221  0.3027
 5580WAT     H123026   4.957   5.215   1.527  0.0608  0.5958 -1.7221
 5580WAT     H223027   5.072   5.289   1.514  0.3717  0.7658  1.2923
 5580WAT    EPW23028   4.999   5.280   1.541  0.2449  0.7482  0.1277
 5581WAT      O23029   2.799   4.047   7.915 -0.2243 -0.4214  0.5806
 5581WAT     H123030   2.811   4.096   7.844  1.7206  0.5850  1.5129
 5581WAT     H223031   2.738   3.990   7.891 -0.6761  0.8087 -1.4038
 5581WAT    EPW23032   2.792   4.046   7.901 -0.1817  0.8725 -0.0384
 5582WAT      O23033   3.056   3.626   0.279 -0.1246 -0.9304  0.0829
 5582WAT     H123034   3.054   3.608   0.193  0.1120  0.0350 -0.1403
 5582WAT     H223035   3.140   3.614   0.300 -0.2277 -1.3904  0.2287
 5582WAT    EPW23036   3.068   3.622   0.269 -0.0234 -0.0685  0.3964
 5583WAT      O23037   4.359   3.119   6.688  0.1420  0.1415 -0.4300
 5583WAT     H123038   4.394   3.169   6.751 -0.4307  0.0066  0.0054
 5583WAT     H223039   4.306   3.173   6.645  1.5179  0.5720 -1.6478
 5583WAT    EPW23040   4.356   3.134   6.691  0.1177 -0.1308 -0.6641
 5584WAT      O23041   7.133   7.501   0.113 -0.1350  0.0256 -0.3144
 5584WAT     H123042   7.109   7.580   0.086 -1.2243 -0.4959 -0.9055
 5584WAT     H223043   7.219   7.510   0.128 -0.3508  1.4591  0.1795
 5584WAT    EPW23044   7.142   7.514   0.111 -0.2242  0.5231 -0.7401
 5585WAT      O23045   5.474   6.714   5.072 -0.0579 -0.7526  0.5924
 5585WAT     H123046   5.414   6.693   5.012 -1.0088  2.1462  0.3827
 5585WAT     H223047   5.548   6.714   5.027 -0.7296  1.1848 -0.6388
 5585WAT    EPW23048   5.476   6.710   5.056  0.1317  0.5765  0.6486
 5586WAT      O23049   2.211   4.715   4.791  0.1999 -0.0485  0.1362
 5586WAT     H123050   2.248   4.694   4.867  1.0850  0.2692 -0.1989
 5586WAT     H223051   2.256   4.785   4.764 -1.5793  1.2756  0.4004
 5586WAT    EPW23052   2.223   4.722   4.798  0.2333 -0.1485 -0.2024
 5587WAT      O23053   3.976   6.316   3.571  0.3332 -0.1858 -0.0437
 5587WAT     H123054   4.039   6.290   3.517 -1.1156 -2.5501 -0.7841
 5587WAT     H223055   3.947   6.390   3.535  0.7291 -0.6700 -1.4139
 5587WAT    EPW23056   3.981   6.323   3.558 -0.2455  0.0071 -0.1386
 5588WAT      O23057   4.310   2.421   2.125 -0.2845  0.5122  0.2768
 5588WAT     H123058   4.301   2.508   2.124 -0.8807  0.4630 -0.9105
 5588WAT     H223059   4.329   2.402   2.042 -1.7370 -0.6273  0.1678
 5588WAT    EPW23060   4.311   2.431   2.113 -0.5029  0.2081 -0.1699
 5589WAT      O23061   2.838   2.531   5.947  0.2035  0.4235 -0.0301
 5589WAT     H123062   2.819   2.475   6.012  0.8135  0.0845 -0.1385
 5589WAT     H223063   2.861   2.478   5.881 -0.1441  0.7740 -0.4364
 5589WAT    EPW23064   2.838   2.515   5.947 -0.1680 -0.0719  0.0565
 5590WAT      O23065   1.642   7.341   0.899 -0.5158  0.1670 -0.1428
 5590WAT     H123066   1.580   7.398   0.921  1.4468  2.3169  0.1434
 5590WAT     H223067   1.638   7.339   0.812 -0.0914  1.3893 -0.2035
 5590WAT    EPW23068   1.632   7.349   0.889  0.0938  0.1281 -0.1152
 5591WAT      O23069   0.365   0.977   0.924  0.2128  0.0857  0.0103
 5591WAT     H123070   0.379   0.946   1.005  0.2391  1.3831  0.5265
 5591WAT     H223071   0.444   0.985   0.890  0.4299  1.9309  0.8154
 5591WAT    EPW23072   0.379   0.973   0.931  0.5476  0.2896 -0.1795
 5592WAT      O23073   3.062   0.962   7.748  0.1384  0.4880  0.3230
 5592WAT     H123074   3.032   0.972   7.667 -0.7460 -1.1274  0.4172
 5592WAT     H223075   3.142   0.997   7.744 -0.6185  2.2621 -0.6822
 5592WAT    EPW23076   3.070   0.969   7.735  0.4493 -0.5029 -1.0915
 5593WAT      O23077   5.485   4.704   3.630 -0.3379 -0.2146 -0.4200
 5593WAT     H123078   5.446   4.626   3.619 -0.0113 -0.6151  1.0247
 5593WAT     H223079   5.419   4.757   3.651 -0.2701 -0.6592  0.9867
 5593WAT    EPW23080   5.469   4.700   3.631  0.4190 -0.0578  0.1751
 5594WAT      O23081   5.067   4.315   2.350  0.6008 -0.4053 -0.3252
 5594WAT     H123082   5.103   4.274   2.282  1.5722 -1.3538  0.7186
 5594WAT     H223083   4.995   4.269   2.366 -1.0632  1.3074 -2.2154
 5594WAT    EPW23084   5.062   4.302   2.342  0.0993  0.4136 -0.8896
 5595WAT      O23085   6.707   2.632   3.035  0.1126  0.0240 -0.3046
 5595WAT     H123086   6.686   2.548   3.029  0.6760 -0.1976  0.5930
 5595WAT     H223087   6.791   2.631   3.058 -0.0893  0.8139  0.5322
 5595WAT    EPW23088   6.716   2.620   3.038  0.1834  0.7258 -0.0748
 5596WAT      O23089   6.395   1.528   3.065 -0.3265  0.0278 -0.0476
 5596WAT     H123090   6.377   1.608   3.094  0.8589  0.3632 -0.1847
 5596WAT     H223091   6.317   1.490   3.061 -0.8918  1.1104  0.2009
 5596WAT    EPW23092   6.381   1.534   3.069 -0.1125  0.1278 -0.0497
 5597WAT      O23093   1.564   1.207   6.982  0.4533  0.1049 -0.0655
 5597WAT     H123094   1.542   1.287   7.009 -0.9324 -0.2412 -0.0480
 5597WAT     H223095   1.624   1.221   6.920  1.6608  1.0370  1.2701
 5597WAT    EPW23096   1.569   1.221   6.977  0.3871 -0.4044 -0.4798
 5598WAT      O23097   2.201   0.370   7.582 -0.1851 -0.4229  0.0593
 5598WAT     H123098   2.272   0.339   7.542 -0.0824 -1.3697  0.9396
 5598WAT     H223099   2.149   0.300   7.587 -0.3420 -0.2339  1.2389
 5598WAT    EPW23100   2.204   0.355   7.577  0.2207  0.4522 -0.6222
 5599WAT      O23101   6.690   7.826   0.809 -0.1682 -0.0727 -0.4867
 5599WAT     H123102   6.685   7.913   0.811  0.6597 -0.0143 -0.5420
 5599WAT     H223103   6.737   7.807   0.880 -1.0893 -0.5469  0.0151
 5599WAT    EPW23104   6.696   7.836   0.820  0.0268  0.0920  0.9501
 5600WAT      O23105   4.674   6.426   6.085  0.3491  0.3625  0.3789
 5600WAT     H123106   4.588   6.412   6.090  0.5176 -1.1942 -0.3637
 5600WAT     H223107   4.688   6.438   5.999  0.5805  3.0399  0.7256
 5600WAT    EPW23108   4.664   6.426   6.073  0.4456 -0.0242  0.3867
 5601WAT      O23109   3.046   6.341   6.881 -0.4534  0.5200 -0.1411
 5601WAT     H123110   3.005   6.311   6.952  0.4550 -1.5518 -0.4142
 5601WAT     H223111   3.079   6.418   6.907 -0.0811 -0.2155  1.7199
 5601WAT    EPW23112   3.045   6.348   6.896  0.4925 -0.7664  0.0547
 5602WAT      O23113   2.116   3.210   7.673  0.4833 -0.3876  0.1636
 5602WAT     H123114   2.161   3.255   7.733  0.4436 -1.9985  1.4672
 5602WAT     H223115   2.037   3.249   7.674 -0.0681 -1.3888  2.4400
 5602WAT    EPW23116   2.111   3.223   7.682 -0.4094 -0.3290 -0.2565
 5603WAT      O23117   0.600   1.821   0.757  0.5000  0.3081 -0.0119
 5603WAT     H123118   0.569   1.866   0.825 -0.4193  2.7319 -1.8777
 5603WAT     H223119   0.685   1.844   0.755  0.9525 -1.1133  1.2340
 5603WAT    EPW23120   0.608   1.831   0.767  0.4941 -0.5269 -0.1228
 5604WAT      O23121   3.941   2.434   2.650  0.0685 -0.3614 -0.0061
 5604WAT     H123122   3.950   2.511   2.689 -2.8542  0.2148 -0.2811
 5604WAT     H223123   4.022   2.402   2.649  1.2451  2.3703  0.7373
 5604WAT    EPW23124   3.954   2.441   2.656  0.0663  0.2219 -0.0216
 5605WAT      O23125   4.730   3.516   6.942 -0.3855 -0.0058 -0.0171
 5605WAT     H123126   4.652   3.537   6.976 -0.6337 -0.2847 -0.4099
 5605WAT     H223127   4.779   3.586   6.960 -0.8207  0.3201 -0.0714
 5605WAT    EPW23128   4.725   3.530   6.950 -0.7804 -0.0158  0.7877
 5606WAT      O23129   4.604   5.090   2.033  0.1177 -0.1391  0.0952
 5606WAT     H123130   4.671   5.074   1.980  0.3706  0.3782  0.2467
 5606WAT     H223131   4.538   5.108   1.979  0.4595  0.7146 -0.0553
 5606WAT    EPW23132   4.604   5.090   2.018 -0.1121  0.0063 -0.4129
 5607WAT      O23133   6.647   3.865   1.652  0.2375 -0.2672 -0.2704
 5607WAT     H123134   6.613   3.945   1.659 -0.7671 -0.6569 -0.5066
 5607WAT     H223135   6.683   3.851   1.730 -3.7741 -1.4182  1.6564
 5607WAT    EPW23136   6.647   3.874   1.664  0.0236 -0.4436 -0.2031
 5608WAT      O23137   2.673   3.661   7.566  0.2132 -0.2242  0.1348
 5608WAT     H123138   2.598   3.660   7.522  1.2641 -2.4064 -1.8308
 5608WAT     H223139   2.652   3.625   7.642 -0.6065 -1.6592 -0.7247
 5608WAT    EPW23140   2.659   3.656   7.571  0.2736 -0.5085  0.0506
 5609WAT      O23141   7.290   7.640   4.196  0.0843 -0.3376  0.0669
 5609WAT     H123142   7.263   7.624   4.114 -1.1839 -1.4708  0.6640
 5609WAT     H223143   7.254   7.575   4.242 -0.0093  0.8184  1.6857
 5609WAT    EPW23144   7.281   7.628   4.191 -0.0452 -0.0150  0.1470
 5610WAT      O23145   5.964   4.370   5.591 -0.0689 -0.2063  0.5494
 5610WAT     H123146   6.025   4.431   5.605  0.5935 -0.1514 -1.9655
 5610WAT     H223147   5.896   4.415   5.561  0.5691 -0.6050 -1.7393
 5610WAT    EPW23148   5.963   4.385   5.588 -0.1243  0.1572 -0.0486
 5611WAT      O23149   2.272   6.436   6.994  0.1034 -0.3381  0.6180
 5611WAT     H123150   2.246   6.518   6.980  1.8860  0.0154 -0.9802
 5611WAT     H223151   2.316   6.440   7.069  0.6129  0.2800  0.2898
 5611WAT    EPW23152   2.274   6.449   7.003  0.2005  0.3502 -0.5824
 5612WAT      O23153   3.136   5.612   5.750 -0.0654 -0.3828 -0.1556
 5612WAT     H123154   3.121   5.527   5.768  1.7950 -0.5188  1.0348
 5612WAT     H223155   3.183   5.639   5.818 -1.4043  1.9043 -0.0313
 5612WAT    EPW23156   3.140   5.603   5.763 -0.6896 -0.0240  0.2462
 5613WAT      O23157   1.376   3.682   1.506  0.1823 -0.2079  0.3385
 5613WAT     H123158   1.424   3.690   1.434 -0.9709 -0.8033 -0.5182
 5613WAT     H223159   1.303   3.726   1.488  0.0056 -0.0740  1.2827
 5613WAT    EPW23160   1.373   3.690   1.493 -0.2013 -0.0726  0.1564
 5614WAT      O23161   6.580   3.122   1.233  0.5418 -0.1245 -0.4169
 5614WAT     H123162   6.653   3.163   1.209  0.3703  0.3408 -0.1601
 5614WAT     H223163   6.608   3.044   1.260  1.1208  0.5260  0.9693
 5614WAT    EPW23164   6.595   3.117   1.234 -0.6471 -0.4787  0.5549
 5615WAT      O23165   2.789   7.928   3.236 -0.6179 -0.2830  0.6239
 5615WAT     H123166   2.784   7.917   3.322  2.4275 -1.4423  0.7777
 5615WAT     H223167   2.795   7.847   3.205  1.6220  0.1297 -0.2700
 5615WAT    EPW23168   2.789   7.915   3.244 -0.0651  0.0151 -0.1377
 5616WAT      O23169   3.744   6.901   3.592 -0.3365  0.6901 -0.2492
 5616WAT     H123170   3.726   6.968   3.646 -0.4629  0.1281  0.4333
 5616WAT     H223171   3.730   6.831   3.643 -1.7256  0.0948 -1.3892
 5616WAT    EPW23172   3.739   6.901   3.608  0.0561 -0.1320  0.7423
 5617WAT      O23173   5.081   5.338   5.002  0.2361  0.3127 -0.2182
 5617WAT     H123174   5.001   5.312   4.979 -0.0434 -0.1080  1.1200
 5617WAT     H223175   5.121   5.263   5.023  1.5343  0.3397 -2.3988
 5617WAT    EPW23176   5.075   5.323   5.002  0.3810 -0.1676 -0.1270
 5618WAT      O23177   5.636   7.666   2.994  0.2069 -0.0884 -0.2367
 5618WAT     H123178   5.677   7.695   2.922 -1.0544  0.5000 -0.7473
 5618WAT     H223179   5.622   7.738   3.040  0.6737 -0.4198  0.4467
 5618WAT    EPW23180   5.640   7.681   2.990 -0.6319  0.0331 -0.4304
 5619WAT      O23181   2.895   2.268   3.530  0.0412  0.2735 -0.0074
 5619WAT     H123182   2.963   2.238   3.485  0.4621  1.0742  0.0751
 5619WAT     H223183   2.895   2.217   3.601 -0.2085 -0.5391 -0.5678
 5619WAT    EPW23184   2.905   2.256   3.534  0.3818 -0.4880 -0.1462
 5620WAT      O23185   6.225   4.979   5.120 -0.2596  0.5177 -0.0774
 5620WAT     H123186   6.178   4.981   5.194 -0.5541  1.5487 -0.2734
 5620WAT     H223187   6.289   5.036   5.135  0.3020 -0.0488 -0.2393
 5620WAT    EPW23188   6.228   4.988   5.133 -0.3120  0.2690 -0.1631
 5621WAT      O23189   5.236   1.283   1.837 -0.2417 -0.1280 -0.5501
 5621WAT     H123190   5.164   1.276   1.885 -0.2411 -3.0247 -0.8087
 5621WAT     H223191   5.218   1.236   1.766  1.5740 -0.1656 -1.0390
 5621WAT    EPW23192   5.223   1.275   1.833  0.4173  0.1690  0.3255
 5622WAT      O23193   6.527   1.683   2.863  0.1655 -0.1947 -0.1032
 5622WAT     H123194   6.479   1.629   2.912  0.3519 -0.5677 -0.3230
 5622WAT     H223195   6.579   1.723   2.920 -0.2796  0.0828  0.1151
 5622WAT    EPW23196   6.528   1.681   2.878 -0.3145  0.1067  0.4748
 5623WAT      O23197   1.748   7.679   6.421  0.5605 -0.3339  0.4275
 5623WAT     H123198   1.770   7.654   6.340 -0.5788  1.9822 -0.6916
 5623WAT     H223199   1.805   7.744   6.438  0.3341 -0.3321  1.1968
 5623WAT    EPW23200   1.760   7.685   6.411 -0.2782 -0.2005  0.0107
 5624WAT      O23201   7.079   6.338   4.404 -0.2480 -0.1984 -0.1770
 5624WAT     H123202   7.051   6.256   4.411  0.2312 -0.3022  0.7646
 5624WAT     H223203   7.164   6.330   4.388 -0.0998  0.1008  0.4074
 5624WAT    EPW23204   7.087   6.325   4.403  0.2752  0.1060  0.0223
 5625WAT      O23205   3.769   6.786   7.439 -0.2428 -0.2156  0.5670
 5625WAT     H123206   3.766   6.838   7.368 -0.5894  0.7417  1.2541
 5625WAT     H223207   3.827   6.725   7.417 -0.4201  0.0034 -0.5847
 5625WAT    EPW23208   3.777   6.785   7.425 -0.1867  0.0304  0.0527
 5626WAT      O23209   0.271   0.310   4.748  0.6158  0.3931  0.1100
 5626WAT     H123210   0.233   0.384   4.719  2.9498  1.4071 -0.6182
 5626WAT     H223211   0.356   0.330   4.749  1.3752 -2.4141 -0.3977
 5626WAT    EPW23212   0.278   0.324   4.744 -0.3792  0.3428  0.1074
 5627WAT      O23213   2.315   6.721   7.183 -0.4601 -0.7643  0.6070
 5627WAT     H123214   2.236   6.711   7.219  0.4524  0.2192  3.1318
 5627WAT     H223215   2.361   6.654   7.216 -0.2481 -1.4310 -0.9783
 5627WAT    EPW23216   2.310   6.709   7.193  0.4420  0.0545 -0.4941
 5628WAT      O23217   1.871   1.301   2.555  0.1189 -0.6453  0.5831
 5628WAT     H123218   1.828   1.370   2.523  1.6660 -0.6985 -1.8939
 5628WAT     H223219   1.940   1.337   2.594 -0.1950 -0.7366  1.2459
 5628WAT    EPW23220   1.875   1.317   2.556  0.5479  0.3838 -0.7735
 5629WAT      O23221   1.946   5.307   0.698 -0.1151  0.0837 -0.0816
 5629WAT     H123222   1.912   5.264   0.766  0.4630  0.5920  0.5518
 5629WAT     H223223   1.949   5.248   0.635 -1.9524 -0.0418 -0.0984
 5629WAT    EPW23224   1.941   5.292   0.699  0.3045 -0.1813 -0.1515
 5630WAT      O23225   5.055   5.828   4.907 -0.4040  0.0604  0.2271
 5630WAT     H123226   4.973   5.844   4.930 -0.1605 -1.7312  2.8246
 5630WAT     H223227   5.059   5.741   4.903  1.3318  0.0983  0.0177
 5630WAT    EPW23228   5.044   5.817   4.910  0.0940 -0.1601  0.2237
 5631WAT      O23229   1.772   3.672   5.564  0.0425  0.3415 -0.2248
 5631WAT     H123230   1.737   3.751   5.564 -1.6008 -0.2964  1.6958
 5631WAT     H223231   1.717   3.625   5.514  0.5225  0.1980 -0.6334
 5631WAT    EPW23232   1.759   3.676   5.556  0.5726  0.0544  1.0736
 5632WAT      O23233   5.075   7.149   7.874  0.0621 -0.0182 -0.2069
 5632WAT     H123234   5.007   7.168   7.823  0.5974  1.8607 -0.2775
 5632WAT     H223235   5.069   7.063   7.886 -1.2255 -0.1678 -1.7760
 5632WAT    EPW23236   5.064   7.139   7.868 -0.1305 -0.6808 -0.0643
 5633WAT      O23237   7.905   7.366   3.659 -0.5474 -0.3709 -0.0057
 5633WAT     H123238   7.859   7.423   3.611 -1.1022 -0.4988  0.3778
 5633WAT     H223239   7.875   7.377   3.740  1.6441  1.1571  0.7041
 5633WAT    EPW23240   7.894   7.376   3.664 -0.0840 -0.2924  0.2543
 5634WAT      O23241   5.365   6.966   5.411 -0.0809  0.0687  0.7477
 5634WAT     H123242   5.282   6.984   5.429 -0.1953 -0.0640  0.3609
 5634WAT     H223243   5.367   6.879   5.405 -0.1283  0.1296 -0.2530
 5634WAT    EPW23244   5.353   6.956   5.413  0.6844 -0.0854 -0.4941
 5635WAT      O23245   2.323   0.144   4.317  0.6521 -0.0568  0.0552
 5635WAT     H123246   2.382   0.079   4.319  0.3729 -0.3154 -0.0365
 5635WAT     H223247   2.251   0.105   4.288  0.5479  0.3521 -0.2371
 5635WAT    EPW23248   2.321   0.129   4.313  0.1074  0.3938 -0.0653
 5636WAT      O23249   6.304   5.581   4.797  0.4716 -0.2620  0.2293
 5636WAT     H123250   6.236   5.623   4.762 -0.4721 -0.2606  1.9332
 5636WAT     H223251   6.280   5.572   4.881  3.3795  1.5233  1.4059
 5636WAT    EPW23252   6.290   5.586   4.804  0.4398 -0.1374  0.4768
 5637WAT      O23253   5.111   0.992   6.398  0.3719  0.3261  0.1525
 5637WAT     H123254   5.068   0.952   6.333  0.4044 -1.2727  1.0583
 5637WAT     H223255   5.182   1.024   6.359  0.4588 -0.7209 -0.6053
 5637WAT    EPW23256   5.115   0.991   6.383  0.2604 -0.2608  0.5606
 5638WAT      O23257   2.827   7.960   4.689 -0.3229  0.2268  0.1831
 5638WAT     H123258   2.790   8.028   4.730  0.4268  1.1577 -0.6353
 5638WAT     H223259   2.829   7.985   4.606  0.9925 -0.3204  0.0302
 5638WAT    EPW23260   2.822   7.974   4.683  0.0696 -0.4828 -0.5607
 5639WAT      O23261   2.681   1.362   2.358  0.0293  0.3621  0.4095
 5639WAT     H123262   2.687   1.432   2.410 -0.5187  2.2079 -1.8499
 5639WAT     H223263   2.595   1.357   2.342  0.2720  0.3267 -0.9221
 5639WAT    EPW23264   2.669   1.372   2.364  0.0048 -0.1209 -0.2688
 5640WAT      O23265   4.794   4.062   3.719 -0.1031 -0.0129 -0.2203
 5640WAT     H123266   4.722   4.091   3.679  0.2168 -0.9443 -1.5426
 5640WAT     H223267   4.858   4.086   3.665  0.9596  2.9790  2.0638
 5640WAT    EPW23268   4.793   4.070   3.705 -1.0171 -0.1138  0.0883
 5641WAT      O23269   4.102   2.533   1.817 -0.2017  0.2427 -0.0413
 5641WAT     H123270   4.038   2.552   1.761 -0.3790  1.8846  0.6561
 5641WAT     H223271   4.151   2.606   1.816  1.2425 -0.6939  0.0004
 5641WAT    EPW23272   4.100   2.547   1.809  0.5027  0.8657 -0.0679
 5642WAT      O23273   6.179   3.058   4.377  0.2476 -0.1649  0.1002
 5642WAT     H123274   6.203   3.135   4.411 -0.1523 -0.3254  0.7757
 5642WAT     H223275   6.170   3.075   4.292 -1.5602  0.9943  0.4740
 5642WAT    EPW23276   6.181   3.072   4.370  0.1543 -0.4078 -0.0486
 5643WAT      O23277   5.635   6.939   1.776  0.9160 -0.2313 -0.2276
 5643WAT     H123278   5.604   6.862   1.804 -0.3296  0.3196 -0.0085
 5643WAT     H223279   5.707   6.917   1.731  1.5223 -1.3635  1.2259
 5643WAT    EPW23280   5.641   6.924   1.773  0.0007 -0.4012  0.1202
 5644WAT      O23281   4.188   6.886   4.932 -0.3730 -0.2046  0.0458
 5644WAT     H123282   4.243   6.830   4.895 -0.1808  0.3528 -0.5287
 5644WAT     H223283   4.226   6.905   5.008  0.7549  0.9287 -0.7626
 5644WAT    EPW23284   4.202   6.881   4.938 -0.0305  0.6006 -0.2434
 5645WAT      O23285   3.860   7.784   3.391 -0.1980 -0.3026  0.2338
 5645WAT     H123286   3.817   7.735   3.332 -3.3721  0.8505  1.3600
 5645WAT     H223287   3.939   7.792   3.357 -1.0963 -1.8622 -2.5583
 5645WAT    EPW23288   3.865   7.778   3.377 -0.1890 -0.4727 -0.1629
 5646WAT      O23289   5.925   3.386   4.979  0.4481  0.3172  0.0460
 5646WAT     H123290   5.947   3.470   4.979  0.2416  0.3805 -0.8192
 5646WAT     H223291   5.904   3.370   5.062  0.5584  1.0995  0.2299
 5646WAT    EPW23292   5.925   3.396   4.991  0.3812  0.5624  0.3097
 5647WAT      O23293   2.572   1.004   7.288 -0.4992  0.2438  0.5884
 5647WAT     H123294   2.579   0.923   7.320 -2.4588  0.1143  0.8677
 5647WAT     H223295   2.607   1.054   7.350 -0.6112 -0.2940  1.0930
 5647WAT    EPW23296   2.578   1.000   7.302  0.9007  0.0233  0.3968
 5648WAT      O23297   7.918   7.549   1.606  0.5497  0.3396 -0.4429
 5648WAT     H123298   7.900   7.469   1.576  3.4032 -0.2062 -0.9417
 5648WAT     H223299   7.897   7.545   1.691  1.2250 -1.1363 -0.3325
 5648WAT    EPW23300   7.912   7.537   1.614 -0.0527 -0.1669 -0.0028
 5649WAT      O23301   4.595   0.024   5.831 -0.0216  0.4691 -0.2843
 5649WAT     H123302   4.633  -0.033   5.777  0.9240 -0.7222  1.5242
 5649WAT     H223303   4.512  -0.002   5.834 -0.6266  1.8193 -2.6654
 5649WAT    EPW23304   4.588   0.012   5.824  0.2818 -0.2273 -0.3361
 5650WAT      O23305   2.554   6.934   1.166 -0.5493 -0.1628  0.3861
 5650WAT     H123306   2.563   6.985   1.237 -1.0692 -0.3895  0.6171
 5650WAT     H223307   2.491   6.974   1.120  0.9301  0.9404 -0.8083
 5650WAT    EPW23308   2.546   6.948   1.170 -0.7302  0.3211  0.3754
 5651WAT      O23309   2.974   6.338   7.758  0.3269 -0.3999 -0.0609
 5651WAT     H123310   2.950   6.272   7.810  2.6208 -2.1025 -1.0354
 5651WAT     H223311   2.966   6.305   7.677 -0.6020  1.3074 -0.7372
 5651WAT    EPW23312   2.969   6.323   7.753  0.1996 -0.3247  0.1819
 5652WAT      O23313   2.673   6.430   6.227  0.3759 -0.9065  0.1695
 5652WAT     H123314   2.656   6.393   6.150 -0.5824 -0.1936  0.0201
 5652WAT     H223315   2.595   6.455   6.255  0.8529 -0.1171  0.8392
 5652WAT    EPW23316   2.659   6.428   6.220 -0.1285  0.0725  0.2430
 5653WAT      O23317   5.702   5.633   3.852  0.3319 -0.3173 -0.3291
 5653WAT     H123318   5.749   5.657   3.921  0.1817 -0.9149 -0.0142
 5653WAT     H223319   5.670   5.556   3.875 -3.5713  1.4080  0.8691
 5653WAT    EPW23320   5.705   5.625   3.865 -0.0011 -0.2375 -0.0716
 5654WAT      O23321   4.908   4.813   3.675 -0.0874  0.3892 -0.1413
 5654WAT     H123322   4.925   4.870   3.612  0.7627  1.3233  0.8911
 5654WAT     H223323   4.821   4.818   3.685 -0.4782 -0.9359 -2.2552
 5654WAT    EPW23324   4.898   4.822   3.667  0.0722 -0.3088 -0.0918
 5655WAT      O23325   3.737   7.775   7.253 -0.5205 -0.3784 -0.1534
 5655WAT     H123326   3.725   7.851   7.294 -1.5822 -0.6627  0.0907
 5655WAT     H223327   3.817   7.782   7.219  0.1354  0.1335  1.4108
 5655WAT    EPW23328   3.747   7.787   7.254 -0.7110 -0.2809  0.6334
 5656WAT      O23329   0.834   0.053   7.741  0.4450 -0.0664 -0.0650
 5656WAT     H123330   0.892   0.046   7.677  2.5942  1.2219  1.5858
 5656WAT     H223331   0.814   0.138   7.742 -0.7579 -0.3349  0.0032
 5656WAT    EPW23332   0.840   0.064   7.732  0.0676 -0.2605  0.1422
 5657WAT      O23333   2.929   0.705   2.028  0.3465 -0.7119  0.1069
 5657WAT     H123334   2.845   0.728   2.031  0.5708  0.6974 -1.8986
 5657WAT     H223335   2.929   0.621   2.051 -1.5225 -0.5861  0.6842
 5657WAT    EPW23336   2.917   0.696   2.032 -0.3652 -0.0174  0.8285
 5658WAT      O23337   6.106   1.691   5.147 -0.3249 -0.0247  0.2398
 5658WAT     H123338   6.046   1.753   5.137 -0.4745 -0.3055 -0.7396
 5658WAT     H223339   6.070   1.635   5.202 -0.8229 -0.0113 -0.0677
 5658WAT    EPW23340   6.092   1.692   5.153 -0.0617  0.5831  0.1151
 5659WAT      O23341   5.248   0.703   5.280  0.5107 -0.5023  0.0346
 5659WAT     H123342   5.294   0.641   5.238 -0.4170  0.0765 -1.9643
 5659WAT     H223343   5.254   0.680   5.364  1.2113 -2.6103 -0.5316
 5659WAT    EPW23344   5.256   0.690   5.286  0.0951 -0.3620  0.6595
 5660WAT      O23345   5.991   2.287   2.419  0.4407 -0.1348  0.1073
 5660WAT     H123346   5.966   2.255   2.496  0.8548 -0.8608 -0.0506
 5660WAT     H223347   6.045   2.225   2.387  1.6491  0.9365  0.0041
 5660WAT    EPW23348   5.995   2.273   2.425 -0.5904 -0.5513 -0.2458
 5661WAT      O23349   6.249   2.579   2.033  0.2416 -0.1274 -0.1155
 5661WAT     H123350   6.223   2.648   2.078  0.0419 -0.7370  0.7217
 5661WAT     H223351   6.239   2.604   1.950 -3.4868 -0.4638  0.0806
 5661WAT    EPW23352   6.244   2.593   2.027 -0.5145 -0.0226  0.3454
 5662WAT      O23353   3.881   6.765   2.771 -0.2022  0.3585 -0.0577
 5662WAT     H123354   3.857   6.811   2.840  0.3783  1.8116 -0.7971
 5662WAT     H223355   3.839   6.804   2.705  1.0042  0.3940 -0.8191
 5662WAT    EPW23356   3.871   6.777   2.771  0.0193  0.2888 -0.3435
 5663WAT      O23357   4.652   0.305   2.102  0.1870 -0.5268 -0.1158
 5663WAT     H123358   4.646   0.294   2.015  0.6894  0.4127 -0.2757
 5663WAT     H223359   4.690   0.231   2.129 -2.2392 -1.9672 -0.3537
 5663WAT    EPW23360   4.657   0.292   2.093 -0.4887  0.1563  0.3629
 5664WAT      O23361   5.997   0.018   7.875 -0.0725  0.0893 -0.1188
 5664WAT     H123362   6.018   0.076   7.813  1.7626  0.0513  0.4040
 5664WAT     H223363   6.005  -0.059   7.834  0.1727  0.1081 -0.1109
 5664WAT    EPW23364   6.001   0.015   7.860 -0.3371  0.2479 -0.2838
 5665WAT      O23365   1.681   6.734   3.513 -0.3403  0.3569  0.3749
 5665WAT     H123366   1.606   6.692   3.526  0.6616 -1.2928  1.2148
 5665WAT     H223367   1.722   6.728   3.590  0.9084  0.6889 -0.2230
 5665WAT    EPW23368   1.676   6.727   3.526 -0.5650  0.0040  0.2853
 5666WAT      O23369   3.216   6.860   4.155  0.1364  0.6101 -0.8270
 5666WAT     H123370   3.188   6.813   4.087  1.6167 -0.1309 -0.9432
 5666WAT     H223371   3.303   6.859   4.148  0.3739  0.0985  1.3305
 5666WAT    EPW23372   3.224   6.853   4.144 -0.6752 -0.0377 -0.7272
 5667WAT      O23373   4.791   0.345   4.150  0.2429  0.1179  0.3049
 5667WAT     H123374   4.823   0.288   4.092  0.4134  0.1927  0.3238
 5667WAT     H223375   4.855   0.404   4.159 -0.2125  0.7048 -0.2405
 5667WAT    EPW23376   4.805   0.345   4.143  0.0066  0.0930 -0.4641
 5668WAT      O23377   4.354   0.735   2.578  0.2355  0.2736  0.3733
 5668WAT     H123378   4.387   0.657   2.555 -0.6909 -0.5929  1.8033
 5668WAT     H223379   4.338   0.774   2.502 -1.2238 -1.7884 -0.4729
 5668WAT    EPW23380   4.357   0.729   2.564  0.4441  0.0457 -0.4380
 5669WAT      O23381   2.075   5.974   6.735 -0.1217  0.4676 -0.0496
 5669WAT     H123382   2.017   5.910   6.747 -1.2967  0.9307 -2.7146
 5669WAT     H223383   2.030   6.046   6.754  0.2232  0.6990 -0.1054
 5669WAT    EPW23384   2.060   5.975   6.740 -0.2253  0.4223 -0.6761
 5670WAT      O23385   5.115   3.115   6.267  0.1779 -0.1882 -0.0335
 5670WAT     H123386   5.145   3.185   6.224 -0.4917 -0.0871 -0.3542
 5670WAT     H223387   5.187   3.078   6.300  0.6191  0.1808 -0.5749
 5670WAT    EPW23388   5.130   3.120   6.266 -0.1199 -0.2156  0.3170
 5671WAT      O23389   7.293   1.132   2.955  0.0234 -0.0161  1.1146
 5671WAT     H123390   7.287   1.094   2.876 -0.4458  1.7979  0.2269
 5671WAT     H223391   7.302   1.217   2.936  0.7981  0.3752  3.0185
 5671WAT    EPW23392   7.293   1.139   2.940  1.0065 -0.1550 -0.7470
 5672WAT      O23393   2.623   2.469   4.944 -0.2273 -0.1270 -0.2166
 5672WAT     H123394   2.625   2.454   5.030 -1.7040 -0.5758 -0.2189
 5672WAT     H223395   2.573   2.404   4.913 -2.2705  1.6715 -0.9794
 5672WAT    EPW23396   2.616   2.458   4.952 -0.0414  0.0397 -0.8279
 5673WAT      O23397   2.323   1.384   4.016  0.6920 -0.0114  0.0632
 5673WAT     H123398   2.288   1.461   4.037  0.5799  0.5340 -1.9456
 5673WAT     H223399   2.272   1.326   4.057 -1.2190  0.8720 -0.9512
 5673WAT    EPW23400   2.311   1.386   4.025  0.2655 -0.1769 -0.2549
 5674WAT      O23401   6.277   2.707   4.854  0.1067  0.4817  0.5723
 5674WAT     H123402   6.352   2.674   4.826 -0.7330  1.3667 -3.4294
 5674WAT     H223403   6.219   2.643   4.839 -0.6971  1.6782 -2.1513
 5674WAT    EPW23404   6.279   2.692   4.848  0.0478  0.2434  0.4364
 5675WAT      O23405   8.105   6.455   4.371 -0.5255 -0.2229  0.4234
 5675WAT     H123406   8.081   6.387   4.420  0.1036 -0.2859  0.6605
 5675WAT     H223407   8.049   6.453   4.304 -0.2784 -1.2065  0.2297
 5675WAT    EPW23408   8.093   6.445   4.368  0.1886  0.1757 -0.0713
 5676WAT      O23409   2.549   6.759   7.451  0.3996  0.2127  0.7005
 5676WAT     H123410   2.586   6.838   7.451 -1.2005  1.0221 -0.4934
 5676WAT     H223411   2.464   6.776   7.464  0.1510 -1.3913  1.3766
 5676WAT    EPW23412   2.542   6.773   7.453 -0.5281 -0.1117 -0.5059
 5677WAT      O23413   2.667   6.478   1.565  0.4444  0.4956 -0.1596
 5677WAT     H123414   2.695   6.535   1.625 -0.5326  0.3967  0.4065
 5677WAT     H223415   2.729   6.416   1.565  0.3057  0.3426  0.9745
 5677WAT    EPW23416   2.680   6.477   1.574 -0.0997  0.5848  0.0348
 5678WAT      O23417   5.504   7.577   4.809 -0.2819  0.1284  0.0099
 5678WAT     H123418   5.435   7.542   4.769 -0.8922  1.7154 -0.3802
 5678WAT     H223419   5.518   7.523   4.876 -1.7252 -0.3811 -0.0645
 5678WAT    EPW23420   5.496   7.564   4.813  0.2934 -0.0327  0.0398
 5679WAT      O23421   7.095   5.544   1.589 -0.4477 -0.4667  0.4526
 5679WAT     H123422   7.091   5.477   1.533  0.0192  0.3802 -0.6388
 5679WAT     H223423   7.018   5.584   1.579 -0.5890 -0.6369  0.8460
 5679WAT    EPW23424   7.083   5.540   1.579 -0.2125 -0.1368 -0.2586
 5680WAT      O23425   5.232   3.101   0.333  0.6621 -0.0415 -0.6600
 5680WAT     H123426   5.242   3.099   0.247  3.2122  0.0631 -0.4345
 5680WAT     H223427   5.290   3.161   0.359  0.5622 -0.6771  1.1843
 5680WAT    EPW23428   5.242   3.110   0.324 -0.0281 -0.0578  0.0530
 5681WAT      O23429   3.379   6.408   2.259 -0.0319  0.3158  0.7568
 5681WAT     H123430   3.372   6.480   2.210 -0.0834  1.0522  1.8077
 5681WAT     H223431   3.465   6.401   2.272  0.0877 -0.5273 -0.3379
 5681WAT    EPW23432   3.391   6.418   2.253  0.2602  0.0031  0.1138
 5682WAT      O23433   5.220   3.600   5.336 -0.4480  0.4528  0.2822
 5682WAT     H123434   5.163   3.609   5.401  0.1090  3.7835  0.4463
 5682WAT     H223435   5.295   3.629   5.370  1.1240 -2.4138 -0.3920
 5682WAT    EPW23436   5.223   3.605   5.351 -0.3158  0.5353 -0.6125
 5683WAT      O23437   5.922   2.226   0.971 -0.0115 -0.3877 -0.9794
 5683WAT     H123438   5.876   2.301   0.971 -0.7264 -0.8126 -0.6735
 5683WAT     H223439   5.897   2.188   1.045  0.7186 -0.7124 -0.8967
 5683WAT    EPW23440   5.911   2.231   0.982 -0.6231 -0.6306  0.0236
 5684WAT      O23441   5.387   7.714   0.581 -0.1976 -0.4625 -0.3354
 5684WAT     H123442   5.364   7.790   0.544 -1.7871 -0.8045 -0.1034
 5684WAT     H223443   5.463   7.733   0.620 -1.2114  1.4284  0.8946
 5684WAT    EPW23444   5.395   7.728   0.582 -0.3844  0.2544  0.4297
 5685WAT      O23445   3.138   4.183   0.350  0.3197  0.1466 -0.2685
 5685WAT     H123446   3.077   4.139   0.306  1.3354 -1.6423  0.0489
 5685WAT     H223447   3.199   4.200   0.290  0.8187 -0.6012  0.0179
 5685WAT    EPW23448   3.138   4.179   0.334  0.2147  0.1732  0.3478
 5686WAT      O23449   5.036   7.583   5.367  0.1429  0.3715  0.4590
 5686WAT     H123450   4.961   7.545   5.392  0.8442 -1.7813 -0.5161
 5686WAT     H223451   5.012   7.636   5.302 -0.4713 -0.9319 -0.4188
 5686WAT    EPW23452   5.021   7.585   5.361 -0.1522  0.1201  0.5787
 5687WAT      O23453   3.951   7.694   6.124 -0.3690  0.1603  0.0380
 5687WAT     H123454   4.032   7.725   6.134 -0.2462  0.4070 -1.4943
 5687WAT     H223455   3.902   7.748   6.173  0.4157 -0.2767  1.3639
 5687WAT    EPW23456   3.956   7.707   6.133 -0.9944 -0.5227  0.4455
 5688WAT      O23457   3.187   1.051   6.582 -0.8638 -0.1739 -0.4817
 5688WAT     H123458   3.265   1.078   6.553 -0.4518 -0.0483  0.6612
 5688WAT     H223459   3.142   1.125   6.593 -0.5159 -0.0879  0.5122
 5688WAT    EPW23460   3.192   1.066   6.579 -0.0666 -0.0946  0.4801
 5689WAT      O23461   5.488   1.109   3.330  0.7463 -0.0497 -0.3203
 5689WAT     H123462   5.413   1.086   3.292  0.5933  0.4811 -0.3546
 5689WAT     H223463   5.522   1.167   3.275  0.7988  0.2966  0.0657
 5689WAT    EPW23464   5.482   1.114   3.316 -0.1328  0.4321  0.1158
 5690WAT      O23465   3.318   7.305   4.870 -0.6565  0.1220 -0.2331
 5690WAT     H123466   3.321   7.301   4.783 -0.7446 -0.5755 -0.2074
 5690WAT     H223467   3.400   7.322   4.893 -0.1798 -1.8293 -0.3621
 5690WAT    EPW23468   3.330   7.307   4.861  0.0981  0.4987  0.1773
 5691WAT      O23469   4.427   0.474   7.636 -0.3448 -0.4311  0.4361
 5691WAT     H123470   4.482   0.540   7.619 -1.2257  0.1691 -0.2689
 5691WAT     H223471   4.361   0.514   7.677 -0.7852 -0.9194  0.2035
 5691WAT    EPW23472   4.425   0.490   7.639 -0.5534  0.6605  0.2763
 5692WAT      O23473   5.878   5.949   7.695  0.4811  0.1294 -0.0518
 5692WAT     H123474   5.836   6.022   7.719 -0.5517 -0.8399  1.2576
 5692WAT     H223475   5.956   5.957   7.731  0.0585  0.2053  0.8827
 5692WAT    EPW23476   5.883   5.961   7.704  0.3692  0.6189 -0.3877
 5693WAT      O23477   3.488   3.788   1.661  0.2183  0.1960  0.9747
 5693WAT     H123478   3.555   3.789   1.717  0.3181 -0.5322  0.8762
 5693WAT     H223479   3.455   3.708   1.670  1.8800 -0.9484 -1.9187
 5693WAT    EPW23480   3.493   3.776   1.671 -0.1828  0.2006  0.3342
 5694WAT      O23481   4.862   6.565   3.732  0.1901 -0.3410 -0.1627
 5694WAT     H123482   4.927   6.569   3.789 -1.7601 -0.2900  2.2380
 5694WAT     H223483   4.864   6.483   3.703  0.0955 -0.9681  1.5104
 5694WAT    EPW23484   4.872   6.553   3.736  0.8857  0.0253 -0.2643
 5695WAT      O23485   5.104   8.023   5.792 -0.0840  0.3660 -0.4146
 5695WAT     H123486   5.073   8.094   5.831  0.9839  1.3067 -1.2030
 5695WAT     H223487   5.178   8.007   5.835  0.0252  0.1428 -0.6816
 5695WAT    EPW23488   5.110   8.031   5.804 -0.2880  0.3150 -0.0577
 5696WAT      O23489   7.373   6.354   4.385 -0.3998 -0.6892  0.5449
 5696WAT     H123490   7.450   6.351   4.426 -0.0018  1.0827  0.0275
 5696WAT     H223491   7.350   6.438   4.390 -1.9614 -1.0536  0.0637
 5696WAT    EPW23492   7.381   6.366   4.392  0.0532 -0.4911  0.2672
 5697WAT      O23493   5.386   0.074   6.500  0.4032  0.4976 -0.7626
 5697WAT     H123494   5.356   0.121   6.433 -0.4883 -0.3637 -0.9719
 5697WAT     H223495   5.395  -0.006   6.468 -0.9023 -0.1462  0.3543
 5697WAT    EPW23496   5.383   0.069   6.485  0.5298 -0.2885 -0.1954
 5698WAT      O23497   2.436   7.287   3.881  0.3252  0.3043 -0.0186
 5698WAT     H123498   2.376   7.226   3.864  0.4387  0.5110 -1.3035
 5698WAT     H223499   2.449   7.280   3.967 -1.6920  0.4271  0.3391
 5698WAT    EPW23500   2.429   7.277   3.891 -0.7533  0.1696 -0.0777
 5699WAT      O23501   2.930   3.378   6.828  0.5797  0.3746 -0.2859
 5699WAT     H123502   2.981   3.382   6.758 -0.5189 -0.1148 -1.1451
 5699WAT     H223503   2.914   3.293   6.837 -0.8563  0.5807 -0.6341
 5699WAT    EPW23504   2.935   3.366   6.819 -0.3451  0.1569 -0.3022
 5700WAT      O23505   2.033   0.277   4.686 -0.3621 -0.5427 -0.5369
 5700WAT     H123506   2.099   0.282   4.630 -0.3658 -3.1822 -0.8951
 5700WAT     H223507   1.964   0.258   4.636 -0.9338 -0.1185  0.0688
 5700WAT    EPW23508   2.032   0.275   4.671 -0.0815 -0.1335 -0.0606
 5701WAT      O23509   2.049   2.333   4.579  0.7462  0.2047 -0.6693
 5701WAT     H123510   2.100   2.300   4.641  1.4363  1.6448 -0.4393
 5701WAT     H223511   2.022   2.409   4.612  1.7763  1.3907 -2.3976
 5701WAT    EPW23512   2.052   2.339   4.593  0.4552  0.1945 -0.0228
 5702WAT      O23513   2.374   7.974   6.377  0.3165 -0.1464  0.2039
 5702WAT     H123514   2.368   8.030   6.311 -0.0328 -1.5655 -1.0360
 5702WAT     H223515   2.460   7.961   6.386  0.4692  1.2825  1.1773
 5702WAT    EPW23516   2.386   7.980   6.369 -0.1191 -0.3766 -0.1566
 5703WAT      O23517   5.724   6.517   6.671  0.0595  0.1224 -0.2038
 5703WAT     H123518   5.674   6.578   6.709  1.8053  2.3978 -1.2767
 5703WAT     H223519   5.775   6.488   6.736  0.6588  1.4449 -0.0379
 5703WAT    EPW23520   5.724   6.522   6.686  0.4726 -0.2284  0.2994
 5704WAT      O23521   2.632   6.691   7.713 -0.4265  0.6195  0.7600
 5704WAT     H123522   2.695   6.741   7.747 -0.0627  1.3719 -0.9269
 5704WAT     H223523   2.618   6.726   7.635 -2.2662 -0.1413  0.6897
 5704WAT    EPW23524   2.639   6.704   7.707  0.5958 -0.7823 -0.3683
 5705WAT      O23525   6.513   1.101   0.776  0.5791 -0.2252  0.2869
 5705WAT     H123526   6.591   1.136   0.760  0.1980  0.4038 -0.2806
 5705WAT     H223527   6.512   1.028   0.727  0.6616 -0.0238 -0.0173
 5705WAT    EPW23528   6.524   1.095   0.766 -0.0246 -0.7147  0.4847
 5706WAT      O23529   6.331   0.561   1.645 -0.7988  0.0651 -0.1414
 5706WAT     H123530   6.314   0.548   1.730 -0.1555  0.2292  0.0164
 5706WAT     H223531   6.256   0.594   1.614  0.0987  3.8368  1.1789
 5706WAT    EPW23532   6.317   0.564   1.653 -0.1401  0.2593  0.3545
 5707WAT      O23533   2.622   1.063   7.612  0.5369 -0.3413 -0.3459
 5707WAT     H123534   2.557   1.006   7.614  1.2335 -1.3468 -2.5074
 5707WAT     H223535   2.662   1.052   7.689 -0.0987 -1.8615 -0.1983
 5707WAT    EPW23536   2.618   1.053   7.624 -0.4080  0.0853 -0.0256
 5708WAT      O23537   1.189   0.865   3.919 -0.2209  0.4074 -0.0366
 5708WAT     H123538   1.139   0.932   3.944  1.5302  2.0870 -0.7215
 5708WAT     H223539   1.205   0.882   3.835  0.7958 -0.5105 -0.0471
 5708WAT    EPW23540   1.184   0.877   3.910 -0.8531  0.2808  0.5604
 5709WAT      O23541   4.617   7.943   7.254 -0.5526  0.1261 -0.2271
 5709WAT     H123542   4.662   7.980   7.318 -2.7043 -0.5459  1.8366
 5709WAT     H223543   4.650   7.978   7.182  0.9487  2.1098  1.3273
 5709WAT    EPW23544   4.628   7.954   7.253 -0.4173  0.0978 -0.0027
 5710WAT      O23545   4.938   6.291   1.044  0.4942 -0.0648 -0.0842
 5710WAT     H123546   4.865   6.340   1.039 -0.7247 -1.7975  0.0209
 5710WAT     H223547   4.957   6.276   0.960  1.3868  1.2667 -0.1466
 5710WAT    EPW23548   4.930   6.296   1.030  0.6734 -1.0803  0.7843
 5711WAT      O23549   3.517   4.981   5.903 -0.3196  0.3103  0.2956
 5711WAT     H123550   3.604   4.971   5.909 -0.0650  2.8757  2.2931
 5711WAT     H223551   3.486   4.927   5.964 -0.1017 -0.0517  0.0900
 5711WAT    EPW23552   3.525   4.971   5.913 -0.0855  0.7661  0.7644
 5712WAT      O23553   4.980   0.010   6.992 -0.5071 -0.7236 -0.2028
 5712WAT     H123554   4.962  -0.011   7.074  0.7172  3.8165  1.5153
 5712WAT     H223555   4.948   0.091   6.983  4.7695  1.6425 -1.8253
 5712WAT    EPW23556   4.973   0.019   7.002  0.1338  0.3195 -0.0917
 5713WAT      O23557   3.940   2.780   0.332 -0.1940 -0.4527 -0.0094
 5713WAT     H123558   3.939   2.813   0.413  1.8089 -0.0959 -0.0780
 5713WAT     H223559   3.862   2.801   0.300  0.0326  1.9862  0.8510
 5713WAT    EPW23560   3.928   2.788   0.339  0.2832  0.3465 -0.4846
 5714WAT      O23561   1.412   6.876   3.505 -0.0519  0.2142  0.2118
 5714WAT     H123562   1.390   6.891   3.422  1.5651 -1.0026 -0.4948
 5714WAT     H223563   1.343   6.833   3.537 -0.0382 -0.7871 -1.0140
 5714WAT    EPW23564   1.398   6.872   3.497 -0.5468 -1.0668  0.0222
 5715WAT      O23565   1.493   5.817   0.031  0.4728 -0.1719 -0.2165
 5715WAT     H123566   1.578   5.836   0.020  0.6853 -1.4218 -0.9911
 5715WAT     H223567   1.457   5.841  -0.044  0.3319 -0.6149 -0.2908
 5715WAT    EPW23568   1.500   5.823   0.018  0.0760 -0.0524 -0.6620
 5716WAT      O23569   2.908   5.189   1.963 -1.0959 -0.1335 -0.0868
 5716WAT     H123570   2.906   5.131   2.028 -2.9544  0.7728  0.7410
 5716WAT     H223571   2.847   5.247   1.985 -1.3236  0.5780 -2.3221
 5716WAT    EPW23572   2.899   5.189   1.976  0.0794 -0.5222  0.6202
 5717WAT      O23573   2.737   0.252   3.701  0.2491  0.4126 -0.0562
 5717WAT     H123574   2.820   0.269   3.682  0.0078  1.1511 -0.4979
 5717WAT     H223575   2.739   0.170   3.731  1.2854  0.7892  0.9748
 5717WAT    EPW23576   2.749   0.242   3.702  0.5934  0.4439 -0.2058
 5718WAT      O23577   3.171   4.428   1.309 -0.0807 -0.3551  0.2704
 5718WAT     H123578   3.150   4.443   1.225  0.8804 -0.8314 -0.0654
 5718WAT     H223579   3.117   4.481   1.353 -0.5876 -0.0861 -0.6462
 5718WAT    EPW23580   3.160   4.438   1.303 -0.5874 -0.2746 -0.6167
 5719WAT      O23581   5.600   6.559   3.265 -0.3942  0.8935  0.2726
 5719WAT     H123582   5.653   6.624   3.290  1.3057 -1.3550  3.2211
 5719WAT     H223583   5.649   6.513   3.209  0.9484 -1.0411  2.8036
 5719WAT    EPW23584   5.615   6.562   3.260 -0.4771 -0.4343 -0.2825
 5720WAT      O23585   8.036   0.788   2.958  0.2846  0.1727  0.2174
 5720WAT     H123586   8.005   0.869   2.965 -0.2265  0.0678 -0.6034
 5720WAT     H223587   8.047   0.778   2.871  1.2987 -0.2854  0.3756
 5720WAT    EPW23588   8.033   0.798   2.946 -0.2692 -0.2660 -0.0711
 5721WAT      O23589   5.090   2.116   7.133 -0.4410  0.5208  0.2745
 5721WAT     H123590   5.024   2.071   7.167 -0.5476  1.0002  0.7114
 5721WAT     H223591   5.160   2.068   7.153 -0.6006  0.2913  0.2866
 5721WAT    EPW23592   5.091   2.102   7.141  0.2194 -0.0940  0.2375
 5722WAT      O23593   0.497   5.040   4.924  0.0694  0.6385  0.5239
 5722WAT     H123594   0.508   4.956   4.945 -0.8827  0.8875  2.1881
 5722WAT     H223595   0.549   5.082   4.981 -1.8429  1.2999  1.8788
 5722WAT    EPW23596   0.507   5.034   4.935  0.1903  0.0707 -0.3110
 5723WAT      O23597   1.400   2.181   7.668 -0.3401  0.3642 -0.1753
 5723WAT     H123598   1.372   2.262   7.686 -0.6167  0.2458 -0.0599
 5723WAT     H223599   1.483   2.192   7.645 -0.8138  0.8629 -1.7307
 5723WAT    EPW23600   1.408   2.194   7.668  0.3512  0.0399  0.1159
 5724WAT      O23601   4.098   4.460   7.208  0.1993 -0.1782 -0.0819
 5724WAT     H123602   4.067   4.380   7.222 -1.0352  0.1927 -0.5542
 5724WAT     H223603   4.042   4.494   7.151  0.4357  1.1742  0.4457
 5724WAT    EPW23604   4.085   4.453   7.202 -0.3227  0.2774 -0.1829
 5725WAT      O23605   5.174   5.564   4.895 -0.3732  0.6773 -0.0003
 5725WAT     H123606   5.202   5.560   4.812 -0.7464  2.3424 -0.2325
 5725WAT     H223607   5.169   5.480   4.918  0.1282  0.1843 -1.5282
 5725WAT    EPW23608   5.178   5.551   4.886  0.4266  0.3120  0.0259
 5726WAT      O23609   4.289   5.727   7.011 -0.1044 -0.1829  0.0172
 5726WAT     H123610   4.240   5.760   7.075 -0.1795 -2.2814  1.1305
 5726WAT     H223611   4.360   5.697   7.053  0.9993  0.5855 -1.2346
 5726WAT    EPW23612   4.292   5.727   7.027 -0.2436  0.0544 -0.2921
 5727WAT      O23613   6.664   5.599   1.711 -0.0230  0.2224  0.1055
 5727WAT     H123614   6.684   5.514   1.708  1.3444  0.5490 -0.3615
 5727WAT     H223615   6.706   5.632   1.642  3.3275  2.0692  2.8087
 5727WAT    EPW23616   6.673   5.591   1.700 -0.9034 -0.0869 -0.2036
 5728WAT      O23617   6.661   7.812   4.547 -0.3397 -0.0294 -0.3081
 5728WAT     H123618   6.744   7.837   4.557 -0.0771 -1.5052  1.7709
 5728WAT     H223619   6.627   7.823   4.627 -1.8714 -0.4226 -0.8758
 5728WAT    EPW23620   6.668   7.818   4.560  0.1359  0.5334  0.1657
 5729WAT      O23621   2.366   7.059   6.421  0.2029 -0.2517 -0.0928
 5729WAT     H123622   2.443   7.075   6.384 -0.1512 -0.0371 -0.7687
 5729WAT     H223623   2.383   7.057   6.506  1.1186 -1.1534 -0.2779
 5729WAT    EPW23624   2.380   7.061   6.428 -1.2417 -0.0041  0.1988
 5730WAT      O23625   4.071   2.145   4.133  0.0070 -0.1175  0.0399
 5730WAT     H123626   4.119   2.159   4.062 -1.3253  0.4365 -0.8094
 5730WAT     H223627   4.089   2.212   4.185 -0.3607  0.4706 -0.5788
 5730WAT    EPW23628   4.081   2.157   4.130  0.3957  0.6604  0.4002
 5731WAT      O23629   4.501   1.772   4.464 -0.1632 -0.3325  0.0803
 5731WAT     H123630   4.554   1.737   4.404 -1.1530 -2.1262  0.2011
 5731WAT     H223631   4.489   1.708   4.521 -1.2486  0.5307  0.8681
 5731WAT    EPW23632   4.507   1.758   4.463 -0.0093  0.5859 -0.4956
 5732WAT      O23633   5.344   1.530   6.308 -0.0292 -0.8007  0.3867
 5732WAT     H123634   5.303   1.508   6.382  1.1114 -2.2696  0.6110
 5732WAT     H223635   5.417   1.569   6.336  0.3964 -1.3429  0.0509
 5732WAT    EPW23636   5.349   1.533   6.323 -0.5202 -0.4419 -0.4015
 5733WAT      O23637   4.834   3.218   1.508  0.4684 -0.5009 -0.1261
 5733WAT     H123638   4.904   3.270   1.502  1.6817 -2.1260 -0.8147
 5733WAT     H223639   4.823   3.209   1.594  0.5429  0.4666  0.0004
 5733WAT    EPW23640   4.843   3.225   1.520  0.1280 -0.0895 -0.0216
 5734WAT      O23641   3.615   6.594   0.785  0.1730 -1.1525 -0.2284
 5734WAT     H123642   3.621   6.651   0.851 -0.1580 -0.3822 -0.8531
 5734WAT     H223643   3.605   6.645   0.714 -2.1074 -2.0026 -0.5994
 5734WAT    EPW23644   3.614   6.610   0.784  0.0288 -0.0115  0.6076
 5735WAT      O23645   6.081   5.539   1.454 -0.0947 -0.2236 -0.1365
 5735WAT     H123646   6.076   5.625   1.440  1.1172  0.2921  2.0559
 5735WAT     H223647   6.108   5.508   1.377  1.6755  1.6814 -0.3911
 5735WAT    EPW23648   6.085   5.547   1.441  0.1064  0.4368 -0.7546
 5736WAT      O23649   2.470   0.242   1.445 -0.5266  0.0843  0.2409
 5736WAT     H123650   2.534   0.225   1.501 -0.8280 -1.5064  0.1524
 5736WAT     H223651   2.398   0.218   1.488 -1.1532  2.2251  0.4977
 5736WAT    EPW23652   2.469   0.236   1.459  0.2943 -0.3820 -0.2360
 5737WAT      O23653   2.076   6.685   5.027 -0.3157  0.6689  0.3740
 5737WAT     H123654   2.113   6.736   5.088 -0.2863 -1.6499  2.4348
 5737WAT     H223655   2.137   6.680   4.965  0.5096  1.4441  1.0905
 5737WAT    EPW23656   2.090   6.692   5.027 -0.2842 -0.7065  0.2997
 5738WAT      O23657   6.309   5.070   6.284 -0.1639  0.7989 -0.0031
 5738WAT     H123658   6.303   5.000   6.232 -1.8891 -0.1911  1.4388
 5738WAT     H223659   6.393   5.094   6.276 -0.3630  0.9423 -3.4670
 5738WAT    EPW23660   6.321   5.063   6.275  0.2394 -0.5604 -0.0052
 5739WAT      O23661   3.539   7.407   1.982 -0.2765  0.1889 -0.3098
 5739WAT     H123662   3.530   7.380   2.065  0.8542 -0.7394 -0.4665
 5739WAT     H223663   3.460   7.393   1.948 -0.9755  1.2710  0.7780
 5739WAT    EPW23664   3.526   7.401   1.990  0.0554 -0.3896  0.3330
 5740WAT      O23665   0.375   0.303   2.276 -0.0963 -0.1546 -0.6919
 5740WAT     H123666   0.376   0.216   2.271 -1.1768 -0.2242 -0.0187
 5740WAT     H223667   0.450   0.322   2.316 -0.5632 -0.8989  0.5844
 5740WAT    EPW23668   0.387   0.293   2.281 -0.3029  0.2157 -0.2069
 5741WAT      O23669   2.129   7.242   7.884 -0.7227 -0.5899 -0.1006
 5741WAT     H123670   2.066   7.202   7.928 -0.3788 -0.2296  0.7392
 5741WAT     H223671   2.099   7.244   7.802 -2.6929  1.2978  0.5814
 5741WAT    EPW23672   2.115   7.236   7.879  0.6110 -0.4698  0.3256
 5742WAT      O23673   5.907   3.470   5.348 -0.4230 -0.3717  0.3112
 5742WAT     H123674   5.955   3.401   5.326  0.7981 -0.2793  2.4214
 5742WAT     H223675   5.902   3.464   5.435 -0.6104  1.9896  0.5168
 5742WAT    EPW23676   5.913   3.459   5.358 -0.3747 -0.3228 -0.1602
 5743WAT      O23677   6.698   1.492   5.271 -0.0398 -0.3350 -0.4028
 5743WAT     H123678   6.648   1.424   5.249  0.1741  0.0686 -2.3062
 5743WAT     H223679   6.655   1.561   5.239 -1.0810  0.7398  2.8449
 5743WAT    EPW23680   6.685   1.492   5.263  0.1915  0.3193 -0.0233
 5744WAT      O23681   3.881   5.980   2.434  0.0103  0.3462 -0.0879
 5744WAT     H123682   3.815   5.979   2.377 -1.3186  2.6771  1.2533
 5744WAT     H223683   3.924   5.906   2.417 -1.7314 -0.2464 -2.4080
 5744WAT    EPW23684   3.878   5.969   2.423  0.0290  0.5971  0.1154
 5745WAT      O23685   1.217   4.676   2.516 -0.0152  0.7102  0.1151
 5745WAT     H123686   1.187   4.706   2.439 -0.5720 -0.3228 -0.1014
 5745WAT     H223687   1.303   4.669   2.503  0.2244  2.6222  0.3470
 5745WAT    EPW23688   1.225   4.679   2.503  0.2098 -0.2382 -0.2545
 5746WAT      O23689   1.035   0.676   3.482 -0.4126 -0.1357  0.4182
 5746WAT     H123690   0.977   0.656   3.419  0.8576  3.0859 -2.0235
 5746WAT     H223691   0.986   0.714   3.543 -1.1422  1.1404 -0.8969
 5746WAT    EPW23692   1.019   0.678   3.482 -0.3892  0.0167 -0.0062
 5747WAT      O23693   2.482   0.527   4.858  0.1702 -0.1289 -0.4833
 5747WAT     H123694   2.478   0.440   4.862 -0.5384 -0.1162 -0.9702
 5747WAT     H223695   2.531   0.542   4.788 -0.7123 -0.1236 -1.1072
 5747WAT    EPW23696   2.489   0.516   4.848 -0.4542  0.0124  0.5779
 5748WAT      O23697   0.219   6.259   3.959 -0.1875  0.2720  0.4820
 5748WAT     H123698   0.132   6.265   3.953 -0.0673  1.7183 -0.3245
 5748WAT     H223699   0.239   6.316   4.021  0.2813  1.0457 -0.3574
 5748WAT    EPW23700   0.209   6.268   3.967  0.4057  0.8922 -0.0167
 5749WAT      O23701   4.576   7.053   6.288 -0.0879 -0.1246 -0.2129
 5749WAT     H123702   4.569   7.126   6.242 -0.7859  2.0585  3.0071
 5749WAT     H223703   4.498   7.045   6.326  0.7048 -1.1833  1.3029
 5749WAT    EPW23704   4.564   7.062   6.287 -0.0375 -0.0833  0.3376
 5750WAT      O23705   6.453   2.374   2.710  0.2609 -0.2408 -0.6627
 5750WAT     H123706   6.471   2.321   2.643  1.0860 -0.4809 -0.2632
 5750WAT     H223707   6.509   2.439   2.700  0.5177 -0.3718 -0.1054
 5750WAT    EPW23708   6.464   2.375   2.699 -0.5590  0.1774  0.2463
 5751WAT      O23709   1.763   1.053   5.294 -0.4382  0.2726 -0.4344
 5751WAT     H123710   1.716   0.982   5.278 -0.1573  0.0454 -0.2717
 5751WAT     H223711   1.800   1.071   5.218 -1.2150  0.7776 -0.7043
 5751WAT    EPW23712   1.762   1.045   5.281  0.2851 -0.0770  0.1441
 5752WAT      O23713   2.176   5.826   2.378 -0.3126 -0.1450  0.4185
 5752WAT     H123714   2.142   5.903   2.354  0.6751  0.2454  0.2175
 5752WAT     H223715   2.255   5.826   2.341 -0.1560 -1.1066  0.7165
 5752WAT    EPW23716   2.183   5.837   2.369 -0.4502 -0.0119 -0.4632
 5753WAT      O23717   2.635   3.588   2.440  0.2187 -0.1923 -0.5405
 5753WAT     H123718   2.602   3.522   2.487  1.5806  0.5765  1.6537
 5753WAT     H223719   2.721   3.575   2.445  0.4821  1.3292 -0.6959
 5753WAT    EPW23720   2.643   3.576   2.448 -0.2726 -0.0255 -0.2422
 5754WAT      O23721   0.015   2.314   4.349  0.1907  0.1429 -0.5783
 5754WAT     H123722   0.069   2.382   4.350 -1.4825  1.5447 -0.8958
 5754WAT     H223723  -0.063   2.350   4.362 -0.7821 -1.7049 -1.0208
 5754WAT    EPW23724   0.012   2.329   4.351  0.3018 -0.8643  0.0552
 5755WAT      O23725   4.946   7.776   7.595  0.0027  0.1419 -0.3690
 5755WAT     H123726   4.921   7.838   7.651  1.8295 -0.1908  0.8584
 5755WAT     H223727   4.984   7.821   7.531 -2.8351  0.6017 -1.9370
 5755WAT    EPW23728   4.948   7.792   7.594 -0.2204  0.2193 -0.7418
 5756WAT      O23729   5.541   3.398   4.165  0.0698  0.3820  0.0854
 5756WAT     H123730   5.517   3.366   4.087  0.8997 -0.3323  0.1008
 5756WAT     H223731   5.529   3.331   4.219 -0.4208  0.8496  0.5652
 5756WAT    EPW23732   5.536   3.383   4.161 -0.2195  0.2610  0.2351
 5757WAT      O23733   7.380   6.269   4.130  0.0411  0.1949 -0.3074
 5757WAT     H123734   7.405   6.186   4.124 -0.3744  0.0021  0.5032
 5757WAT     H223735   7.402   6.292   4.211  0.1028  0.8675 -0.5023
 5757WAT    EPW23736   7.387   6.260   4.141 -0.2274  0.2894  0.1719
 5758WAT      O23737   0.244   1.513   0.545  0.3258 -0.6500 -0.1873
 5758WAT     H123738   0.302   1.533   0.607  0.5673 -2.0232  0.0431
 5758WAT     H223739   0.169   1.542   0.579  0.9252  1.9605 -0.8736
 5758WAT    EPW23740   0.241   1.521   0.559  0.3156 -0.0087  0.0806
 5759WAT      O23741   5.624   1.102   5.894  0.4325  0.0287 -0.0019
 5759WAT     H123742   5.696   1.134   5.932 -1.3857  1.1840  2.7203
 5759WAT     H223743   5.578   1.068   5.960 -1.0578 -1.7406 -1.8133
 5759WAT    EPW23744   5.628   1.102   5.909 -0.5290  0.2729 -0.0579
 5760WAT      O23745   5.976   1.441   0.148  0.8605  0.0140  0.0205
 5760WAT     H123746   5.950   1.501   0.205 -0.9662  1.5430 -2.2182
 5760WAT     H223747   5.916   1.378   0.156  1.4697 -0.4905  0.7750
 5760WAT    EPW23748   5.963   1.440   0.157  0.4444  0.0638  0.4668
 5761WAT      O23749   5.319   4.633   2.615  0.0288  0.3702 -0.5741
 5761WAT     H123750   5.367   4.691   2.658 -1.3669  0.5493  0.8143
 5761WAT     H223751   5.262   4.604   2.674 -0.1795 -1.4507 -1.5712
 5761WAT    EPW23752   5.318   4.637   2.630 -0.2964 -0.4498 -0.5271
 5762WAT      O23753   2.267   1.060   2.791 -0.6928  0.0647  0.1003
 5762WAT     H123754   2.322   1.033   2.729  2.0014  0.3176  2.1743
 5762WAT     H223755   2.247   0.987   2.834 -1.4277  0.0740 -0.2198
 5762WAT    EPW23756   2.272   1.045   2.788 -0.2587  0.1274 -0.0622
 5763WAT      O23757   3.911   2.817   7.324  0.1298  0.6503 -0.2588
 5763WAT     H123758   3.983   2.800   7.370 -0.6947 -0.2453  0.7413
 5763WAT     H223759   3.880   2.890   7.360 -0.9109 -0.4442  1.1551
 5763WAT    EPW23760   3.917   2.825   7.336 -0.4935 -0.4552  0.3164
 5764WAT      O23761   2.619   5.052   2.539 -0.0787 -0.0596  0.1648
 5764WAT     H123762   2.683   4.994   2.544  1.2564  1.4362  1.0358
 5764WAT     H223763   2.584   5.053   2.619  0.7699  1.2288  0.5552
 5764WAT    EPW23764   2.623   5.044   2.551  0.5580 -0.0445  0.8737
 5765WAT      O23765   1.736   6.493   4.210  0.5258  0.1153 -0.1657
 5765WAT     H123766   1.775   6.463   4.138  1.4594  0.3839  0.2039
 5765WAT     H223767   1.677   6.549   4.180  0.2611 -0.4744 -0.7619
 5765WAT    EPW23768   1.733   6.497   4.195 -0.1617  0.3311  0.4401
 5766WAT      O23769   5.290   7.512   7.053  0.0114  0.2367  0.1325
 5766WAT     H123770   5.290   7.472   7.130  1.6954  0.8184  0.4867
 5766WAT     H223771   5.373   7.539   7.044 -0.1715  0.2786 -1.8340
 5766WAT    EPW23772   5.302   7.510   7.063 -0.1460  0.2332 -0.1206
 5767WAT      O23773   1.250   2.954   0.528  0.2064 -0.6327 -0.3770
 5767WAT     H123774   1.264   3.040   0.528  1.6960 -0.8148 -1.9152
 5767WAT     H223775   1.179   2.945   0.578 -0.6784  1.5931 -1.0848
 5767WAT    EPW23776   1.242   2.966   0.536  0.2828  0.3484  0.4723
 5768WAT      O23777   1.470   7.077   5.347  0.1193 -0.1240  0.4559
 5768WAT     H123778   1.548   7.041   5.334  1.3665  0.4694  4.7304
 5768WAT     H223779   1.415   7.010   5.340  1.4150 -1.2228  0.3906
 5768WAT    EPW23780   1.473   7.062   5.344  0.6971  0.4991  0.1112
 5769WAT      O23781   1.847   1.638   2.510  0.0664  0.0563 -0.3956
 5769WAT     H123782   1.886   1.680   2.444  1.8261  0.6154  0.9131
 5769WAT     H223783   1.884   1.673   2.581  0.3863 -2.5088  0.8205
 5769WAT    EPW23784   1.858   1.649   2.511  0.1842  0.3615 -0.1195
 5770WAT      O23785   3.236   0.245   1.559 -0.4473 -0.1929  0.1621
 5770WAT     H123786   3.275   0.212   1.488 -0.2533  0.8535 -0.2376
 5770WAT     H223787   3.301   0.289   1.598 -0.8838  0.3737  0.2505
 5770WAT    EPW23788   3.252   0.247   1.554  0.2635 -0.1711 -0.7886
 5771WAT      O23789   6.537   5.925   3.186 -0.2377 -0.3726  0.0278
 5771WAT     H123790   6.545   5.915   3.100  1.7985 -0.3831  0.1681
 5771WAT     H223791   6.456   5.955   3.196 -0.0429  0.9866 -2.0119
 5771WAT    EPW23792   6.527   5.928   3.175 -0.5089  0.3833 -0.4644
 5772WAT      O23793   3.436   7.537   2.484 -0.3382 -0.0522 -0.0721
 5772WAT     H123794   3.519   7.544   2.458 -0.5983 -1.3856 -1.4074
 5772WAT     H223795   3.398   7.609   2.451  0.0963  0.0724 -0.3086
 5772WAT    EPW23796   3.442   7.549   2.475  0.1588 -0.1114 -0.1413
 5773WAT      O23797   4.984   6.085   2.521 -0.1186  0.0669 -0.5127
 5773WAT     H123798   4.948   6.036   2.458 -1.1247  0.0377  0.0588
 5773WAT     H223799   4.955   6.165   2.504  0.6360  0.2940 -0.8009
 5773WAT    EPW23800   4.975   6.089   2.509 -0.1515  0.3415 -0.3490
 5774WAT      O23801   6.892   6.526   0.582 -0.0684 -0.2460  0.5894
 5774WAT     H123802   6.910   6.605   0.549  1.5183 -1.1852 -0.9679
 5774WAT     H223803   6.822   6.500   0.538  1.2928 -0.9671 -1.2592
 5774WAT    EPW23804   6.885   6.534   0.571  0.0603  0.2395  0.1229
 5775WAT      O23805   1.668   5.192   6.151 -0.3925  0.7138  0.0177
 5775WAT     H123806   1.607   5.153   6.102  1.6952 -2.2584 -0.5316
 5775WAT     H223807   1.655   5.160   6.231 -0.1065  0.7677  0.0875
 5775WAT    EPW23808   1.657   5.182   6.155 -0.1593  0.6460  0.2378
 5776WAT      O23809   5.051   0.054   3.119 -1.0529  0.5730 -0.1622
 5776WAT     H123810   5.104   0.076   3.185  0.8669 -0.7132 -1.2032
 5776WAT     H223811   5.053  -0.033   3.118 -1.8229  0.5412 -1.3157
 5776WAT    EPW23812   5.059   0.045   3.129 -0.2279  0.5120 -0.2819
 5777WAT      O23813   6.663   7.886   2.845 -0.3818  0.1593 -0.0599
 5777WAT     H123814   6.676   7.942   2.779  2.5218 -0.1194  0.1623
 5777WAT     H223815   6.605   7.927   2.896 -0.3547  1.7530 -1.2579
 5777WAT    EPW23816   6.657   7.900   2.843  0.2804 -0.1360  0.0975
 5778WAT      O23817   4.158   0.867   4.988  0.3230  0.3702 -0.5966
 5778WAT     H123818   4.197   0.850   4.911 -0.3123 -3.4954 -0.2568
 5778WAT     H223819   4.222   0.858   5.046  0.2367  0.5492 -0.4723
 5778WAT    EPW23820   4.173   0.863   4.985  0.1397 -0.2072  0.2612
 5779WAT      O23821   6.770   1.768   2.584 -0.0264 -0.3561 -0.5477
 5779WAT     H123822   6.757   1.696   2.633  1.4230  0.4037  1.0781
 5779WAT     H223823   6.770   1.832   2.643  0.6454  0.7454 -1.7218
 5779WAT    EPW23824   6.768   1.767   2.600  0.7098  0.0733 -0.5444
 5780WAT      O23825   7.451   6.056   0.627 -0.3988  0.3641 -0.3845
 5780WAT     H123826   7.396   6.124   0.632 -0.0926  0.7083 -1.4062
 5780WAT     H223827   7.509   6.072   0.690  0.7883  2.1205 -1.8160
 5780WAT    EPW23828   7.452   6.069   0.637  0.4904  0.2541 -0.2478
 5781WAT      O23829   3.612   7.230   6.418 -1.0433 -0.0579 -0.1589
 5781WAT     H123830   3.661   7.193   6.356 -0.8208 -0.2801  0.1444
 5781WAT     H223831   3.670   7.279   6.463 -1.1151 -0.2396  0.1361
 5781WAT    EPW23832   3.628   7.232   6.416  0.0631  0.2109 -0.4488
 5782WAT      O23833   0.212   6.620   1.925 -0.3548 -0.4562 -0.1453
 5782WAT     H123834   0.294   6.592   1.936 -0.3894 -1.0753 -1.2928
 5782WAT     H223835   0.177   6.616   2.005 -0.0629 -2.7783 -0.0834
 5782WAT    EPW23836   0.219   6.616   1.938  0.2283 -0.1009  0.9085
 5783WAT      O23837   7.702   2.543   0.774  0.1097  0.2474  0.4753
 5783WAT     H123838   7.786   2.543   0.750 -0.1946  0.5707 -0.6321
 5783WAT     H223839   7.695   2.471   0.823  0.5125 -1.0693 -1.3074
 5783WAT    EPW23840   7.714   2.532   0.778 -0.1294 -0.3018  0.4203
 5784WAT      O23841   0.217   6.706   2.866  0.1188 -0.2126 -0.6246
 5784WAT     H123842   0.196   6.648   2.804  0.2960 -1.3391  0.3425
 5784WAT     H223843   0.206   6.662   2.940  1.1996  0.7029  0.1055
 5784WAT    EPW23844   0.212   6.691   2.868  0.0601 -0.1258 -0.1141
 5785WAT      O23845   6.710   4.583   2.083 -0.2111 -0.1160  0.0802
 5785WAT     H123846   6.733   4.534   2.152 -0.2786 -1.3223 -0.7181
 5785WAT     H223847   6.628   4.608   2.103  0.0201  0.1251  0.7435
 5785WAT    EPW23848   6.701   4.579   2.097  0.0865 -0.2425 -0.1344
 5786WAT      O23849   1.521   5.812   5.857 -0.7188  0.0833  0.4458
 5786WAT     H123850   1.504   5.876   5.800 -1.6844 -0.1970  0.4061
 5786WAT     H223851   1.577   5.849   5.912  1.3909 -0.0604 -1.4535
 5786WAT    EPW23852   1.527   5.827   5.856 -0.2971 -0.0334  0.2236
 5787WAT      O23853   4.720   5.784   2.794  0.0311 -0.2408  0.2247
 5787WAT     H123854   4.704   5.836   2.725 -1.5913  0.4195  1.0541
 5787WAT     H223855   4.662   5.720   2.785  0.3360 -0.5686  0.5651
 5787WAT    EPW23856   4.709   5.782   2.782 -0.3541 -0.6612 -0.4325
 5788WAT      O23857   4.803   6.647   5.252  0.0192 -0.3633 -0.6614
 5788WAT     H123858   4.884   6.653   5.283  0.5531  0.2742 -2.0852
 5788WAT     H223859   4.755   6.688   5.313  1.0438  0.9822 -0.7158
 5788WAT    EPW23860   4.808   6.654   5.265 -0.6099  0.1617 -0.0316
 5789WAT      O23861   3.459   4.789   1.670 -0.2314 -0.4722 -0.0698
 5789WAT     H123862   3.419   4.852   1.627 -1.4777 -1.0519  0.1962
 5789WAT     H223863   3.524   4.830   1.712 -1.5849  0.8109  0.8634
 5789WAT    EPW23864   3.463   4.804   1.670  0.1742  0.1403  0.1910
 5790WAT      O23865   5.406   5.010   4.509 -0.2486 -0.0875 -0.0433
 5790WAT     H123866   5.404   4.939   4.458 -0.8746 -0.4037  0.4118
 5790WAT     H223867   5.434   5.073   4.456 -0.0318 -0.6028 -0.5448
 5790WAT    EPW23868   5.410   5.009   4.494 -0.1973 -0.6734  0.0906
 5791WAT      O23869   4.408   7.487   4.646  0.1295 -0.0086  0.0586
 5791WAT     H123870   4.476   7.496   4.700  0.9859 -0.3021 -0.9334
 5791WAT     H223871   4.349   7.445   4.695  1.3900 -1.5065  0.3636
 5791WAT    EPW23872   4.409   7.482   4.661  0.3296 -0.4266 -0.6413
 5792WAT      O23873   1.906   1.319   1.412  0.5787  0.2085 -0.2184
 5792WAT     H123874   1.971   1.262   1.410  1.3866  1.0971 -0.1771
 5792WAT     H223875   1.942   1.390   1.448 -0.6913  0.3737  0.8089
 5792WAT    EPW23876   1.921   1.321   1.417 -0.0443 -0.2674  0.6016
 5793WAT      O23877   3.741   7.185   2.963  0.3008 -0.1158  0.0406
 5793WAT     H123878   3.699   7.187   3.039 -0.9229  0.3344 -0.6124
 5793WAT     H223879   3.681   7.215   2.906  1.4345  0.2990 -0.9680
 5793WAT    EPW23880   3.726   7.190   2.966 -0.7968  0.8680 -0.1512
 5794WAT      O23881   3.358   2.213   1.727 -0.5031  0.0887  0.5151
 5794WAT     H123882   3.364   2.174   1.805 -0.4673  0.2635  0.6030
 5794WAT     H223883   3.329   2.293   1.747 -1.3876 -0.1598  0.2653
 5794WAT    EPW23884   3.354   2.219   1.742 -0.3735 -0.0755  0.3255
 5795WAT      O23885   0.298   2.556   4.775 -0.0681 -0.1939 -0.2994
 5795WAT     H123886   0.291   2.635   4.810 -0.2801  0.5984 -2.0525
 5795WAT     H223887   0.384   2.541   4.774 -0.0035  0.1792 -0.3060
 5795WAT    EPW23888   0.310   2.565   4.780 -0.9220 -0.0381  0.2104
 5796WAT      O23889   5.842   1.480   4.249  0.6628 -0.3927 -1.0200
 5796WAT     H123890   5.841   1.452   4.166  0.7842  0.0915 -1.1857
 5796WAT     H223891   5.780   1.541   4.251  0.3961 -0.6677 -0.6550
 5796WAT    EPW23892   5.833   1.485   4.237 -1.1926  0.4175 -0.5653
 5797WAT      O23893   2.438   4.928   1.323  0.6251  0.1146 -0.6708
 5797WAT     H123894   2.516   4.955   1.295  1.5245 -1.0002  0.6261
 5797WAT     H223895   2.436   4.843   1.302 -0.0819  0.0395 -0.3415
 5797WAT    EPW23896   2.449   4.919   1.316  0.3964 -0.1689  0.3828
 5798WAT      O23897   2.316   6.620   2.568  0.4763 -0.5866  0.5057
 5798WAT     H123898   2.356   6.543   2.570  0.2158 -0.7149  1.4101
 5798WAT     H223899   2.293   6.630   2.485  0.1004 -1.7014  0.4629
 5798WAT    EPW23900   2.318   6.610   2.556  0.7025  0.2094  0.4474
 5799WAT      O23901   4.004   5.169   3.349 -0.1038 -0.0713 -0.0710
 5799WAT     H123902   4.086   5.149   3.373 -0.2527 -0.4082  0.1543
 5799WAT     H223903   4.010   5.253   3.326  0.6641 -0.5169 -1.6462
 5799WAT    EPW23904   4.017   5.178   3.349  0.2940 -0.4882 -0.0403
 5800WAT      O23905   1.320   4.289   0.490  0.0233 -0.1697  0.5013
 5800WAT     H123906   1.260   4.232   0.460 -0.1955  0.7269 -0.8859
 5800WAT     H223907   1.396   4.248   0.476 -0.1879 -0.6733  0.7990
 5800WAT    EPW23908   1.322   4.274   0.483 -0.9351 -0.1326 -0.2196
 5801WAT      O23909   3.568   0.899   4.138 -0.1472  0.1176  0.3219
 5801WAT     H123910   3.610   0.968   4.173  1.0077 -0.7675  0.7210
 5801WAT     H223911   3.501   0.936   4.096  0.7431  1.5411  0.0804
 5801WAT    EPW23912   3.564   0.915   4.137  0.4078  0.3604 -0.7488
 5802WAT      O23913   6.155   6.937   0.031 -0.1792  0.3132 -0.7129
 5802WAT     H123914   6.073   6.910   0.020 -0.3446  1.2689 -2.0722
 5802WAT     H223915   6.151   6.985   0.104 -0.6873 -0.1352 -0.4422
 5802WAT    EPW23916   6.143   6.940   0.040  0.5595  0.6516 -0.0005
 5803WAT      O23917   1.780   1.429   1.696  0.6983 -0.2678 -0.1521
 5803WAT     H123918   1.859   1.451   1.726  0.9092 -3.1471  1.8678
 5803WAT     H223919   1.783   1.342   1.693 -2.9437 -0.6656  1.8023
 5803WAT    EPW23920   1.792   1.419   1.700  0.4508  0.4168  0.6588
 5804WAT      O23921   7.842   0.915   1.894 -0.2715 -1.0369 -0.0864
 5804WAT     H123922   7.914   0.937   1.850 -0.7454 -1.2959 -1.0175
 5804WAT     H223923   7.851   0.829   1.906 -0.5092 -1.0982 -0.3520
 5804WAT    EPW23924   7.854   0.905   1.890 -0.0307  0.2540 -0.4888
 5805WAT      O23925   3.831   0.391   3.730 -0.3211 -0.4372 -0.4471
 5805WAT     H123926   3.806   0.307   3.727  0.0811 -0.5366 -1.0718
 5805WAT     H223927   3.759   0.434   3.708 -0.2721 -0.6713 -1.0962
 5805WAT    EPW23928   3.817   0.385   3.727 -0.3692  0.2662  1.1108
 5806WAT      O23929   7.931   0.179   2.582  0.1497 -0.3643 -0.0374
 5806WAT     H123930   7.937   0.222   2.506  0.1171  0.9752  0.6965
 5806WAT     H223931   7.986   0.220   2.634 -0.0801 -1.0553  0.7779
 5806WAT    EPW23932   7.940   0.191   2.578 -0.3767 -0.4644  0.4224
 5807WAT      O23933   4.776   5.748   6.313 -0.4616 -0.5436  0.6633
 5807WAT     H123934   4.791   5.672   6.353  0.5989 -1.7143 -1.7337
 5807WAT     H223935   4.856   5.782   6.302 -0.6397 -0.4799 -0.7083
 5807WAT    EPW23936   4.790   5.742   6.317  0.3849  0.6928  0.7526
 5808WAT      O23937   0.832   3.870   1.650  0.0419  0.3336 -0.5333
 5808WAT     H123938   0.858   3.947   1.620 -0.0730  0.3535 -0.5827
 5808WAT     H223939   0.905   3.835   1.683 -0.1908  1.0961  0.8776
 5808WAT    EPW23940   0.847   3.876   1.651  0.0222  0.3314 -0.1380
 5809WAT      O23941   4.789   7.324   3.752  0.2158 -0.3562 -0.4205
 5809WAT     H123942   4.798   7.253   3.702 -0.8683 -1.4167  0.8284
 5809WAT     H223943   4.704   7.341   3.751  0.2791  0.1028  0.3908
 5809WAT    EPW23944   4.778   7.316   3.745 -0.4086 -0.0386 -0.4081
 5810WAT      O23945   3.878   0.426   1.932 -0.2876 -0.2894  0.1438
 5810WAT     H123946   3.840   0.443   2.009  0.0710 -1.8408  0.6988
 5810WAT     H223947   3.904   0.343   1.940  0.1098 -0.3554 -1.5158
 5810WAT    EPW23948   3.876   0.417   1.944 -0.3978 -0.0745 -0.7446
 5811WAT      O23949   5.405   0.364   4.755 -0.3441 -0.0661 -0.2798
 5811WAT     H123950   5.325   0.330   4.760 -0.0969 -0.7088 -0.5545
 5811WAT     H223951   5.409   0.395   4.673 -0.7548  1.1317  0.1306
 5811WAT    EPW23952   5.394   0.363   4.743 -0.2883 -0.9390 -0.3074
 5812WAT      O23953   3.876   1.778   4.322 -0.8570 -0.1717 -0.0328
 5812WAT     H123954   3.807   1.757   4.273 -0.8296 -0.2206 -0.0499
 5812WAT     H223955   3.865   1.863   4.337 -1.2063 -0.2890  0.4085
 5812WAT    EPW23956   3.864   1.788   4.317  0.6615  0.1386  0.0511
 5813WAT      O23957   2.385   6.997   7.200  0.0766 -0.2585 -0.0736
 5813WAT     H123958   2.312   7.005   7.153 -0.4765  1.0628  0.9515
 5813WAT     H223959   2.383   6.914   7.225 -0.0620 -0.7673 -1.6223
 5813WAT    EPW23960   2.374   6.986   7.196 -0.5280  0.1297  0.0916
 5814WAT      O23961   2.362   5.142   7.130  0.0117  0.1524  0.5741
 5814WAT     H123962   2.386   5.221   7.159  0.5440  0.6012 -0.9994
 5814WAT     H223963   2.386   5.088   7.194 -0.6842  1.2800  1.8406
 5814WAT    EPW23964   2.369   5.146   7.144 -0.2204 -0.2516 -0.0102
 5815WAT      O23965   2.624   2.038   4.933  0.4013 -0.4171 -0.0014
 5815WAT     H123966   2.587   1.963   4.907  0.5235 -0.3724 -0.3047
 5815WAT     H223967   2.608   2.039   5.019 -0.9978 -0.0252 -0.2301
 5815WAT    EPW23968   2.616   2.027   4.942  0.3752 -0.6575 -0.6266
 5816WAT      O23969   5.841   1.469   4.760 -0.0265  0.2434 -0.9861
 5816WAT     H123970   5.920   1.501   4.778 -0.0035 -0.3099  0.0279
 5816WAT     H223971   5.795   1.489   4.831 -1.2296  1.8232 -2.1482
 5816WAT    EPW23972   5.846   1.477   4.773  0.0700 -0.3391  0.0138
 5817WAT      O23973   6.074   1.542   4.892  0.1117  0.5068 -0.4497
 5817WAT     H123974   6.124   1.564   4.823 -1.7697  3.3937 -1.0707
 5817WAT     H223975   6.093   1.603   4.951 -3.1410  2.2813 -1.0287
 5817WAT    EPW23976   6.084   1.554   4.890 -0.0403  0.2677 -0.2086
 5818WAT      O23977   7.193   4.565   4.296 -0.2625  0.0191  0.3985
 5818WAT     H123978   7.229   4.626   4.347  0.3820 -0.8920  1.0657
 5818WAT     H223979   7.227   4.581   4.218 -2.5497  2.5187 -0.2576
 5818WAT    EPW23980   7.203   4.577   4.292 -0.1703 -0.3311 -0.2055
 5819WAT      O23981   0.297   3.224   1.013  0.1428  0.2677  0.7384
 5819WAT     H123982   0.285   3.304   1.046  1.4768  0.6264  0.4212
 5819WAT     H223983   0.367   3.233   0.962 -1.7745 -0.2764 -2.1958
 5819WAT    EPW23984   0.306   3.237   1.010  0.2707  0.4156  0.0194
 5820WAT      O23985   4.098   7.312   1.816 -0.0076 -0.2814  0.4332
 5820WAT     H123986   4.075   7.365   1.751 -0.4293 -1.2620 -0.2422
 5820WAT     H223987   4.084   7.360   1.888 -2.7061 -0.2546 -0.0009
 5820WAT    EPW23988   4.092   7.327   1.817 -0.1398 -0.0845 -0.8165
 5821WAT      O23989   4.724   2.187   1.486 -0.3613  0.5343 -0.4521
 5821WAT     H123990   4.685   2.226   1.554 -0.9248 -0.2992 -0.2832
 5821WAT     H223991   4.800   2.229   1.480  0.0496  0.0889  1.2115
 5821WAT    EPW23992   4.729   2.199   1.495 -0.5341  0.1838  0.4913
 5822WAT      O23993   5.565   2.396   7.847 -0.2492 -0.0598 -0.6828
 5822WAT     H123994   5.570   2.445   7.775  3.0325  0.6255 -0.1549
 5822WAT     H223995   5.599   2.320   7.823  1.1117  0.2523  0.1091
 5822WAT    EPW23996   5.571   2.392   7.833  0.0817 -0.7621 -0.0351
 5823WAT      O23997   2.118   7.666   4.819 -0.0229  0.0260 -0.0640
 5823WAT     H123998   2.122   7.704   4.898 -1.0999 -1.1174  0.5880
 5823WAT     H223999   2.201   7.662   4.794  0.2753  1.0959  0.6642
 5823WAT    EPW24000   2.131   7.671   4.827  0.1992 -0.2620 -0.0133
 5824WAT      O24001   6.347   7.816   4.591  0.4010  0.4502 -0.1727
 5824WAT     H124002   6.311   7.753   4.640 -1.3553  0.2548 -1.6474
 5824WAT     H224003   6.406   7.852   4.645 -1.2248  0.0555  1.9896
 5824WAT    EPW24004   6.350   7.812   4.606  0.1644 -0.4347 -0.2322
 5825WAT      O24005   7.662   7.449   2.046  0.0295  0.0316 -0.1176
 5825WAT     H124006   7.742   7.453   2.081  0.7754 -0.6767 -1.6855
 5825WAT     H224007   7.654   7.526   2.005  0.4630 -0.4411 -1.1029
 5825WAT    EPW24008   7.672   7.461   2.045  0.3833 -0.4947  0.0869
 5826WAT      O24009   5.853   3.435   5.929  0.0219  0.4091  0.5861
 5826WAT     H124010   5.926   3.403   5.964 -1.1779 -2.4945  0.7491
 5826WAT     H224011   5.853   3.518   5.953  3.1901  0.4828  0.6508
 5826WAT    EPW24012   5.864   3.442   5.938 -0.0847 -0.3123 -0.3226
 5827WAT      O24013   4.238   6.796   2.416 -0.4684 -0.1444  0.1007
 5827WAT     H124014   4.225   6.871   2.459 -0.0222 -0.6161  1.0978
 5827WAT     H224015   4.168   6.790   2.365 -0.5913  0.8695  0.1292
 5827WAT    EPW24016   4.226   6.806   2.415  0.4998 -0.5435 -0.2760
 5828WAT      O24017   4.998   0.796   2.767  0.1790  0.0204 -0.6833
 5828WAT     H124018   5.042   0.818   2.695  0.7043 -1.1495 -0.7368
 5828WAT     H224019   5.052   0.818   2.832  1.3452 -2.2578 -0.7653
 5828WAT    EPW24020   5.012   0.802   2.766 -0.3717 -0.2457 -0.7895
 5829WAT      O24021   4.519   6.205   4.366  0.1613  0.6677 -0.0794
 5829WAT     H124022   4.595   6.192   4.325  0.5803  0.4366  0.7471
 5829WAT     H224023   4.473   6.254   4.310  1.0622  1.1301 -0.4287
 5829WAT    EPW24024   4.523   6.211   4.352  0.3681  0.1195 -0.6445
 5830WAT      O24025   2.651   0.707   2.729  0.1718  0.0797 -0.3301
 5830WAT     H124026   2.710   0.661   2.773  0.1379  1.5701  1.3991
 5830WAT     H224027   2.692   0.782   2.712 -1.0867  1.0467  0.6766
 5830WAT    EPW24028   2.666   0.711   2.733  0.0698 -0.1003 -0.2074
 5831WAT      O24029   7.087   3.535   2.842  0.2741  0.0499 -0.0441
 5831WAT     H124030   7.063   3.465   2.888  0.1930  1.2172  1.7905
 5831WAT     H224031   7.133   3.583   2.899 -0.5257  1.9795 -0.9132
 5831WAT    EPW24032   7.090   3.532   2.857  0.0414 -0.7757 -0.4670
 5832WAT      O24033   5.891   1.380   2.175  0.1267  0.3353 -0.3964
 5832WAT     H124034   5.829   1.333   2.215  0.0804  1.5536  1.0618
 5832WAT     H224035   5.847   1.450   2.146  0.8939  1.6195  1.3739
 5832WAT    EPW24036   5.875   1.383   2.176 -0.1279  0.3008  0.3357
 5833WAT      O24037   7.062   2.427   3.403 -0.3007  0.4710 -0.2038
 5833WAT     H124038   7.085   2.347   3.428  0.3004  0.2350 -1.4211
 5833WAT     H224039   6.976   2.429   3.415 -0.0892  0.3097  1.5973
 5833WAT    EPW24040   7.053   2.416   3.408 -0.1345 -0.1029 -0.3382
 5834WAT      O24041   4.865   5.431   0.464  0.2545  0.5501 -0.2411
 5834WAT     H124042   4.870   5.422   0.551 -1.8568 -0.9068 -0.1912
 5834WAT     H224043   4.840   5.514   0.453 -0.0794  0.5653  0.5750
 5834WAT    EPW24044   4.862   5.442   0.475 -0.2867  0.6407 -0.3409
 5835WAT      O24045   5.378   0.674   5.961 -0.0720  0.7168 -0.1896
 5835WAT     H124046   5.401   0.753   5.991  3.8552 -0.3058  0.0554
 5835WAT     H224047   5.350   0.633   6.032  0.8576  0.9657  0.3362
 5835WAT    EPW24048   5.377   0.680   5.976  0.2562 -0.1483 -0.2150
 5836WAT      O24049   4.584   6.851   1.327  0.1979  0.1740  0.8513
 5836WAT     H124050   4.541   6.831   1.254  1.2244  0.4280  0.1567
 5836WAT     H224051   4.526   6.834   1.390 -0.7614  0.1017 -0.0219
 5836WAT    EPW24052   4.569   6.845   1.326  0.1291 -0.3729  0.4375
 5837WAT      O24053   0.383   5.638   3.985 -0.2249 -0.3699  0.1134
 5837WAT     H124054   0.375   5.721   4.009  1.3003  0.0274 -0.6816
 5837WAT     H224055   0.454   5.611   4.028 -1.4300 -1.6843  1.4036
 5837WAT    EPW24056   0.392   5.646   3.995  0.0047  0.0136  0.1580
 5838WAT      O24057   7.611   2.033   4.842  0.0282  0.6855  0.9751
 5838WAT     H124058   7.589   2.115   4.859 -0.8367  0.8895 -0.8745
 5838WAT     H224059   7.666   2.040   4.774 -1.0202 -0.2774 -0.0256
 5838WAT    EPW24060   7.616   2.046   4.834 -0.4653  0.3764  0.2398
 5839WAT      O24061   2.406   1.539   4.986 -0.6409 -0.1197 -0.0081
 5839WAT     H124062   2.441   1.613   4.955 -1.2093 -0.6814 -2.2215
 5839WAT     H224063   2.465   1.478   4.963 -0.5857 -0.4657  1.0238
 5839WAT    EPW24064   2.420   1.541   4.978 -0.2547  0.1908 -0.2379
 5840WAT      O24065   6.614   7.129   2.712  0.4197  1.0841 -0.3784
 5840WAT     H124066   6.586   7.048   2.697 -0.7659  1.5308 -0.7008
 5840WAT     H224067   6.659   7.149   2.640  0.7389  0.7089 -0.2851
 5840WAT    EPW24068   6.617   7.120   2.699 -0.2976  0.2306  0.4321
 5841WAT      O24069   3.879   5.292   2.685 -0.4141 -0.3613  0.0248
 5841WAT     H124070   3.900   5.302   2.770  0.4804  2.4571 -0.4024
 5841WAT     H224071   3.956   5.285   2.646 -0.7958 -0.9698 -0.6215
 5841WAT    EPW24072   3.894   5.293   2.692 -0.5033 -0.4795 -0.1921
 5842WAT      O24073   3.773   6.029   4.484  0.0041 -0.4065  0.0961
 5842WAT     H124074   3.740   6.109   4.484  0.3561 -0.2344  1.6854
 5842WAT     H224075   3.704   5.978   4.468 -0.5306  0.1022  0.7612
 5842WAT    EPW24076   3.758   6.033   4.481  0.0855 -0.3107  0.1211
 5843WAT      O24077   7.847   6.529   1.685  0.3956 -0.1550  0.0595
 5843WAT     H124078   7.812   6.572   1.617 -1.9028  0.2688  1.4308
 5843WAT     H224079   7.794   6.461   1.697  0.8140 -0.2802  1.3808
 5843WAT    EPW24080   7.834   6.525   1.676  0.3639  0.0401 -0.0623
 5844WAT      O24081   4.010   1.910   4.551  0.0675  0.6391  0.8547
 5844WAT     H124082   4.034   1.983   4.510 -1.4415  0.3049 -0.7478
 5844WAT     H224083   4.066   1.850   4.521 -1.4127  0.2589 -1.3774
 5844WAT    EPW24084   4.022   1.912   4.541  0.1405 -0.0411 -0.5003
 5845WAT      O24085   0.133   7.197   1.487  0.0355 -0.4157 -0.2549
 5845WAT     H124086   0.161   7.178   1.407 -1.7945 -0.6364 -0.9023
 5845WAT     H224087   0.060   7.149   1.495 -0.3521  0.3410  1.1623
 5845WAT    EPW24088   0.126   7.187   1.477 -0.5264 -0.1538  0.0172
 5846WAT      O24089   7.274   3.406   3.732  0.3442 -0.2298 -0.0797
 5846WAT     H124090   7.198   3.366   3.714  0.5132 -1.2592  1.3280
 5846WAT     H224091   7.334   3.352   3.700  0.5417 -0.5384  0.8001
 5846WAT    EPW24092   7.271   3.392   3.724  0.2587  0.9212 -0.2673
 5847WAT      O24093   5.771   0.285   5.214 -0.3516  0.0515 -0.0613
 5847WAT     H124094   5.720   0.327   5.272  0.3821  0.1802  0.5119
 5847WAT     H224095   5.737   0.307   5.137 -1.4703 -0.2709  0.3166
 5847WAT    EPW24096   5.758   0.294   5.212  0.0300 -0.1117 -0.1833
 5848WAT      O24097   4.589   7.814   4.833  0.7018 -0.5317 -0.1208
 5848WAT     H124098   4.589   7.846   4.752  1.1311  0.8974  0.4081
 5848WAT     H224099   4.667   7.777   4.841  0.9288 -0.0726 -0.1577
 5848WAT    EPW24100   4.600   7.813   4.822  0.2429  0.0006 -0.5241
 5849WAT      O24101   5.841   2.834   0.457  0.3482 -0.4386  0.4811
 5849WAT     H124102   5.910   2.840   0.510  2.1697 -0.6774 -1.7416
 5849WAT     H224103   5.856   2.761   0.411 -2.0635 -1.2158  0.7368
 5849WAT    EPW24104   5.853   2.824   0.458  0.3785  0.2723  0.1165
 5850WAT      O24105   1.243   5.786   2.913  0.0191 -0.5704  0.3880
 5850WAT     H124106   1.240   5.699   2.917 -0.5230 -0.5485  0.5061
 5850WAT     H224107   1.283   5.801   2.837  0.0731 -0.9211  0.3440
 5850WAT    EPW24108   1.249   5.776   2.902 -0.4554  0.0994 -0.0238
 5851WAT      O24109   4.844   4.258   1.011  0.6374 -0.2028 -0.4933
 5851WAT     H124110   4.823   4.182   1.048 -1.0777  1.2845  1.8504
 5851WAT     H224111   4.786   4.267   0.947 -0.1631 -0.1789  0.2254
 5851WAT    EPW24112   4.832   4.248   1.007 -0.1198 -0.3230 -0.0338
 5852WAT      O24113   7.244   0.102   4.564 -0.1712 -0.3456  0.2545
 5852WAT     H124114   7.290   0.176   4.560 -0.3245 -0.1650  1.3897
 5852WAT     H224115   7.200   0.100   4.488  1.2931 -0.2663 -0.6329
 5852WAT    EPW24116   7.244   0.112   4.552 -0.0709 -0.0765 -0.0914
 5853WAT      O24117   5.382   3.755   6.985 -0.3716  0.1846 -0.5306
 5853WAT     H124118   5.328   3.778   6.921 -1.0855 -2.5128 -1.0574
 5853WAT     H224119   5.447   3.714   6.943 -0.7336 -1.4261  0.3761
 5853WAT    EPW24120   5.384   3.752   6.970 -0.0461  0.4690 -0.3188
 5854WAT      O24121   5.969   7.830   1.121  0.0212 -0.4942  0.2964
 5854WAT     H124122   5.959   7.883   1.189  1.0058 -0.3323  0.3359
 5854WAT     H224123   5.897   7.842   1.074  0.0471  0.5805  0.5089
 5854WAT    EPW24124   5.957   7.840   1.124  0.5140 -0.6332 -0.0342
 5855WAT      O24125   4.516   5.648   7.179  0.5592  0.2985  0.0650
 5855WAT     H124126   4.522   5.729   7.209 -1.5206  0.5054  0.0129
 5855WAT     H224127   4.507   5.600   7.251  1.2956  0.1321  0.0624
 5855WAT    EPW24128   4.516   5.653   7.194  0.1326  0.1626 -0.0143
 5856WAT      O24129   3.516   2.991   0.784 -0.4696 -0.0038 -0.0133
 5856WAT     H124130   3.430   2.979   0.798 -0.9147 -1.5765 -3.1520
 5856WAT     H224131   3.527   3.077   0.795 -2.1841  0.0708  1.5511
 5856WAT    EPW24132   3.505   3.002   0.788 -0.2966 -0.1986  0.0543
 5857WAT      O24133   5.505   2.609   7.214  0.4238 -0.2275  0.6091
 5857WAT     H124134   5.516   2.528   7.184 -1.5017 -1.6626  3.3691
 5857WAT     H224135   5.546   2.609   7.291 -1.1920  0.7388  1.5353
 5857WAT    EPW24136   5.513   2.597   7.221  0.1940 -0.1481 -0.1288
 5858WAT      O24137   1.468   4.696   0.912  0.3086 -0.0541  0.0934
 5858WAT     H124138   1.488   4.648   0.841 -1.8848 -2.2949  0.8512
 5858WAT     H224139   1.520   4.662   0.974 -0.2117 -0.4739  0.3051
 5858WAT    EPW24140   1.479   4.684   0.910 -0.3617  0.0025 -0.8979
 5859WAT      O24141   3.622   1.438   4.366  0.4282 -0.0732 -0.1704
 5859WAT     H124142   3.673   1.500   4.400  1.5348 -1.3213  0.5438
 5859WAT     H224143   3.554   1.435   4.420  1.5924 -1.2031  1.3124
 5859WAT    EPW24144   3.620   1.447   4.379 -0.0549 -0.5422 -0.2044
 5860WAT      O24145   7.313   4.743   1.031 -0.0815  0.3194  0.2765
 5860WAT     H124146   7.310   4.668   0.986 -0.9160 -0.1416  1.0644
 5860WAT     H224147   7.398   4.758   1.041  0.0918 -0.8507  0.6273
 5860WAT    EPW24148   7.325   4.734   1.026 -0.2158  0.0686 -0.6543
 5861WAT      O24149   3.695   1.358   3.944 -0.1822  0.2183 -0.0061
 5861WAT     H124150   3.630   1.312   3.907 -0.0654  0.3224 -0.3487
 5861WAT     H224151   3.660   1.436   3.959  0.4341  0.9802 -2.1392
 5861WAT    EPW24152   3.681   1.362   3.941  0.5042 -0.2314 -0.3639
 5862WAT      O24153   6.483   5.957   0.065  0.3924  0.8591  0.1339
 5862WAT     H124154   6.566   5.981   0.058  0.8646  0.0014  1.9978
 5862WAT     H224155   6.481   5.878   0.029  0.4738  0.7539  0.3548
 5862WAT    EPW24156   6.495   5.949   0.059 -0.3075  0.6220 -0.0182
 5863WAT      O24157   1.913   4.527   4.684 -0.1987  0.1987  0.0547
 5863WAT     H124158   1.974   4.483   4.640  0.0939 -0.6849  1.2813
 5863WAT     H224159   1.920   4.495   4.765 -1.1851  1.2683  0.5817
 5863WAT    EPW24160   1.923   4.516   4.690 -0.1270 -0.1737 -0.1444
 5864WAT      O24161   2.531   7.060   1.422 -0.1823  0.6029 -0.1988
 5864WAT     H124162   2.485   7.126   1.455 -2.1978 -1.4708  1.4550
 5864WAT     H224163   2.480   6.990   1.435  1.4578 -1.2214 -2.6019
 5864WAT    EPW24164   2.517   7.060   1.429  0.6500 -0.4549 -0.4392
 5865WAT      O24165   4.882   7.015   0.945  0.2614  0.7350  0.9673
 5865WAT     H124166   4.802   6.986   0.925  0.0199  0.9882  1.5485
 5865WAT     H224167   4.920   6.947   0.984  0.4782  0.4799  0.3237
 5865WAT    EPW24168   4.876   7.001   0.948 -0.0504  0.5357  0.1671
 5866WAT      O24169   2.454   5.833   2.908  0.4862  0.0752  0.2160
 5866WAT     H124170   2.427   5.846   2.990 -1.3996 -1.8513 -0.0208
 5866WAT     H224171   2.447   5.912   2.871  0.9064  0.8623  1.7377
 5866WAT    EPW24172   2.449   5.847   2.914 -0.1092  0.3108 -0.1970
 5867WAT      O24173   5.201   3.500   3.013  0.5191  0.0227  0.2075
 5867WAT     H124174   5.262   3.520   3.072 -0.1042  0.1061  0.8411
 5867WAT     H224175   5.129   3.538   3.045  0.7443  2.6961 -2.1196
 5867WAT    EPW24176   5.199   3.509   3.027  0.1978  0.3198  0.2391
 5868WAT      O24177   2.271   5.642   7.393  0.2172  0.2176  0.3559
 5868WAT     H124178   2.198   5.664   7.350  0.5479 -1.1482 -0.9644
 5868WAT     H224179   2.246   5.577   7.446 -0.3391  2.2948  2.8992
 5868WAT    EPW24180   2.256   5.636   7.395 -0.0803 -0.0162  0.0853
 5869WAT      O24181   4.710   7.050   1.726 -0.3554  0.9213 -0.5078
 5869WAT     H124182   4.740   7.011   1.654 -0.4084 -0.3660  0.1494
 5869WAT     H224183   4.627   7.023   1.731  0.9128 -3.5531  2.8612
 5869WAT    EPW24184   4.702   7.041   1.716 -0.1634 -0.5789  0.1458
 5870WAT      O24185   1.660   0.376   7.287 -0.5636 -0.3088  0.0102
 5870WAT     H124186   1.648   0.402   7.369 -1.0721 -0.5300  0.0057
 5870WAT     H224187   1.698   0.445   7.249  0.5018 -0.5203  0.6430
 5870WAT    EPW24188   1.664   0.390   7.294 -0.0700  0.4447 -0.4046
 5871WAT      O24189   5.963   1.253   7.902 -0.3140 -0.4536 -0.0659
 5871WAT     H124190   6.045   1.256   7.930 -0.0836  1.4468 -0.7707
 5871WAT     H224191   5.950   1.332   7.867 -3.1392  0.1356  1.9457
 5871WAT    EPW24192   5.973   1.265   7.901  0.2997  0.3569  0.1816
 5872WAT      O24193   1.066   7.771   1.472 -0.3264  0.1575 -0.3958
 5872WAT     H124194   1.025   7.824   1.417 -1.2315 -0.0546  0.0653
 5872WAT     H224195   1.052   7.808   1.550  1.7932  1.0231 -0.3474
 5872WAT    EPW24196   1.058   7.784   1.475  0.1068 -0.4189  0.2833
 5873WAT      O24197   2.419   3.842   4.621 -0.0925 -0.3984 -0.0525
 5873WAT     H124198   2.366   3.773   4.631  0.0370 -0.3975  0.7405
 5873WAT     H224199   2.497   3.812   4.643 -0.1008  0.0922  0.6921
 5873WAT    EPW24200   2.422   3.827   4.626  0.0728  0.1687  0.3884
 5874WAT      O24201   4.448   1.969   6.652  0.3604  0.8808  0.0226
 5874WAT     H124202   4.479   1.933   6.579  1.3021  0.1710  0.7528
 5874WAT     H224203   4.395   2.032   6.622  0.0211  0.0285 -1.2706
 5874WAT    EPW24204   4.444   1.973   6.637  0.0124 -0.3863 -0.4688
 5875WAT      O24205   3.168   7.122   0.844  0.2679  0.0997 -0.0745
 5875WAT     H124206   3.234   7.074   0.813  0.6273 -0.3646  1.3420
 5875WAT     H224207   3.131   7.070   0.904 -0.8411  0.6942 -0.2150
 5875WAT    EPW24208   3.172   7.107   0.848 -0.0439 -0.8394  0.3053
 5876WAT      O24209   3.239   7.651   1.413  0.4380  0.1793 -0.3812
 5876WAT     H124210   3.164   7.607   1.405 -0.5279  1.9269 -1.4882
 5876WAT     H224211   3.293   7.610   1.358  0.6389 -1.6200  1.0394
 5876WAT    EPW24212   3.236   7.638   1.404  0.4799 -0.2672 -0.9902
 5877WAT      O24213   2.251   3.360   1.112  0.4798  0.6525 -0.2289
 5877WAT     H124214   2.280   3.336   1.033 -0.0496 -2.1886  0.3239
 5877WAT     H224215   2.323   3.361   1.161  0.3206 -2.4343  0.2465
 5877WAT    EPW24216   2.266   3.357   1.108 -0.2674 -0.1695  0.4174
 5878WAT      O24217   2.662   2.627   0.559  0.3123  0.4675  0.3958
 5878WAT     H124218   2.693   2.665   0.487  0.7122 -0.2754  0.1652
 5878WAT     H224219   2.576   2.618   0.543  0.3084  0.8009  0.2397
 5878WAT    EPW24220   2.654   2.631   0.546 -0.3471  0.2412  0.0741
 5879WAT      O24221   6.549   2.103   3.733 -0.1025 -0.2206 -0.6111
 5879WAT     H124222   6.573   2.130   3.654  1.5494  0.9495  0.2380
 5879WAT     H224223   6.596   2.030   3.745  0.0512 -0.1023 -0.4950
 5879WAT    EPW24224   6.559   2.096   3.723 -0.1603 -0.0759 -0.1862
 5880WAT      O24225   2.780   6.180   2.965 -0.1888  0.0326  0.0876
 5880WAT     H124226   2.744   6.176   2.886 -0.9978  2.8107  0.2077
 5880WAT     H224227   2.711   6.194   3.017  0.5511  0.2081  1.0343
 5880WAT    EPW24228   2.764   6.181   2.961  0.3466 -0.4240 -0.3247
 5881WAT      O24229   6.650   6.858   0.150  0.2493 -0.0974  0.0042
 5881WAT     H124230   6.631   6.940   0.172 -2.6459 -0.6560 -0.0652
 5881WAT     H224231   6.625   6.852   0.066  2.4671 -0.5201 -0.6926
 5881WAT    EPW24232   6.643   6.869   0.141  0.3150  0.0535  0.1033
 5882WAT      O24233   5.029   6.550   3.966 -0.2581 -0.2171 -0.1574
 5882WAT     H124234   4.985   6.484   4.002 -0.3649  0.7356  1.5702
 5882WAT     H224235   5.000   6.620   4.010  1.2154  0.7380 -0.6409
 5882WAT    EPW24236   5.018   6.551   3.978  0.3655 -0.0680  0.1406
 5883WAT      O24237   1.013   0.475   7.348  0.4715  0.0892  0.4808
 5883WAT     H124238   0.991   0.441   7.426 -0.4214 -0.1020  0.1573
 5883WAT     H224239   0.953   0.442   7.294  0.2505  1.3117 -0.0453
 5883WAT    EPW24240   1.001   0.465   7.352  0.0031 -0.2130  0.0303
 5884WAT      O24241   1.954   5.194   4.017  0.1204 -0.1574  0.5914
 5884WAT     H124242   1.990   5.134   3.964 -1.6366 -0.1542 -0.7041
 5884WAT     H224243   1.902   5.146   4.069 -0.2781  0.1173  0.4463
 5884WAT    EPW24244   1.952   5.178   4.017 -0.3245 -0.0339  0.5125
 5885WAT      O24245   3.591   7.910   0.350 -0.0809 -0.3851 -0.3670
 5885WAT     H124246   3.507   7.925   0.330 -0.4613 -1.3891  0.4127
 5885WAT     H224247   3.627   7.889   0.273 -0.8933 -1.4549 -0.4740
 5885WAT    EPW24248   3.584   7.909   0.336 -0.7187 -0.7199 -0.6135
 5886WAT      O24249   3.150   3.607   1.074 -0.9159  0.2283 -0.1894
 5886WAT     H124250   3.210   3.543   1.070  0.0274  1.1058 -0.5915
 5886WAT     H224251   3.112   3.594   1.151 -0.1619 -0.3213  0.1149
 5886WAT    EPW24252   3.154   3.595   1.085 -0.6179 -0.1190 -0.4156
 5887WAT      O24253   3.056   6.235   7.319  0.6595 -0.3235  0.4957
 5887WAT     H124254   3.111   6.302   7.312 -0.3465  0.6865  1.7236
 5887WAT     H224255   3.103   6.167   7.291  1.8894  0.7931 -0.2745
 5887WAT    EPW24256   3.071   6.235   7.314  0.2015  0.1866  0.4312
 5888WAT      O24257   6.283   5.400   0.799  0.1114 -0.1542 -0.2196
 5888WAT     H124258   6.262   5.435   0.722  1.3252  2.0620  0.3689
 5888WAT     H224259   6.361   5.435   0.816  0.2109 -1.1968  1.6839
 5888WAT    EPW24260   6.292   5.410   0.790 -0.0849 -0.0423 -0.2968
 5889WAT      O24261   0.975   5.537   3.477 -0.4859  0.1544 -0.0136
 5889WAT     H124262   0.936   5.464   3.448  0.5727 -0.7188  0.6351
 5889WAT     H224263   0.998   5.578   3.404  1.8822 -1.8564 -0.5464
 5889WAT    EPW24264   0.973   5.532   3.462  0.7401 -0.6389 -0.3779
 5890WAT      O24265   4.293   4.940   0.951  0.2082  0.1322 -0.1743
 5890WAT     H124266   4.230   4.997   0.969 -1.1759 -1.1878 -0.5663
 5890WAT     H224267   4.366   4.984   0.967 -0.8173  1.2889  1.6650
 5890WAT    EPW24268   4.294   4.955   0.956  0.1942  0.5370  0.1502
 5891WAT      O24269   4.465   0.018   3.020 -0.4139 -0.8429 -0.0633
 5891WAT     H124270   4.544  -0.003   3.051  0.1564  0.5360 -0.5014
 5891WAT     H224271   4.478   0.030   2.935 -1.1211 -0.6913 -0.1614
 5891WAT    EPW24272   4.479   0.017   3.012  0.5065 -0.0780  0.4099
 5892WAT      O24273   4.809   6.338   1.529  0.5385 -0.2607 -0.3778
 5892WAT     H124274   4.726   6.362   1.543  1.3491  2.2471  0.5263
 5892WAT     H224275   4.836   6.311   1.608  0.7272 -0.6356 -0.5674
 5892WAT    EPW24276   4.801   6.337   1.543 -0.1950 -0.6926 -0.1894
 5893WAT      O24277   5.985   5.441   4.751  0.3237 -0.1453 -0.2008
 5893WAT     H124278   5.963   5.449   4.667 -1.6915 -1.2710  0.1597
 5893WAT     H224279   6.064   5.478   4.755 -0.1970  1.3700 -2.2567
 5893WAT    EPW24280   5.994   5.447   4.740  0.0260 -0.0469  0.3631
 5894WAT      O24281   3.772   6.914   5.733  0.2018  0.7423  0.0645
 5894WAT     H124282   3.826   6.981   5.728  1.3538 -0.0590  1.1039
 5894WAT     H224283   3.725   6.930   5.805 -0.1497  0.8689 -0.1895
 5894WAT    EPW24284   3.773   6.926   5.743  0.1975  0.6254 -0.0249
 5895WAT      O24285   1.233   7.282   4.712 -0.9725 -0.0858  0.4205
 5895WAT     H124286   1.259   7.304   4.792 -2.1875  2.8267  0.1210
 5895WAT     H224287   1.146   7.278   4.718 -1.4549  3.4176 -1.2402
 5895WAT    EPW24288   1.224   7.285   4.725  0.1694 -0.0811  0.1021
 5896WAT      O24289   2.251   5.999   7.052 -0.1990  0.3123  0.1774
 5896WAT     H124290   2.256   5.925   7.006  1.4137  0.8750 -0.6545
 5896WAT     H224291   2.189   6.045   7.010 -0.0399  0.0737 -0.3350
 5896WAT    EPW24292   2.242   5.995   7.039  0.6432  0.6557  0.5331
 5897WAT      O24293   1.431   6.136   1.497  0.2325  0.3218  0.4407
 5897WAT     H124294   1.489   6.117   1.560  2.9219  0.0896 -1.8750
 5897WAT     H224295   1.354   6.121   1.535  1.7180 -1.7264  3.0462
 5897WAT    EPW24296   1.428   6.131   1.512  0.0765 -0.1707 -0.8012
 5898WAT      O24297   3.559   6.671   1.563  0.0412  0.6119 -0.1935
 5898WAT     H124298   3.641   6.641   1.565 -0.2449 -0.3819  2.8326
 5898WAT     H224299   3.511   6.599   1.555 -0.5841  1.0409 -0.4249
 5898WAT    EPW24300   3.564   6.656   1.562  0.4674 -0.0644 -0.1873
 5899WAT      O24301   2.354   1.296   2.496  0.1659  0.5443 -0.4959
 5899WAT     H124302   2.333   1.299   2.411 -0.4895  0.7958 -0.3242
 5899WAT     H224303   2.398   1.371   2.509  0.7716  0.2418 -0.7383
 5899WAT    EPW24304   2.357   1.308   2.485 -0.1746  0.2486 -0.5726
 5900WAT      O24305   1.858   5.847   0.627  0.3223 -0.6619 -0.4833
 5900WAT     H124306   1.905   5.783   0.662  0.3281 -1.1346 -1.3251
 5900WAT     H224307   1.805   5.872   0.692  1.6160 -0.2064  0.4448
 5900WAT    EPW24308   1.857   5.841   0.642  1.0421 -0.1772  0.6002
 5901WAT      O24309   5.913   6.878   1.347  0.0112 -0.2458 -0.2214
 5901WAT     H124310   5.980   6.928   1.324  0.0902 -0.7405 -1.1258
 5901WAT     H224311   5.948   6.798   1.349 -0.6204 -0.5565 -1.0573
 5901WAT    EPW24312   5.928   6.873   1.344 -0.3092  0.1689  0.1528
 5902WAT      O24313   3.327   7.721   3.002 -0.1738  0.1330 -0.0657
 5902WAT     H124314   3.365   7.776   3.059 -3.5915  1.4212  1.2000
 5902WAT     H224315   3.367   7.740   2.926  0.7182  2.3634  0.8648
 5902WAT    EPW24316   3.339   7.732   2.999  0.9393 -0.1420 -0.5235
 5903WAT      O24317   8.030   1.850   3.053 -0.3535  0.2191  0.4285
 5903WAT     H124318   8.056   1.923   3.093 -1.3319  1.0013 -0.3292
 5903WAT     H224319   8.105   1.808   3.038  0.2374  1.0911  0.8395
 5903WAT    EPW24320   8.045   1.855   3.056  0.2662 -0.1042 -0.1864
 5904WAT      O24321   2.371   5.100   7.550 -0.1329 -0.0449 -0.5840
 5904WAT     H124322   2.361   5.092   7.636 -0.6565 -2.1290 -0.7867
 5904WAT     H224323   2.419   5.172   7.542 -1.4035  1.1052  1.3421
 5904WAT    EPW24324   2.377   5.109   7.561 -0.3094  0.1093  0.0252
 5905WAT      O24325   4.788   6.337   4.611 -0.2587 -0.3338  0.1977
 5905WAT     H124326   4.839   6.275   4.576 -4.2095 -5.3213  1.9254
 5905WAT     H224327   4.733   6.357   4.546  0.8812  1.3886 -0.2905
 5905WAT    EPW24328   4.787   6.331   4.596 -0.2447 -0.0673  0.8311
 5906WAT      O24329   2.769   6.250   4.827  0.1492  0.0812 -0.3547
 5906WAT     H124330   2.852   6.273   4.813  0.2233  0.7202  1.0537
 5906WAT     H224331   2.725   6.293   4.765  0.4234  3.1023  1.4121
 5906WAT    EPW24332   2.775   6.260   4.816  0.7062 -0.5281 -0.3439
 5907WAT      O24333   1.807   5.511   5.292  0.3792  0.2740 -0.6845
 5907WAT     H124334   1.853   5.445   5.326 -1.2035 -0.2310  0.6559
 5907WAT     H224335   1.767   5.545   5.362  0.0700  1.7720 -1.5539
 5907WAT    EPW24336   1.808   5.506   5.308 -0.0531  0.3150 -0.9865
 5908WAT      O24337   3.230   6.826   2.898 -0.3941  0.2151  0.4521
 5908WAT     H124338   3.148   6.851   2.915 -0.3936 -0.4468  1.5381
 5908WAT     H224339   3.223   6.739   2.889  0.2749  0.0703  1.2315
 5908WAT    EPW24340   3.217   6.817   2.900  0.3121 -0.4641  0.2576
 5909WAT      O24341   5.399   7.444   1.055 -0.4036 -0.2015  0.1703
 5909WAT     H124342   5.395   7.531   1.061  0.5022  0.1962 -2.9121
 5909WAT     H224343   5.316   7.421   1.042 -0.6112  0.2188  0.6955
 5909WAT    EPW24344   5.386   7.453   1.054 -0.0962 -0.6083  0.1074
 5910WAT      O24345   2.416   6.565   0.742  0.3436  0.3080  0.7280
 5910WAT     H124346   2.488   6.528   0.775  2.2093  1.1626 -1.9931
 5910WAT     H224347   2.438   6.580   0.658 -3.6191 -0.8778 -0.7061
 5910WAT    EPW24348   2.430   6.562   0.734  0.0640  0.2909  0.1747
 5911WAT      O24349   3.842   4.662   1.928  0.3318 -0.5238  0.0464
 5911WAT     H124350   3.863   4.619   1.855  1.3951 -1.1972  0.7270
 5911WAT     H224351   3.903   4.638   1.984 -0.4337  0.0380  1.1535
 5911WAT    EPW24352   3.854   4.652   1.925  0.2752  0.7747 -0.4678
 5912WAT      O24353   4.890   4.135   1.835 -0.3761 -0.2555  0.0367
 5912WAT     H124354   4.886   4.089   1.760  0.4394  0.9178 -0.7456
 5912WAT     H224355   4.969   4.172   1.833 -0.4771  0.0834  1.3278
 5912WAT    EPW24356   4.901   4.133   1.824  0.4274 -0.1650  0.1903
 5913WAT      O24357   3.283   6.068   1.514  0.0418  0.0322  0.3197
 5913WAT     H124358   3.266   6.144   1.553  2.9295  1.1215 -0.2939
 5913WAT     H224359   3.222   6.062   1.452 -0.0715  2.0263  0.1891
 5913WAT    EPW24360   3.271   6.078   1.511 -0.0656  0.1963  0.4398
 5914WAT      O24361   5.184   3.490   1.270  0.4105 -0.4080 -0.1539
 5914WAT     H124362   5.265   3.525   1.264  1.0572 -1.7250  0.5678
 5914WAT     H224363   5.164   3.472   1.187 -0.2979  2.3427 -0.6819
 5914WAT    EPW24364   5.193   3.493   1.257 -0.7322 -0.1000 -0.3656
 5915WAT      O24365   2.564   6.554   5.817 -0.6562 -0.1412  0.3439
 5915WAT     H124366   2.490   6.527   5.779 -0.6669  0.0468  0.2285
 5915WAT     H224367   2.624   6.543   5.754 -0.7701  0.6900  0.0846
 5915WAT    EPW24368   2.562   6.548   5.802  0.2838 -0.8288 -0.4829
 5916WAT      O24369   0.858   5.082   0.040  0.0048  0.1590 -0.3898
 5916WAT     H124370   0.773   5.064   0.032 -0.3028  1.5182 -0.4356
 5916WAT     H224371   0.870   5.088   0.126  0.1069 -0.2462 -0.3745
 5916WAT    EPW24372   0.848   5.080   0.051 -0.2482  0.3049 -0.3001
 5917WAT      O24373   7.754   7.650   2.297 -0.1304 -0.3929  0.5360
 5917WAT     H124374   7.838   7.642   2.275 -0.8557 -1.7522 -2.1251
 5917WAT     H224375   7.737   7.577   2.340  0.1345  0.1530  1.6173
 5917WAT    EPW24376   7.764   7.638   2.301  0.1028  0.2776  0.0594
 5918WAT      O24377   3.798   0.552   0.246 -0.6288 -0.4485 -0.4776
 5918WAT     H124378   3.882   0.534   0.233 -0.7862 -1.2430 -0.4338
 5918WAT     H224379   3.771   0.580   0.168 -0.6181 -1.4116 -0.8387
 5918WAT    EPW24380   3.806   0.554   0.232  0.2715 -0.1961  0.0399
 5919WAT      O24381   1.310   1.111   5.391  0.4650 -0.0305  0.0589
 5919WAT     H124382   1.378   1.163   5.376  1.0052 -0.8493 -0.3717
 5919WAT     H224383   1.268   1.111   5.314  1.0481 -1.0540 -0.2777
 5919WAT    EPW24384   1.314   1.118   5.377  0.1130  0.4844 -0.5505
 5920WAT      O24385   5.959   5.200   5.949  0.1689 -0.4984  0.0617
 5920WAT     H124386   5.905   5.222   6.014  1.0543  1.6320  0.1488
 5920WAT     H224387   5.928   5.246   5.881 -0.2883 -2.1183 -0.8938
 5920WAT    EPW24388   5.946   5.210   5.948 -0.0918 -0.3079 -0.0311
 5921WAT      O24389   4.384   1.599   3.388 -0.3583  0.1350 -0.2542
 5921WAT     H124390   4.451   1.575   3.338  0.3656  0.9915  0.2712
 5921WAT     H224391   4.423   1.636   3.458 -1.2956 -1.5703  1.2498
 5921WAT    EPW24392   4.400   1.601   3.391  0.1072  0.5164 -0.5160
 5922WAT      O24393   5.351   1.289   2.799  0.3870 -0.2496  0.7664
 5922WAT     H124394   5.416   1.267   2.854 -0.1461 -1.3544  0.9784
 5922WAT     H224395   5.308   1.214   2.787 -1.4983  0.6493  1.4738
 5922WAT    EPW24396   5.355   1.275   2.806 -0.5276  0.2733 -0.2773
 5923WAT      O24397   2.641   7.188   0.253 -0.3353  0.0675 -0.0243
 5923WAT     H124398   2.709   7.184   0.198  0.6269 -0.0362  1.1391
 5923WAT     H224399   2.578   7.225   0.205  0.3775 -0.2983 -1.2801
 5923WAT    EPW24400   2.641   7.193   0.238  0.3769 -0.6143  0.1249
 5924WAT      O24401   3.933   7.371   2.755  0.5530  0.2689  0.1742
 5924WAT     H124402   3.876   7.420   2.798  0.2715  0.0506  0.0527
 5924WAT     H224403   3.884   7.308   2.720  0.7865  0.4055 -0.4067
 5924WAT    EPW24404   3.918   7.369   2.756  0.6647  0.2603  0.1347
 5925WAT      O24405   2.423   6.180   6.180 -0.1874  0.2481 -0.1700
 5925WAT     H124406   2.365   6.245   6.186  0.2098  0.5456  0.6916
 5925WAT     H224407   2.480   6.210   6.121 -0.7839  0.0472 -0.8567
 5925WAT    EPW24408   2.423   6.194   6.172 -0.1541 -0.1529  0.5971
 5926WAT      O24409   3.603   6.183   3.191  0.6879  0.4205 -0.2353
 5926WAT     H124410   3.566   6.160   3.267  0.5808 -0.0267 -0.4230
 5926WAT     H224411   3.638   6.109   3.162 -1.8543 -0.1955 -2.1027
 5926WAT    EPW24412   3.603   6.169   3.198 -0.2172  0.1559 -0.1445
 5927WAT      O24413   5.145   1.960   5.043 -0.4456  0.4610 -0.1187
 5927WAT     H124414   5.169   1.905   4.980  3.1073  2.1553 -0.4350
 5927WAT     H224415   5.065   1.985   5.018 -0.9502 -2.1947 -1.5323
 5927WAT    EPW24416   5.136   1.956   5.030 -0.5687  0.3165  0.3310
 5928WAT      O24417   4.111   6.336   5.234 -0.3187  0.4348 -0.5617
 5928WAT     H124418   4.131   6.270   5.287  1.4899  0.7877 -0.7367
 5928WAT     H224419   4.042   6.373   5.272  0.4190  0.1835  1.1026
 5928WAT    EPW24420   4.104   6.332   5.247  0.2020 -0.2330 -0.2842
 5929WAT      O24421   4.391   6.596   2.017 -0.0995  0.0545  0.3175
 5929WAT     H124422   4.326   6.619   1.965 -0.2704  0.6868  0.7866
 5929WAT     H224423   4.410   6.670   2.060  0.5644 -0.2497  0.5725
 5929WAT    EPW24424   4.384   6.611   2.016  0.0486  0.1156  0.6295
 5930WAT      O24425   3.725   2.130   7.698  0.0027 -0.1464  0.1244
 5930WAT     H124426   3.649   2.088   7.702 -0.5216  0.8843  1.6007
 5930WAT     H224427   3.748   2.140   7.781  0.4877  1.8006 -0.1888
 5930WAT    EPW24428   3.717   2.125   7.710 -0.3532 -0.4262  0.0611
 5931WAT      O24429   3.151   8.027   1.651  0.3744 -0.1111  0.0222
 5931WAT     H124430   3.209   8.000   1.710 -0.5465 -0.4407  0.7958
 5931WAT     H224431   3.191   8.096   1.614  1.8725 -1.2318 -0.5303
 5931WAT    EPW24432   3.166   8.033   1.654 -0.4769 -0.0893 -0.3411
 5932WAT      O24433   3.476   5.636   4.299 -0.1996 -0.4491  0.0115
 5932WAT     H124434   3.471   5.550   4.282 -0.9961  0.0820 -3.0794
 5932WAT     H224435   3.402   5.652   4.343 -1.0229 -1.0775 -1.0761
 5932WAT    EPW24436   3.464   5.625   4.303 -0.0835 -0.3014 -0.7079
 5933WAT      O24437   6.909   3.250   3.337  0.1262  0.1824 -0.3068
 5933WAT     H124438   6.942   3.254   3.417 -0.3376 -0.1087 -0.0996
 5933WAT     H224439   6.978   3.227   3.288  0.0745 -1.2678  0.2434
 5933WAT    EPW24440   6.924   3.247   3.341 -0.1229  0.0686  0.4034
 5934WAT      O24441   1.904   6.172   3.205 -0.1806  0.2771 -0.5417
 5934WAT     H124442   1.907   6.224   3.275  1.6967 -1.6956  0.9979
 5934WAT     H224443   1.870   6.098   3.237 -2.3166  0.2927 -2.5396
 5934WAT    EPW24444   1.900   6.168   3.220  0.1702 -0.4281  0.0635
 5935WAT      O24445   5.363   1.736   2.740 -0.0776 -0.0112 -0.1788
 5935WAT     H124446   5.340   1.786   2.673  0.8992 -0.0155 -0.5387
 5935WAT     H224447   5.371   1.656   2.704  1.3031  0.1403 -0.2838
 5935WAT    EPW24448   5.361   1.731   2.725  0.0059 -0.1497  0.2257
 5936WAT      O24449   3.755   4.038   0.183  0.0466  0.2824  0.4324
 5936WAT     H124450   3.837   4.040   0.156 -0.1939  1.7625 -0.2815
 5936WAT     H224451   3.759   4.067   0.265  0.1215  1.5732 -0.0060
 5936WAT    EPW24452   3.767   4.043   0.191 -0.2756  0.0941 -0.6036
 5937WAT      O24453   5.464   2.097   2.890  0.6556 -0.3503 -0.1222
 5937WAT     H124454   5.419   2.034   2.851 -1.6347  0.1448  1.5118
 5937WAT     H224455   5.458   2.165   2.835 -0.2369 -0.4273 -0.1284
 5937WAT    EPW24456   5.456   2.098   2.876 -0.1896 -0.0451  0.0572
 5938WAT      O24457   5.002   2.993   2.063  0.1860  0.0858  0.1243
 5938WAT     H124458   5.063   2.931   2.059 -1.1736 -1.2686 -0.8332
 5938WAT     H224459   4.992   3.007   2.149  2.3346  0.9111  0.2938
 5938WAT    EPW24460   5.009   2.986   2.075  0.5133 -0.0481  0.3271
 5939WAT      O24461   1.492   6.975   3.215 -0.0864  0.1682  0.3256
 5939WAT     H124462   1.533   6.914   3.167  1.8051  2.4314 -1.1975
 5939WAT     H224463   1.408   6.961   3.199  0.3835 -0.7060 -1.7694
 5939WAT    EPW24464   1.486   6.964   3.205 -0.0538 -0.1540 -0.4183
 5940WAT      O24465   1.038   7.459   2.350 -0.0525 -0.0476 -0.3413
 5940WAT     H124466   0.990   7.386   2.358  1.4760 -1.1251 -0.5365
 5940WAT     H224467   1.077   7.449   2.272 -0.0732  1.1456 -0.5160
 5940WAT    EPW24468   1.037   7.446   2.340  0.0352 -0.4823 -0.0867
 5941WAT      O24469   3.171   5.979   7.324  0.5033 -0.1208 -0.5088
 5941WAT     H124470   3.123   5.940   7.385  0.0811 -1.9240 -1.9016
 5941WAT     H224471   3.161   5.927   7.254  1.6604  1.3746 -1.8551
 5941WAT    EPW24472   3.163   5.965   7.323  0.2253  0.2085 -0.0102
 5942WAT      O24473   5.277   6.751   2.000  0.1440  0.0801 -0.0567
 5942WAT     H124474   5.268   6.832   2.032 -0.3167 -0.7384  2.1176
 5942WAT     H224475   5.223   6.704   2.050 -0.5085 -1.4165 -2.0545
 5942WAT    EPW24476   5.268   6.756   2.012 -0.4920  0.4974  0.1889
 5943WAT      O24477   1.668   2.262   1.685 -0.3279  0.3224  0.1703
 5943WAT     H124478   1.727   2.206   1.716  0.1844  1.5363  1.4739
 5943WAT     H224479   1.597   2.213   1.673  0.7193 -1.0153 -0.7607
 5943WAT    EPW24480   1.666   2.247   1.688  0.0909  0.3747 -0.4925
 5944WAT      O24481   4.366   5.779   2.530 -0.4475 -0.1050  0.7441
 5944WAT     H124482   4.325   5.792   2.454  0.4363 -0.9181  0.1015
 5944WAT     H224483   4.395   5.697   2.523 -0.3571 -0.1890  1.9702
 5944WAT    EPW24484   4.364   5.769   2.518  0.1060 -0.1207  0.0539
 5945WAT      O24485   1.972   1.929   7.332 -0.0475 -0.2761 -0.0020
 5945WAT     H124486   2.009   1.965   7.262  0.1845 -1.1859 -0.3665
 5945WAT     H224487   2.040   1.899   7.379 -0.2666 -1.9538 -0.6767
 5945WAT    EPW24488   1.988   1.930   7.329  0.0500  0.0217  0.5621
 5946WAT      O24489   4.687   1.810   0.402 -0.4151 -0.4428 -0.0510
 5946WAT     H124490   4.602   1.802   0.416 -0.4734  1.3854  0.8634
 5946WAT     H224491   4.693   1.827   0.316 -1.3092  2.8404  0.4248
 5946WAT    EPW24492   4.676   1.811   0.391  0.3960 -0.4518  0.3540
 5947WAT      O24493   2.936   2.276   0.911 -0.2345  0.6011 -0.0074
 5947WAT     H124494   2.907   2.194   0.910  0.8573  0.1848 -1.4917
 5947WAT     H224495   2.864   2.324   0.902 -1.1378 -0.0165  2.7884
 5947WAT    EPW24496   2.921   2.271   0.910  0.3914  0.4114 -0.0789
 5948WAT      O24497   2.135   0.115   0.861  0.1194 -0.4797 -0.0703
 5948WAT     H124498   2.153   0.034   0.888  0.4362 -0.3137  0.2228
 5948WAT     H224499   2.070   0.140   0.913  1.0506  0.0175  0.8823
 5948WAT    EPW24500   2.128   0.107   0.873  0.2547 -0.3294  0.6187
 5949WAT      O24501   2.661   7.731   4.745  0.6510  0.1214 -0.9949
 5949WAT     H124502   2.709   7.659   4.756 -0.2391 -0.4961 -1.0794
 5949WAT     H224503   2.720   7.793   4.734  1.4294 -0.7367 -1.8370
 5949WAT    EPW24504   2.677   7.729   4.745 -0.7687  0.9253 -0.4480
 5950WAT      O24505   2.320   5.228   0.983  0.4068 -0.3281 -0.1856
 5950WAT     H124506   2.354   5.236   1.063 -1.2039 -0.0151  0.5190
 5950WAT     H224507   2.242   5.191   0.998  0.1937 -0.5223 -1.6452
 5950WAT    EPW24508   2.313   5.224   0.997 -0.0432 -0.2669  0.4649
 5951WAT      O24509   6.493   7.736   0.192 -0.0525 -0.0907  0.6427
 5951WAT     H124510   6.526   7.685   0.129  0.2900  0.5946  0.2609
 5951WAT     H224511   6.457   7.679   0.248 -2.9948 -0.6646 -1.5774
 5951WAT    EPW24512   6.492   7.720   0.191  0.0113 -0.1006 -0.3651
 5952WAT      O24513   3.752   1.203   2.560 -0.2205  0.7645 -0.1075
 5952WAT     H124514   3.824   1.229   2.603 -0.1989  2.1713 -0.9337
 5952WAT     H224515   3.706   1.162   2.622  0.2653  1.8574  1.0237
 5952WAT    EPW24516   3.756   1.201   2.576  0.2401  0.2751  0.0227
 5953WAT      O24517   4.984   7.534   6.582 -0.3620  0.0206 -0.4348
 5953WAT     H124518   5.071   7.538   6.576 -0.3732 -0.9407 -1.9404
 5953WAT     H224519   4.964   7.596   6.640  1.1961  1.4935 -1.3717
 5953WAT    EPW24520   4.994   7.544   6.590  0.0903  0.1523  0.0712
 5954WAT      O24521   2.810   4.736   1.970 -0.1572  0.3999  0.5605
 5954WAT     H124522   2.759   4.800   1.939  0.1795 -0.9328 -3.3702
 5954WAT     H224523   2.891   4.769   1.963 -0.1274  0.4852  1.2342
 5954WAT    EPW24524   2.814   4.751   1.964  0.0560 -0.4134  0.1358
 5955WAT      O24525   3.286   7.373   1.027 -0.2177 -0.0855 -0.4926
 5955WAT     H124526   3.202   7.353   1.041 -0.3041  0.4133 -0.2444
 5955WAT     H224527   3.327   7.297   1.033 -0.5396 -0.2108  0.3481
 5955WAT    EPW24528   3.280   7.359   1.030  0.3040 -0.2625  0.3340
 5956WAT      O24529   4.543   6.558   3.213  0.2027  0.5433 -0.4650
 5956WAT     H124530   4.578   6.498   3.161  0.4846  1.3124 -1.1900
 5956WAT     H224531   4.528   6.625   3.160 -0.2306  1.0665  0.2949
 5956WAT    EPW24532   4.546   6.559   3.198  0.2567  0.1114 -0.3775
 5957WAT      O24533   1.707   7.954   4.196  0.3380  0.0629 -0.2177
 5957WAT     H124534   1.723   7.869   4.186 -0.0105 -0.2723  1.6154
 5957WAT     H224535   1.620   7.957   4.202  0.3343  0.5752 -0.5386
 5957WAT    EPW24536   1.696   7.942   4.196 -0.0520 -0.2674  0.6574
 5958WAT      O24537   5.548   7.962   0.221  0.2355  0.3564  0.2212
 5958WAT     H124538   5.635   7.973   0.221  0.2921  0.0222 -0.9426
 5958WAT     H224539   5.536   7.892   0.170 -0.8264  1.5137 -1.2042
 5958WAT    EPW24540   5.559   7.953   0.214 -0.0168  0.3873 -0.1738
 5959WAT      O24541   2.034   1.435   1.775 -0.1307 -0.2396 -0.6286
 5959WAT     H124542   2.059   1.486   1.708  2.4474 -0.2252  0.2159
 5959WAT     H224543   2.054   1.483   1.845 -2.1691 -0.5250  0.1928
 5959WAT    EPW24544   2.041   1.450   1.775  0.4491  0.2314  0.2154
 5960WAT      O24545   4.400   6.256   4.611 -0.5470 -0.0408 -0.1538
 5960WAT     H124546   4.425   6.222   4.535 -0.6185 -1.2165  0.3298
 5960WAT     H224547   4.314   6.242   4.613 -0.4154 -0.8137  0.5206
 5960WAT    EPW24548   4.391   6.249   4.600  0.1518  0.3225 -0.1886
 5961WAT      O24549   4.317   0.326   7.435 -0.4626  0.5344  0.0816
 5961WAT     H124550   4.348   0.385   7.492  0.6323  0.3080 -0.2663
 5961WAT     H224551   4.374   0.328   7.370  0.8639 -2.4310  0.9785
 5961WAT    EPW24552   4.330   0.335   7.434 -0.7645 -0.5629  1.0834
 5962WAT      O24553   4.025   4.491   2.074 -0.2278  0.1461  0.1615
 5962WAT     H124554   4.090   4.533   2.115 -0.6436  0.7456  0.2296
 5962WAT     H224555   3.997   4.433   2.133 -1.3829  1.5734  1.0850
 5962WAT    EPW24556   4.030   4.489   2.089  0.1608  0.3769  0.1912
 5963WAT      O24557   3.456   5.585   2.068  0.2621  0.2547  0.3406
 5963WAT     H124558   3.510   5.619   2.128  1.7057 -0.0968 -0.7163
 5963WAT     H224559   3.413   5.523   2.112 -2.8216  3.5215  2.4910
 5963WAT    EPW24560   3.457   5.581   2.083 -0.4773 -0.6369 -0.0747
 5964WAT      O24561   0.928   0.169   3.518  0.4174 -0.7644  0.7028
 5964WAT     H124562   0.895   0.141   3.594 -2.6846 -1.6059 -0.8027
 5964WAT     H224563   0.873   0.233   3.494  0.7190 -1.2060 -1.3043
 5964WAT    EPW24564   0.915   0.175   3.525  0.6535  0.1977  0.7182
 5965WAT      O24565   4.296   1.517   0.885  0.4502 -0.6625  0.1410
 5965WAT     H124566   4.256   1.558   0.951  1.7531  1.1549 -0.1174
 5965WAT     H224567   4.332   1.447   0.923 -2.0314 -1.7993  0.5597
 5965WAT    EPW24568   4.296   1.513   0.900  0.1379  0.3869 -0.1618
 5966WAT      O24569   0.799   2.321   1.790  0.5209  0.1038  0.7709
 5966WAT     H124570   0.867   2.284   1.831  0.8494  0.8078  0.8810
 5966WAT     H224571   0.822   2.317   1.706  0.8981  0.7115  0.8376
 5966WAT    EPW24572   0.813   2.315   1.783 -0.0230 -0.0646 -0.2944
 5967WAT      O24573   5.424   0.486   4.215 -0.2576 -0.5925 -0.4049
 5967WAT     H124574   5.506   0.458   4.225  0.4634  0.5981 -2.3406
 5967WAT     H224575   5.428   0.569   4.244 -0.0529  0.3202 -2.8444
 5967WAT    EPW24576   5.437   0.494   4.221  0.2271  0.6435 -0.3736
 5968WAT      O24577   4.592   4.231   1.166  0.1296  0.3743  0.2887
 5968WAT     H124578   4.547   4.193   1.231 -0.9939 -0.8419 -1.1103
 5968WAT     H224579   4.582   4.174   1.100  1.2131  1.5730 -0.9387
 5968WAT    EPW24580   4.584   4.217   1.166  0.0915  0.6199 -0.2446
 5969WAT      O24581   5.842   5.513   1.115  0.1283  0.0418  0.1724
 5969WAT     H124582   5.824   5.577   1.171  1.0140  0.8687 -0.4579
 5969WAT     H224583   5.912   5.474   1.151 -0.1118 -0.2640  0.3086
 5969WAT    EPW24584   5.850   5.516   1.128 -0.5940  0.5387 -0.2376
 5970WAT      O24585   4.599   4.654   2.910  0.2558  0.5395  0.4248
 5970WAT     H124586   4.664   4.673   2.965  0.8303  1.2013 -0.4512
 5970WAT     H224587   4.527   4.678   2.953  0.4171 -1.3954  1.9543
 5970WAT    EPW24588   4.598   4.660   2.924 -0.1550  0.6272 -0.9319
 5971WAT      O24589   4.737   6.922   0.446  0.2788 -0.2307  0.4598
 5971WAT     H124590   4.671   6.970   0.414  0.1168 -0.1949  0.8471
 5971WAT     H224591   4.698   6.851   0.477  0.5505 -0.7756 -0.3973
 5971WAT    EPW24592   4.721   6.919   0.446  0.0960  0.3857 -0.2576
 5972WAT      O24593   3.228   6.809   0.028  0.8500  0.1453 -0.4094
 5972WAT     H124594   3.313   6.793   0.020  0.5410 -1.6230 -0.7940
 5972WAT     H224595   3.199   6.740   0.073 -0.3948  0.6426 -0.4088
 5972WAT    EPW24596   3.236   6.796   0.034 -0.0443  0.1845 -0.1494
 5973WAT      O24597   2.651   4.616   6.457  0.6255 -0.1765 -0.0211
 5973WAT     H124598   2.702   4.683   6.433 -1.2778  1.1332 -0.5980
 5973WAT     H224599   2.618   4.641   6.534  0.2771 -0.6712 -0.0041
 5973WAT    EPW24600   2.654   4.629   6.465 -0.2225  0.3275 -0.1306
 5974WAT      O24601   4.877   6.373   0.342 -0.0232  0.1254 -0.0916
 5974WAT     H124602   4.897   6.431   0.281  1.5766 -0.4556 -0.1575
 5974WAT     H224603   4.860   6.300   0.297  0.2441 -0.0614  0.1067
 5974WAT    EPW24604   4.877   6.370   0.326 -0.1282 -0.1526  0.5348
 5975WAT      O24605   7.370   4.593   3.635  0.4691  0.2895 -0.3567
 5975WAT     H124606   7.314   4.526   3.631  0.9762 -0.1054 -1.0791
 5975WAT     H224607   7.401   4.598   3.553 -0.4186  2.1650 -0.6307
 5975WAT    EPW24608   7.366   4.584   3.622 -0.1659  0.5108 -0.1045
 5976WAT      O24609   3.128   0.255   5.694 -0.2790  0.7854 -0.1748
 5976WAT     H124610   3.109   0.336   5.720 -2.0155  0.6410 -0.8902
 5976WAT     H224611   3.051   0.223   5.668  0.6742 -0.5004 -1.5466
 5976WAT    EPW24612   3.114   0.262   5.694  0.6082  0.0146 -0.5321
 5977WAT      O24613   0.751   4.266   0.544 -0.1752 -0.2892  0.4998
 5977WAT     H124614   0.711   4.324   0.493  0.5373  0.0763  0.3416
 5977WAT     H224615   0.686   4.228   0.588 -0.9028 -1.1424 -1.2174
 5977WAT    EPW24616   0.736   4.269   0.543  0.4634  0.1387  0.0612
 5978WAT      O24617   7.677   0.207   0.945 -0.3195  0.8625  0.3367
 5978WAT     H124618   7.708   0.285   0.971 -0.3206  1.4178 -1.2103
 5978WAT     H224619   7.734   0.182   0.885 -0.3697 -0.3256  0.7630
 5978WAT    EPW24620   7.690   0.215   0.940  0.0241 -0.2193 -0.0010
 5979WAT      O24621   1.907   7.703   6.153  0.5891  0.5851 -0.1237
 5979WAT     H124622   1.973   7.646   6.153  2.0926  2.1600 -2.0461
 5979WAT     H224623   1.887   7.710   6.068 -0.5130  1.8233  0.2100
 5979WAT    EPW24624   1.914   7.696   6.140 -0.1039  0.2761 -0.2568
 5980WAT      O24625   5.595   1.192   1.517 -0.6046  0.4506 -0.5490
 5980WAT     H124626   5.576   1.153   1.592  3.7478  1.4447  1.3461
 5980WAT     H224627   5.595   1.126   1.459  0.7799 -1.3458  1.3585
 5980WAT    EPW24628   5.592   1.176   1.519 -0.3952 -0.2947  0.3348
 5981WAT      O24629   4.345   1.234   7.486 -0.0886  0.1347 -1.3845
 5981WAT     H124630   4.403   1.292   7.456  0.1049 -0.2548 -1.7744
 5981WAT     H224631   4.290   1.224   7.418 -1.2695  1.3380 -0.6480
 5981WAT    EPW24632   4.345   1.241   7.471  0.4323  0.2876  0.2553
 5982WAT      O24633   0.243   6.330   0.634  0.7406 -0.0936  0.0192
 5982WAT     H124634   0.234   6.344   0.720 -0.0427 -0.3896 -0.0134
 5982WAT     H224635   0.324   6.298   0.628  0.5088 -0.8346  0.7439
 5982WAT    EPW24636   0.254   6.328   0.646  0.0884  0.6824  0.5834
 5983WAT      O24637   3.462   7.646   4.182  0.2385  0.0754 -0.9774
 5983WAT     H124638   3.518   7.622   4.244  0.9955 -0.2663 -1.7617
 5983WAT     H224639   3.400   7.585   4.185  0.1689  0.1678 -0.4406
 5983WAT    EPW24640   3.461   7.634   4.191 -0.4665  0.0771 -0.2200
 5984WAT      O24641   2.200   7.971   3.158  0.6886  0.2669 -0.5511
 5984WAT     H124642   2.125   7.933   3.135 -0.2753  1.0569  1.1475
 5984WAT     H224643   2.250   7.961   3.087  0.1885 -3.2140 -0.6068
 5984WAT    EPW24644   2.196   7.964   3.144 -0.4576 -0.0132 -0.3675
 5985WAT      O24645   3.050   5.658   6.766 -0.1450  0.5096  0.0369
 5985WAT     H124646   3.083   5.723   6.814  1.2212 -0.1523  0.0470
 5985WAT     H224647   3.119   5.631   6.718 -0.5872 -1.1018  0.2402
 5985WAT    EPW24648   3.065   5.663   6.766 -0.1637  0.0864 -0.1861
 5986WAT      O24649   3.543   0.923   2.186 -0.8512  0.0670 -0.0918
 5986WAT     H124650   3.577   0.893   2.260 -0.4865  0.9554  0.1081
 5986WAT     H224651   3.525   0.851   2.141 -0.0496 -0.4529  0.4025
 5986WAT    EPW24652   3.545   0.908   2.190  0.4698 -0.4519  0.7542
 5987WAT      O24653   6.464   2.402   3.551  0.1104  0.2237  0.3490
 5987WAT     H124654   6.414   2.473   3.558 -0.2151  0.3408 -2.1871
 5987WAT     H224655   6.539   2.427   3.588 -0.2916  1.5839  0.3241
 5987WAT    EPW24656   6.468   2.416   3.557 -0.7017 -0.1081  0.3746
 5988WAT      O24657   0.106   3.621   0.551 -0.1118 -0.7231 -0.3068
 5988WAT     H124658   0.138   3.638   0.631 -1.7571  1.0059  0.0678
 5988WAT     H224659   0.026   3.590   0.567 -0.1463 -1.1460 -1.2662
 5988WAT    EPW24660   0.099   3.619   0.565  0.3302 -0.0703 -0.2860
 5989WAT      O24661   3.611   1.227   1.921 -0.4363 -0.3052 -0.5873
 5989WAT     H124662   3.541   1.235   1.972  1.0755  2.7597  1.2663
 5989WAT     H224663   3.667   1.181   1.970 -0.7474 -2.0195 -1.7308
 5989WAT    EPW24664   3.609   1.221   1.936 -0.5816 -0.0235 -0.4714
 5990WAT      O24665   0.847   4.112   4.065  0.1945 -0.0654  0.0986
 5990WAT     H124666   0.909   4.092   4.008  0.4203  2.9162 -0.8647
 5990WAT     H224667   0.796   4.168   4.022  0.8482  3.0288  2.9651
 5990WAT    EPW24668   0.848   4.117   4.050  0.0791  0.0188  0.1347
 5991WAT      O24669   7.968   2.890   1.576 -0.1250  0.0552 -0.0645
 5991WAT     H124670   8.000   2.925   1.503 -2.1989 -0.4821 -1.3262
 5991WAT     H224671   7.882   2.892   1.563 -0.5260 -0.8886  2.0145
 5991WAT    EPW24672   7.960   2.896   1.563  0.6563 -0.1009 -0.3659
 5992WAT      O24673   2.231   4.417   1.644  0.5218 -0.1905  0.9021
 5992WAT     H124674   2.261   4.485   1.690 -0.5436  0.6314  0.4255
 5992WAT     H224675   2.148   4.438   1.627  0.7694 -0.5965 -1.0962
 5992WAT    EPW24676   2.223   4.430   1.648  0.5043  0.1796 -0.3712
 5993WAT      O24677   7.503   0.165   3.141  0.3693  0.4910 -0.3264
 5993WAT     H124678   7.556   0.198   3.080 -1.3160  0.7568 -1.7190
 5993WAT     H224679   7.475   0.235   3.184  1.9189  0.2775  1.1819
 5993WAT    EPW24680   7.507   0.180   3.139 -0.2682 -0.4119  0.0689
 5994WAT      O24681   1.250   5.082   7.721  0.1056 -0.2609  0.1613
 5994WAT     H124682   1.298   5.054   7.789  0.3284  0.1470  0.1704
 5994WAT     H224683   1.170   5.091   7.755  0.4249  0.9034  0.6191
 5994WAT    EPW24684   1.245   5.079   7.736  0.7431  0.1174 -0.0738
 5995WAT      O24685   2.003   1.488   4.852  0.0061 -0.4547 -0.2280
 5995WAT     H124686   1.929   1.522   4.884 -0.2767  0.3975 -1.6947
 5995WAT     H224687   1.976   1.430   4.793  0.3854  1.5014 -2.4950
 5995WAT    EPW24688   1.988   1.485   4.848 -0.0036  0.0994 -0.4926
 5996WAT      O24689   5.779   0.103   0.545  0.3012 -0.1333  0.3233
 5996WAT     H124690   5.770   0.160   0.610 -1.1030  0.6401 -0.4856
 5996WAT     H224691   5.738   0.142   0.478  0.3753 -1.5569 -0.5976
 5996WAT    EPW24692   5.772   0.118   0.545 -0.6703  0.1564  0.1963
 5997WAT      O24693   3.945   1.395   0.646  0.1775  0.1278 -0.0087
 5997WAT     H124694   3.919   1.332   0.591 -1.2327  2.2543 -1.9866
 5997WAT     H224695   4.031   1.383   0.653  0.2043 -0.9801 -1.7329
 5997WAT    EPW24696   3.954   1.384   0.639  0.4809 -0.1744 -0.3435
 5998WAT      O24697   4.900   1.224   2.563 -0.5959  0.2480  0.3617
 5998WAT     H124698   4.858   1.165   2.612 -0.5963  1.3742  1.8199
 5998WAT     H224699   4.843   1.289   2.556 -0.7947 -0.1045 -1.6768
 5998WAT    EPW24700   4.886   1.225   2.569 -0.1059 -0.6792 -0.7437
 5999WAT      O24701   0.954   6.945   4.717 -0.6334  0.0141 -0.3882
 5999WAT     H124702   1.039   6.956   4.701 -0.4758 -0.8682 -0.2376
 5999WAT     H224703   0.925   7.026   4.729  0.5733  0.2476  1.4185
 5999WAT    EPW24704   0.963   6.958   4.717  0.3468  0.5633 -0.1594
 6000WAT      O24705   4.758   6.385   7.515  0.4436  0.5525  0.5093
 6000WAT     H124706   4.772   6.322   7.574 -0.9323  0.5622  0.8774
 6000WAT     H224707   4.813   6.365   7.451 -0.2587 -1.3113  0.4133
 6000WAT    EPW24708   4.768   6.373   7.514 -0.1205 -0.4613  0.4463
 6001WAT      O24709   5.755   6.556   0.799  0.2616 -0.2324 -0.1158
 6001WAT     H124710   5.713   6.494   0.755  2.1467 -1.7889  0.1280
 6001WAT     H224711   5.719   6.552   0.878 -0.0659 -0.5778 -0.2773
 6001WAT    EPW24712   5.744   6.547   0.804  0.0080 -0.2200 -0.3828
 6002WAT      O24713   3.601   4.615   2.108  0.1390 -0.2396 -0.6653
 6002WAT     H124714   3.621   4.693   2.141 -0.1437  0.3547 -1.8493
 6002WAT     H224715   3.648   4.611   2.034  1.0960 -1.7171 -0.0182
 6002WAT    EPW24716   3.611   4.626   2.102  0.0644 -0.6820 -0.0537
 6003WAT      O24717   7.612   7.833   0.275 -0.1188 -0.2934 -0.0368
 6003WAT     H124718   7.539   7.872   0.245  0.1693 -1.0048 -1.7509
 6003WAT     H224719   7.676   7.883   0.243  0.2122  0.9836  2.3846
 6003WAT    EPW24720   7.610   7.846   0.266 -0.6289 -0.3377  0.2850
 6004WAT      O24721   4.177   0.179   0.883 -0.0981  0.1998 -0.0616
 6004WAT     H124722   4.184   0.167   0.969  2.4786  0.9267 -0.0774
 6004WAT     H224723   4.188   0.098   0.851  0.6416  0.1631  0.2627
 6004WAT    EPW24724   4.180   0.165   0.891 -0.2950  0.6890  0.0806
 6005WAT      O24725   1.865   7.162   1.315  0.2612  0.0665  0.0679
 6005WAT     H124726   1.952   7.171   1.313  0.3585 -0.8395 -0.3031
 6005WAT     H224727   1.836   7.243   1.300  0.9962  0.9724  2.8721
 6005WAT    EPW24728   1.874   7.175   1.312  0.3264  0.4683  0.1098
 6006WAT      O24729   4.026   1.267   2.570 -0.3390 -0.5234  0.0383
 6006WAT     H124730   4.031   1.236   2.489 -1.4780 -0.4825 -0.0644
 6006WAT     H224731   4.016   1.353   2.558  1.1471 -0.2766  0.2845
 6006WAT    EPW24732   4.025   1.275   2.557 -0.2060 -0.6882 -0.2170
 6007WAT      O24733   6.489   7.971   3.123  0.3335  0.5597  1.4422
 6007WAT     H124734   6.438   8.030   3.084 -0.1741 -0.7306  0.0415
 6007WAT     H224735   6.457   7.895   3.096  2.2623 -0.3273  1.4560
 6007WAT    EPW24736   6.477   7.969   3.113  0.1174  0.0928 -0.5550
 6008WAT      O24737   6.545   0.641   1.456 -0.3736 -0.0576  0.2108
 6008WAT     H124738   6.603   0.705   1.471  0.5795 -0.7757 -0.2918
 6008WAT     H224739   6.494   0.643   1.527  2.6713 -1.9193  2.7028
 6008WAT    EPW24740   6.546   0.651   1.469  0.2140  0.0041  0.2869
 6009WAT      O24741   1.835   4.870   3.968 -0.2872 -0.3478  0.1794
 6009WAT     H124742   1.817   4.798   3.922 -1.3707 -0.1658  0.3010
 6009WAT     H224743   1.892   4.912   3.917  0.4687 -1.3437  0.1710
 6009WAT    EPW24744   1.841   4.866   3.954 -0.5837 -0.4975 -0.2423
 6010WAT      O24745   4.308   6.199   1.191  0.1854  0.5316 -0.7215
 6010WAT     H124746   4.334   6.117   1.174 -0.1479  0.3755 -0.4811
 6010WAT     H224747   4.225   6.190   1.216  0.4014  0.8481  0.1536
 6010WAT    EPW24748   4.300   6.185   1.192  0.1511  0.8224 -0.4453
 6011WAT      O24749   3.557   5.539   7.062 -0.4061  0.0142  0.1545
 6011WAT     H124750   3.491   5.590   7.086  0.3206  0.2842  1.7259
 6011WAT     H224751   3.620   5.596   7.042 -0.0379 -0.2318  0.5847
 6011WAT    EPW24752   3.557   5.555   7.063  0.0034 -0.2640  0.1208
 6012WAT      O24753   7.218   0.898   4.830 -0.2012 -0.1466 -0.2964
 6012WAT     H124754   7.299   0.927   4.844 -0.2511 -0.5860  1.1113
 6012WAT     H224755   7.188   0.949   4.766  1.1383  0.1038 -0.7542
 6012WAT    EPW24756   7.225   0.909   4.823  0.4843 -0.7329  0.2040
 6013WAT      O24757   2.880   4.069   1.210  0.0915 -0.1946  0.2289
 6013WAT     H124758   2.820   4.016   1.176 -0.3292  0.5363 -0.2134
 6013WAT     H224759   2.936   4.082   1.144 -0.0692  0.2743  0.1755
 6013WAT    EPW24760   2.880   4.063   1.195  0.3509 -0.1229  0.0295
 6014WAT      O24761   4.702   5.817   0.772  0.0471 -0.5313  0.4205
 6014WAT     H124762   4.745   5.867   0.715  3.3049 -0.4740  2.6564
 6014WAT     H224763   4.662   5.758   0.722  2.3294 -0.2200 -1.9760
 6014WAT    EPW24764   4.702   5.816   0.756  0.1720 -0.1404  0.1694
 6015WAT      O24765   2.710   6.534   7.336 -0.4965 -0.2398 -0.7855
 6015WAT     H124766   2.676   6.613   7.353 -0.5500  0.3932 -3.4952
 6015WAT     H224767   2.643   6.489   7.304  0.0281 -0.6863 -1.2740
 6015WAT    EPW24768   2.695   6.539   7.334  0.0143 -0.1074 -0.1360
 6016WAT      O24769   4.968   6.055   5.611 -0.5952  0.7779  0.2106
 6016WAT     H124770   4.926   6.034   5.685 -1.1032  0.7643 -0.0720
 6016WAT     H224771   5.001   5.979   5.584 -2.1369  0.3449 -0.6253
 6016WAT    EPW24772   4.967   6.041   5.618 -0.6272  0.0520 -0.3126
 6017WAT      O24773   4.347   1.213   5.668 -0.6187 -0.1862 -0.1830
 6017WAT     H124774   4.408   1.272   5.649 -0.7351 -0.0155 -0.0305
 6017WAT     H224775   4.353   1.155   5.602 -0.7652  0.1987 -0.5396
 6017WAT    EPW24776   4.357   1.213   5.655  0.2401  0.0122  0.1802
 6018WAT      O24777   5.881   0.653   0.891 -0.4536  0.1852 -0.3367
 6018WAT     H124778   5.813   0.640   0.838 -0.2939 -1.3910 -0.2056
 6018WAT     H224779   5.939   0.694   0.840 -0.6607 -0.4528 -1.1065
 6018WAT    EPW24780   5.879   0.657   0.875  0.2075  0.4391  0.4965
 6019WAT      O24781   2.764   6.798   6.990  0.0584  0.4958 -0.0615
 6019WAT     H124782   2.811   6.804   7.063  1.7238 -1.5615 -0.8704
 6019WAT     H224783   2.803   6.854   6.935  1.2928 -0.8022 -0.5548
 6019WAT    EPW24784   2.776   6.807   6.993 -0.3757 -0.8289  0.4301
 6020WAT      O24785   2.848   5.704   5.944  0.1661  0.6348  0.6592
 6020WAT     H124786   2.781   5.724   5.997 -0.2508  0.8872  0.0449
 6020WAT     H224787   2.917   5.708   5.997 -0.3249  0.1544  1.3495
 6020WAT    EPW24788   2.848   5.708   5.960 -0.2038 -0.3791 -0.1413
 6021WAT      O24789   7.412   6.151   3.072 -0.7613 -0.1576  0.6459
 6021WAT     H124790   7.488   6.182   3.042  0.2038 -0.6821  2.4149
 6021WAT     H224791   7.382   6.215   3.123 -2.0215  0.4377 -0.7790
 6021WAT    EPW24792   7.419   6.165   3.075 -0.1721 -0.6545  0.4075
 6022WAT      O24793   6.318   1.157   1.774  0.2462  0.0221  0.9616
 6022WAT     H124794   6.386   1.192   1.815  0.4209  0.0407  0.6560
 6022WAT     H224795   6.249   1.191   1.816  0.3920  1.2384  0.2567
 6022WAT    EPW24796   6.317   1.167   1.786  0.4944  0.6539 -0.9141
 6023WAT      O24797   7.150   3.932   2.108  0.0544 -0.2669 -0.2689
 6023WAT     H124798   7.169   3.988   2.173 -0.7448 -0.7783  0.4324
 6023WAT     H224799   7.069   3.954   2.084 -0.4526 -1.3708  0.3244
 6023WAT    EPW24800   7.141   3.944   2.114 -0.2702 -0.2750 -0.0284
 6024WAT      O24801   2.765   5.571   5.154  0.1920 -0.3274 -0.1019
 6024WAT     H124802   2.839   5.525   5.156  0.2874 -0.1950  1.9667
 6024WAT     H224803   2.703   5.510   5.168  0.1884 -0.0628  1.1163
 6024WAT    EPW24804   2.767   5.555   5.157  0.0109 -0.0420  0.1172
 6025WAT      O24805   2.355   5.895   1.607  0.5718 -0.1822 -0.5319
 6025WAT     H124806   2.353   5.845   1.536  0.5067  0.0545 -0.6986
 6025WAT     H224807   2.397   5.847   1.666  0.4648 -0.4517 -0.6773
 6025WAT    EPW24808   2.361   5.881   1.605 -0.3319 -0.4632 -0.1742
 6026WAT      O24809   1.930   3.258   0.315  0.6589  0.4247 -0.5651
 6026WAT     H124810   1.976   3.216   0.255  1.5647  0.2504  0.2258
 6026WAT     H224811   1.953   3.220   0.390 -0.8315  0.2795 -0.1318
 6026WAT    EPW24812   1.940   3.246   0.317 -0.2029  0.2406 -0.1933
 6027WAT      O24813   4.059   1.096   1.120  0.1229 -0.1224 -0.5573
 6027WAT     H124814   4.074   1.024   1.167 -0.7103  0.2460  0.2963
 6027WAT     H224815   4.022   1.151   1.177  0.3524  0.8320 -1.3037
 6027WAT    EPW24816   4.055   1.093   1.135  0.5084  0.0305  0.3492
 6028WAT      O24817   3.941   7.899   6.481  0.6172 -0.1888 -0.2587
 6028WAT     H124818   3.957   7.907   6.395  0.0558  0.3128 -0.3186
 6028WAT     H224819   3.857   7.878   6.484  0.6012 -0.0571  0.1796
 6028WAT    EPW24820   3.931   7.897   6.469 -0.0159 -0.1674  0.0628
 6029WAT      O24821   4.697   5.368   1.161 -0.3028 -0.3072  0.3551
 6029WAT     H124822   4.725   5.439   1.205 -1.1670 -0.0891  0.5730
 6029WAT     H224823   4.704   5.304   1.220 -2.1244  0.1095  1.0939
 6029WAT    EPW24824   4.702   5.369   1.176 -0.0489  0.2961 -0.2864
 6030WAT      O24825   2.021   5.580   2.099  0.5032  0.1075  0.2345
 6030WAT     H124826   2.083   5.573   2.160 -0.7108 -0.9075  1.4197
 6030WAT     H224827   2.062   5.558   2.026  2.1422  1.8681  0.5536
 6030WAT    EPW24828   2.036   5.576   2.097 -0.1179  0.4104  0.2286
 6031WAT      O24829   4.311   1.343   5.298  0.3529  0.1915  0.1792
 6031WAT     H124830   4.248   1.303   5.343 -0.4666  2.2669  1.0138
 6031WAT     H224831   4.338   1.406   5.352  2.2207  0.1938 -0.6840
 6031WAT    EPW24832   4.306   1.347   5.312 -0.2906 -0.0140 -0.5879
 6032WAT      O24833   3.657   4.087   7.562 -0.1391  0.1600  0.0569
 6032WAT     H124834   3.652   4.117   7.480  1.2708  0.3650  0.0149
 6032WAT     H224835   3.574   4.070   7.583 -0.7099  1.6210 -0.8402
 6032WAT    EPW24836   3.644   4.089   7.553 -0.4676 -0.0573  0.3800
 6033WAT      O24837   1.968   4.835   4.861  0.3999  0.1040  0.0310
 6033WAT     H124838   2.042   4.798   4.834  2.6237  3.2698  1.1253
 6033WAT     H224839   1.964   4.812   4.945  0.8040  0.7920  0.2508
 6033WAT    EPW24840   1.978   4.826   4.870  0.0496  0.3635  0.4537
 6034WAT      O24841   2.441   1.860   3.508  0.0316 -0.5084 -0.1094
 6034WAT     H124842   2.360   1.860   3.542  0.1739  0.4535  0.2387
 6034WAT     H224843   2.484   1.917   3.557  0.8722 -0.8424 -0.4449
 6034WAT    EPW24844   2.435   1.868   3.520  0.5891  0.4375 -0.0020
 6035WAT      O24845   5.036   0.449   5.083 -0.3359  0.5252  0.3814
 6035WAT     H124846   5.072   0.500   5.021  2.6116 -1.2592  0.4822
 6035WAT     H224847   5.011   0.507   5.144 -1.5674  2.1767 -1.5437
 6035WAT    EPW24848   5.038   0.465   5.083 -0.7153 -0.3016 -1.1190
 6036WAT      O24849   1.517   3.870   7.585  0.1966 -0.3295  0.7678
 6036WAT     H124850   1.552   3.941   7.623 -0.6177  0.5585 -0.0868
 6036WAT     H224851   1.450   3.902   7.540 -0.3515 -1.6978  0.5738
 6036WAT    EPW24852   1.513   3.886   7.584  0.0087 -0.2041 -0.2656
 6037WAT      O24853   0.780   6.450   0.147 -0.3689  0.1081 -0.3504
 6037WAT     H124854   0.824   6.474   0.075  0.8790 -0.9908  0.0010
 6037WAT     H224855   0.718   6.397   0.115  1.1124 -1.6252 -0.5735
 6037WAT    EPW24856   0.778   6.446   0.131  0.1916 -1.0586 -1.0525
 6038WAT      O24857   3.767   1.049   2.088  0.0081  0.0225 -0.0876
 6038WAT     H124858   3.837   0.998   2.077  0.6724  1.1201 -1.1945
 6038WAT     H224859   3.706   0.994   2.117  1.5978 -0.7755  1.9780
 6038WAT    EPW24860   3.768   1.033   2.091 -0.3008 -0.0208 -0.1709
 6039WAT      O24861   1.103   6.661   4.023  0.1515 -0.0282 -0.1239
 6039WAT     H124862   1.124   6.589   4.066  1.8166 -0.3188 -1.3117
 6039WAT     H224863   1.175   6.679   3.977 -0.3981  2.1054 -0.2502
 6039WAT    EPW24864   1.117   6.653   4.022 -0.0081 -0.5332  0.9092
 6040WAT      O24865   1.852   3.043   0.031 -0.2804 -0.3069 -0.3631
 6040WAT     H124866   1.808   2.981   0.074  0.3889  0.1796  1.0818
 6040WAT     H224867   1.808   3.116   0.050  1.9115  0.4486  2.4255
 6040WAT    EPW24868   1.839   3.045   0.040 -0.3212 -0.6587 -0.8195
 6041WAT      O24869   4.148   7.324   0.047 -0.3812 -0.0848  0.4188
 6041WAT     H124870   4.149   7.244   0.012 -0.4967 -0.6101  1.5671
 6041WAT     H224871   4.063   7.342   0.055 -0.3571  0.4085 -0.3814
 6041WAT    EPW24872   4.136   7.315   0.043 -0.5095 -0.0391 -0.2119
 6042WAT      O24873   1.582   2.764   5.842  0.1250 -0.1721  0.2698
 6042WAT     H124874   1.637   2.772   5.775  0.4384  2.8121  0.7641
 6042WAT     H224875   1.626   2.717   5.900  0.8730 -0.5433 -0.5783
 6042WAT    EPW24876   1.597   2.758   5.840  0.5745 -0.1892 -0.7946
 6043WAT      O24877   7.277   6.655   4.342  0.0947  0.0407 -0.3426
 6043WAT     H124878   7.298   6.719   4.397 -1.0447 -0.0945  0.2739
 6043WAT     H224879   7.348   6.648   4.291  1.0603  0.3805  0.8859
 6043WAT    EPW24880   7.291   6.663   4.343 -0.1598 -0.5509 -0.1966
 6044WAT      O24881   6.978   3.386   0.354  0.0666  0.4549 -0.5723
 6044WAT     H124882   6.954   3.411   0.434  2.3553  2.5768 -0.4036
 6044WAT     H224883   6.939   3.309   0.343 -0.8630  0.4145  2.3008
 6044WAT    EPW24884   6.969   3.379   0.364 -0.4507  0.0020 -0.4323
 6045WAT      O24885   2.500   3.070   0.263  0.3014 -0.4832 -0.4009
 6045WAT     H124886   2.569   3.020   0.243 -1.0835 -2.2874 -1.0091
 6045WAT     H224887   2.433   3.014   0.258 -1.0628  0.8235  1.6507
 6045WAT    EPW24888   2.501   3.054   0.260 -0.1974  0.0129  0.5482
 6046WAT      O24889   2.697   4.343   1.151 -0.5779 -0.3430 -0.7831
 6046WAT     H124890   2.731   4.414   1.115  0.2108  0.5356  1.5114
 6046WAT     H224891   2.758   4.282   1.139 -0.0911  0.0773 -0.4509
 6046WAT    EPW24892   2.711   4.345   1.144 -0.1286 -0.2579  0.1140
 6047WAT      O24893   4.030   6.904   1.828 -0.3466 -0.0637  0.1327
 6047WAT     H124894   4.016   6.961   1.764  1.2806  2.2566  1.6678
 6047WAT     H224895   4.012   6.950   1.900  0.8978 -1.5371  1.4623
 6047WAT    EPW24896   4.025   6.920   1.829 -0.7175  0.6068 -0.0821
 6048WAT      O24897   4.132   2.463   7.502  0.4915 -0.4535 -0.4349
 6048WAT     H124898   4.079   2.515   7.548 -0.7972 -2.0947  0.0438
 6048WAT     H224899   4.158   2.513   7.436  0.9447  1.4173  1.0790
 6048WAT    EPW24900   4.128   2.478   7.499  0.0704 -0.1927 -0.1143
 6049WAT      O24901   0.832   8.021   3.684  0.0238  0.3017 -0.4456
 6049WAT     H124902   0.913   7.995   3.705  0.0087  1.1339  0.7402
 6049WAT     H224903   0.807   8.068   3.753 -2.5365 -2.1927  0.5534
 6049WAT    EPW24904   0.840   8.024   3.698  0.5639  0.2697  0.2280
 6050WAT      O24905   4.101   0.842   3.521  0.6424 -0.0479 -0.6157
 6050WAT     H124906   4.119   0.785   3.584 -2.8143 -1.6452 -0.8989
 6050WAT     H224907   4.043   0.896   3.558  0.8021  0.8419 -1.6107
 6050WAT    EPW24908   4.095   0.842   3.536  0.3465 -0.2381 -0.1035
 6051WAT      O24909   3.850   4.704   0.297  0.5821  0.1458  0.4627
 6051WAT     H124910   3.876   4.773   0.250 -0.7584  0.4851  0.1844
 6051WAT     H224911   3.909   4.643   0.278  0.3287  0.4011 -1.3458
 6051WAT    EPW24912   3.862   4.705   0.287  0.1986 -0.4814 -0.0593
 6052WAT      O24913   7.132   7.813   2.277 -0.3329 -0.1648  0.0106
 6052WAT     H124914   7.192   7.757   2.307 -2.2394 -2.9602 -0.9963
 6052WAT     H224915   7.172   7.853   2.211  0.7307 -1.2145 -0.0052
 6052WAT    EPW24916   7.146   7.811   2.272  0.1451  1.3793  0.2061
 6053WAT      O24917   2.382   0.467   6.203 -0.5874 -0.6363 -0.2119
 6053WAT     H124918   2.324   0.530   6.186 -1.6923 -1.5405  0.1175
 6053WAT     H224919   2.444   0.479   6.142 -1.3758  0.0134 -0.9093
 6053WAT    EPW24920   2.383   0.478   6.192  0.0127 -0.4840  0.2062
 6054WAT      O24921   2.248   3.350   0.398 -0.0239 -0.6226  0.5555
 6054WAT     H124922   2.317   3.297   0.400  0.7986  0.4049  0.1196
 6054WAT     H224923   2.228   3.356   0.313  0.8427  0.9127  0.4154
 6054WAT    EPW24924   2.255   3.343   0.386  0.2712 -0.2185 -0.2423
 6055WAT      O24925   2.659   4.539   0.335 -0.2268 -0.1057  0.0779
 6055WAT     H124926   2.585   4.572   0.303  0.3572  0.8090 -0.3892
 6055WAT     H224927   2.705   4.519   0.264  0.1259 -0.3230  0.3626
 6055WAT    EPW24928   2.655   4.541   0.320  0.7661 -0.5515  0.8669
 6056WAT      O24929   4.366   0.345   5.574  0.4366 -0.5841 -0.0839
 6056WAT     H124930   4.280   0.353   5.562  0.4167 -0.2311  0.2787
 6056WAT     H224931   4.378   0.373   5.655  0.3720 -4.0878  1.3468
 6056WAT    EPW24932   4.355   0.350   5.584 -0.2198 -0.5357  0.0738
 6057WAT      O24933   2.915   4.159   5.616  0.4757  0.0877 -0.1231
 6057WAT     H124934   2.880   4.085   5.585  0.3843  0.5387 -1.1507
 6057WAT     H224935   2.852   4.218   5.602  0.1283  0.1868  1.6577
 6057WAT    EPW24936   2.901   4.157   5.610  0.4810  0.3462  0.0318
 6058WAT      O24937   2.969   3.264   0.939 -0.1595  0.0078  0.6279
 6058WAT     H124938   2.945   3.181   0.949  1.2776 -0.3597  1.3339
 6058WAT     H224939   2.899   3.302   0.903 -0.6800 -1.5974 -0.1436
 6058WAT    EPW24940   2.956   3.258   0.935  0.1720  0.3235 -0.3155
 6059WAT      O24941   0.731   7.179   1.742 -0.1561 -0.6101 -0.2259
 6059WAT     H124942   0.707   7.258   1.770  0.3535 -0.4693 -0.1740
 6059WAT     H224943   0.657   7.146   1.708 -0.4862 -0.3051  0.1784
 6059WAT    EPW24944   0.716   7.186   1.741  0.3146  0.0045  0.0852
 6060WAT      O24945   4.148   4.063   6.935  0.2584 -0.2473  0.4165
 6060WAT     H124946   4.088   4.024   6.984 -0.9019  0.7474 -0.1769
 6060WAT     H224947   4.159   4.007   6.868 -1.3542  0.3572 -0.4022
 6060WAT    EPW24948   4.141   4.049   6.932  0.1394 -0.1384 -0.4945
 6061WAT      O24949   3.348   0.255   6.376 -0.5299  0.1646  0.7427
 6061WAT     H124950   3.375   0.336   6.359  1.4405 -0.6715 -0.3472
 6061WAT     H224951   3.304   0.232   6.305 -1.2194  0.2915  1.1127
 6061WAT    EPW24952   3.345   0.263   6.363 -0.5024 -0.0918  1.0452
 6062WAT      O24953   4.642   4.095   0.129  0.0539 -0.1499  0.0101
 6062WAT     H124954   4.611   4.015   0.114  0.2208 -0.1783 -0.1833
 6062WAT     H224955   4.572   4.146   0.120  0.1348 -0.1737 -0.7962
 6062WAT    EPW24956   4.627   4.091   0.125 -0.1026  0.2406 -0.4949
 6063WAT      O24957   2.542   2.649   7.867 -0.0508  0.1370  0.0127
 6063WAT     H124958   2.546   2.564   7.847  1.2602  0.0829  0.4391
 6063WAT     H224959   2.492   2.650   7.939 -1.8231 -0.0172 -1.1288
 6063WAT    EPW24960   2.535   2.637   7.875 -0.0996 -0.4170 -0.4068
 6064WAT      O24961   5.712   6.323   3.767  0.4967  0.2616  0.6962
 6064WAT     H124962   5.788   6.288   3.743  0.7957 -0.1844  2.1969
 6064WAT     H224963   5.690   6.373   3.699  2.4659  0.9492  0.4979
 6064WAT    EPW24964   5.720   6.325   3.754  0.0466 -0.8418 -0.4794
 6065WAT      O24965   2.819   7.244   4.106 -0.4344  0.1025  0.2740
 6065WAT     H124966   2.835   7.299   4.041  1.7217 -0.9940 -0.2088
 6065WAT     H224967   2.898   7.220   4.134 -1.2852 -1.2597  1.7525
 6065WAT    EPW24968   2.833   7.249   4.101 -0.0668 -0.0478  0.1568
 6066WAT      O24969   1.972   8.012   5.999  0.2388 -0.0985 -0.2238
 6066WAT     H124970   1.942   7.937   5.966  0.6196 -1.0793  1.5380
 6066WAT     H224971   1.962   8.002   6.085  0.5450  1.7811  0.0710
 6066WAT    EPW24972   1.966   8.000   6.007  1.0061  0.5291 -0.3892
 6067WAT      O24973   4.064   6.398   2.503  0.1277 -0.0894  0.1997
 6067WAT     H124974   4.108   6.437   2.567 -0.0712 -0.3562  0.5041
 6067WAT     H224975   3.996   6.450   2.490  0.3494  0.1432 -0.0311
 6067WAT    EPW24976   4.060   6.411   2.510 -0.4433 -0.3113  0.2852
 6068WAT      O24977   6.308   5.462   0.386  0.4723  0.1235  0.0752
 6068WAT     H124978   6.352   5.458   0.310 -0.3140  0.4153 -0.4107
 6068WAT     H224979   6.280   5.544   0.389  0.1835  0.0119  0.5086
 6068WAT    EPW24980   6.310   5.473   0.375 -0.4251 -0.3216 -0.0353
 6069WAT      O24981   6.307   3.123   1.340 -0.0844  0.3873  0.4034
 6069WAT     H124982   6.307   3.167   1.416 -0.5317  1.9511 -0.4490
 6069WAT     H224983   6.392   3.117   1.320  0.1078 -0.9058  1.4658
 6069WAT    EPW24984   6.319   3.129   1.348  0.3704 -0.8639  0.6003
 6070WAT      O24985   2.978   7.938   2.011  0.1959  0.1569  0.0048
 6070WAT     H124986   2.901   7.898   2.022  0.0423  0.6516  0.8238
 6070WAT     H224987   3.006   7.951   2.092 -0.4536  3.0096 -0.1298
 6070WAT    EPW24988   2.970   7.934   2.025  0.9667  0.1740 -0.2670
 6071WAT      O24989   4.163   4.729   0.528 -0.6438 -0.4050  0.0698
 6071WAT     H124990   4.118   4.789   0.483 -0.1133  0.7484  1.0186
 6071WAT     H224991   4.107   4.702   0.589 -0.1794  0.8290  1.0780
 6071WAT    EPW24992   4.148   4.734   0.530  0.0466 -0.1719  0.2593
 6072WAT      O24993   2.029   3.099   2.761 -0.5938 -0.3064  0.3421
 6072WAT     H124994   2.031   3.056   2.685 -0.7323 -1.2327  0.8433
 6072WAT     H224995   2.111   3.127   2.770 -0.6720  0.1845 -0.3387
 6072WAT    EPW24996   2.041   3.097   2.751 -0.4427 -0.1478 -0.4893
 6073WAT      O24997   4.414   0.922   6.784  0.0706  0.0774  0.4807
 6073WAT     H124998   4.475   0.930   6.846  1.1072  0.0170 -0.4928
 6073WAT     H224999   4.421   0.838   6.759  0.1620  0.2745 -0.1875
 6073WAT    EPW25000   4.424   0.910   6.789  0.0774  0.1765  0.2782
 6074WAT      O25001   4.019   0.680   7.439  0.1559  0.3875 -0.0899
 6074WAT     H125002   4.029   0.625   7.506 -0.0207  0.0676 -0.3215
 6074WAT     H225003   3.981   0.750   7.475  0.9837  0.6327  0.3314
 6074WAT    EPW25004   4.015   0.683   7.454  0.7441  0.8760 -0.6723
 6075WAT      O25005   3.078   6.997   3.761 -0.3461  0.8357 -0.0456
 6075WAT     H125006   3.055   7.018   3.680 -1.4781  1.0652  0.3190
 6075WAT     H225007   3.011   7.024   3.810 -1.1604 -2.1009  0.6419
 6075WAT    EPW25008   3.065   7.004   3.757 -0.3666 -0.5369  0.3818
 6076WAT      O25009   6.876   7.701   2.291 -0.2689 -0.0414 -0.6669
 6076WAT     H125010   6.955   7.735   2.278 -0.8190  1.5967  0.0977
 6076WAT     H225011   6.864   7.707   2.377 -1.6290  0.6824 -0.8819
 6076WAT    EPW25012   6.886   7.707   2.302  0.2410 -0.2615 -0.2478
 6077WAT      O25013   3.838   1.192   0.439 -0.4211 -0.0472 -0.2437
 6077WAT     H125014   3.861   1.133   0.378 -2.1013 -0.4984 -0.4844
 6077WAT     H225015   3.756   1.213   0.417 -0.8092  0.3330  1.4446
 6077WAT    EPW25016   3.829   1.186   0.426  0.1879  0.3373  0.0417
 6078WAT      O25017   0.719   0.819   8.041 -0.3082  0.0754  0.0027
 6078WAT     H125018   0.768   0.887   8.017  1.0171 -0.6970  0.4801
 6078WAT     H225019   0.679   0.796   7.966 -0.7739  1.3297 -0.1735
 6078WAT    EPW25020   0.720   0.826   8.026 -0.9611  0.1391  0.5249
 6079WAT      O25021   2.461   3.023   7.691 -0.4643  0.2221 -0.0261
 6079WAT     H125022   2.475   3.016   7.605  2.7536  0.6392  0.3036
 6079WAT     H225023   2.455   3.110   7.703 -2.4774  0.1073  0.0512
 6079WAT    EPW25024   2.462   3.035   7.680  0.1596  0.0632 -0.1812
 6080WAT      O25025   0.889   3.077   3.903  0.2356  0.4105  0.1415
 6080WAT     H125026   0.935   3.003   3.898 -1.4980 -0.7990  1.0880
 6080WAT     H225027   0.887   3.105   3.820  0.0440 -1.1854 -0.4371
 6080WAT    EPW25028   0.895   3.070   3.890  0.2208  0.0242  0.5403
 6081WAT      O25029   3.452   7.526   6.968 -0.2914  0.3774 -0.6770
 6081WAT     H125030   3.425   7.461   7.020  1.0282 -0.7290 -1.3066
 6081WAT     H225031   3.497   7.484   6.906 -0.2685  1.8314 -1.6720
 6081WAT    EPW25032   3.455   7.510   6.967 -0.0335 -0.3354 -0.1411
 6082WAT      O25033   5.695   0.061   7.862  0.2659  0.0556  0.2336
 6082WAT     H125034   5.658   0.082   7.938  0.1585  0.8080 -0.0153
 6082WAT     H225035   5.776   0.037   7.884  0.7249  1.7092  0.4562
 6082WAT    EPW25036   5.702   0.061   7.876 -0.1935 -0.3443 -0.3583
 6083WAT      O25037   4.635   7.141   1.413  0.6446 -0.3597  0.5106
 6083WAT     H125038   4.661   7.155   1.330  1.8846  0.1457  0.9683
 6083WAT     H225039   4.604   7.060   1.410  2.8374 -1.2522  0.0218
 6083WAT    EPW25040   4.634   7.131   1.400 -0.2021 -0.1820  0.3785
 6084WAT      O25041   7.813   5.904   0.565  0.4784  0.1909 -0.1084
 6084WAT     H125042   7.882   5.956   0.551 -0.4334  1.2562 -0.8672
 6084WAT     H225043   7.753   5.934   0.509 -0.7680 -0.4011  0.8460
 6084WAT    EPW25044   7.814   5.916   0.555 -0.3709  0.4815 -0.7794
 6085WAT      O25045   1.566   4.595   7.310  0.3066  0.6325  0.0133
 6085WAT     H125046   1.479   4.586   7.309  0.4019 -0.7481  1.3227
 6085WAT     H225047   1.578   4.657   7.371  0.2427  1.0544 -0.3949
 6085WAT    EPW25048   1.555   4.603   7.319  0.0579 -0.5260 -0.4283
 6086WAT      O25049   2.962   4.221   3.652 -0.1656 -0.1106 -0.0920
 6086WAT     H125050   2.983   4.302   3.678 -0.4302  0.5121 -1.6767
 6086WAT     H225051   2.993   4.170   3.715  0.2513  1.2109  0.8120
 6086WAT    EPW25052   2.969   4.225   3.665 -0.0754 -0.3241 -0.3979
 6087WAT      O25053   6.480   4.006   0.546  0.0742  0.1966  0.5754
 6087WAT     H125054   6.476   4.067   0.484 -0.3825 -0.3900  0.0068
 6087WAT     H225055   6.475   3.931   0.502  2.0289 -0.3295  1.1229
 6087WAT    EPW25056   6.479   4.004   0.531 -0.3122 -0.0207  0.1834
 6088WAT      O25057   1.297   1.053   1.475 -0.1088 -0.1540  0.2624
 6088WAT     H125058   1.334   1.118   1.520  0.0711  1.0562 -1.5288
 6088WAT     H225059   1.225   1.089   1.443 -0.7057 -1.2593  0.3043
 6088WAT    EPW25060   1.292   1.068   1.477  0.6859  0.1795 -0.4614
 6089WAT      O25061   5.189   6.907   7.249  0.1711  0.3657 -0.1509
 6089WAT     H125062   5.146   6.844   7.292 -0.2991  0.9616  0.2636
 6089WAT     H225063   5.167   6.980   7.291  1.0910  0.7614 -0.3385
 6089WAT    EPW25064   5.179   6.908   7.262  0.6484 -0.3888  0.4971
 6090WAT      O25065   7.130   1.951   0.344  0.2446  0.5134 -0.4472
 6090WAT     H125066   7.049   1.922   0.326  0.0792 -0.5185  1.6933
 6090WAT     H225067   7.124   2.037   0.330 -0.5688  0.1875 -2.4561
 6090WAT    EPW25068   7.117   1.959   0.339 -0.0994  1.2667  0.2336
 6091WAT      O25069   6.622   0.376   1.448  0.2559 -0.3575 -0.0171
 6091WAT     H125070   6.583   0.452   1.467  0.6248 -0.5491  1.6647
 6091WAT     H225071   6.567   0.316   1.479  0.3389 -0.7473 -0.6176
 6091WAT    EPW25072   6.608   0.379   1.456 -0.2861  0.1312 -0.0691
 6092WAT      O25073   3.754   1.869   6.999 -0.5428  0.0159  0.1519
 6092WAT     H125074   3.673   1.873   7.032 -0.9157 -0.2056 -0.7192
 6092WAT     H225075   3.798   1.927   7.047 -0.8729 -0.8281  1.5439
 6092WAT    EPW25076   3.749   1.878   7.011  0.3010 -0.1321 -0.3288
 6093WAT      O25077   1.176   6.393   0.489 -0.2434  0.1597 -0.5505
 6093WAT     H125078   1.207   6.455   0.436  2.1671 -1.8586 -1.7047
 6093WAT     H225079   1.107   6.361   0.446  1.4879 -1.2337 -2.4623
 6093WAT    EPW25080   1.170   6.397   0.475  0.2358  0.5231  0.5370
 6094WAT      O25081   5.107   7.868   2.481 -0.0979  0.5918 -0.0005
 6094WAT     H125082   5.140   7.906   2.409  0.5861  0.6499  0.3378
 6094WAT     H225083   5.149   7.792   2.485 -1.0475  0.0206 -0.3506
 6094WAT    EPW25084   5.118   7.863   2.471 -0.2476 -0.3373 -0.0322
 6095WAT      O25085   2.578   3.891   7.771  0.5119 -0.4325 -0.0404
 6095WAT     H125086   2.581   3.847   7.697  0.5465  2.7829 -2.1710
 6095WAT     H225087   2.510   3.945   7.760 -0.8856 -1.2783  3.2631
 6095WAT    EPW25088   2.568   3.893   7.759  1.0116 -0.0597  0.8278
 6096WAT      O25089   3.263   3.314   7.831  0.2593 -0.0716  0.2820
 6096WAT     H125090   3.295   3.272   7.762 -1.1484  0.8729 -1.0256
 6096WAT     H225091   3.332   3.324   7.883  1.7866  0.6292 -1.7186
 6096WAT    EPW25092   3.278   3.309   7.828  0.6974  0.2795  0.4492
 6097WAT      O25093   3.053   3.087   2.250 -0.3564 -0.5274  0.3871
 6097WAT     H125094   3.010   3.011   2.243  0.9834 -1.5138  2.1153
 6097WAT     H225095   3.112   3.071   2.312 -0.0865  1.9753  0.8620
 6097WAT    EPW25096   3.055   3.073   2.258  0.3223 -0.9090  0.2717
 6098WAT      O25097   2.293   0.762   1.945  0.3438 -0.0541 -0.0772
 6098WAT     H125098   2.284   0.764   2.032  3.4182 -0.6648  0.3715
 6098WAT     H225099   2.261   0.683   1.924  0.2982 -0.2322  0.6152
 6098WAT    EPW25100   2.287   0.750   1.955 -0.3092  0.4672 -0.1790
 6099WAT      O25101   5.829   0.152   1.501  0.6573 -0.3204 -0.4920
 6099WAT     H125102   5.764   0.127   1.554  0.9339  1.2562  0.6730
 6099WAT     H225103   5.805   0.233   1.477  2.8914  1.0063  1.3047
 6099WAT    EPW25104   5.816   0.160   1.505  1.1669  0.1386  0.1558
 6100WAT      O25105   7.531   2.950   2.068  0.1110  0.2047  0.1573
 6100WAT     H125106   7.489   2.982   1.999 -0.3172  0.1239  0.3720
 6100WAT     H225107   7.615   2.956   2.047 -0.0270 -0.0639 -0.4736
 6100WAT    EPW25108   7.537   2.956   2.055 -0.1780  0.0565 -0.1368
 6101WAT      O25109   2.796   4.673   7.421  1.0205 -0.2619 -0.5090
 6101WAT     H125110   2.816   4.737   7.365 -0.2633  0.0448 -0.6456
 6101WAT     H225111   2.712   4.656   7.404  0.2488  0.5632  1.9845
 6101WAT    EPW25112   2.787   4.680   7.410 -0.1824  0.4988  0.4116
 6102WAT      O25113   2.790   3.271   5.468  0.1618 -0.3063  0.3408
 6102WAT     H125114   2.807   3.336   5.523  0.4810  0.2915 -0.4462
 6102WAT     H225115   2.866   3.228   5.461  0.1078 -0.4136  0.4010
 6102WAT    EPW25116   2.804   3.274   5.475 -0.5339 -0.2863  0.2587
 6103WAT      O25117   3.856   1.542   5.797  0.3573  0.0813 -0.3137
 6103WAT     H125118   3.912   1.602   5.767 -0.2662  1.2058  0.7026
 6103WAT     H225119   3.844   1.490   5.728  2.1067  0.2067 -0.7569
 6103WAT    EPW25120   3.862   1.544   5.782  0.1208  0.0980  0.6368
 6104WAT      O25121   2.576   5.768   6.730  0.5335 -0.5352 -0.4024
 6104WAT     H125122   2.539   5.827   6.678 -0.6613 -0.8563  0.0667
 6104WAT     H225123   2.659   5.766   6.702  0.4748  0.9706 -0.7628
 6104WAT    EPW25124   2.583   5.777   6.718 -0.1594  0.0071 -0.5085
 6105WAT      O25125   5.935   5.432   6.196  0.0255  0.3372 -0.2547
 6105WAT     H125126   5.925   5.496   6.254 -1.0927 -0.5496  0.5991
 6105WAT     H225127   6.001   5.385   6.228 -0.1232  0.2513 -0.0669
 6105WAT    EPW25128   5.943   5.434   6.210  0.0210 -0.6011 -0.3970
 6106WAT      O25129   5.808   7.758   2.747  0.1757 -0.1562  0.5335
 6106WAT     H125130   5.869   7.746   2.686 -2.5455  3.3323 -3.3977
 6106WAT     H225131   5.802   7.845   2.753 -2.4335 -0.3584  2.8935
 6106WAT    EPW25132   5.816   7.769   2.739  0.3232 -0.2895 -0.0065
 6107WAT      O25133   3.301   5.360   7.968  0.5799  0.1497 -0.0847
 6107WAT     H125134   3.294   5.323   7.890 -0.1061  0.9158 -0.3999
 6107WAT     H225135   3.386   5.377   7.975  0.6318  0.1299 -0.6848
 6107WAT    EPW25136   3.313   5.357   7.958  0.0914  0.5709  0.2795
 6108WAT      O25137   3.973   5.980   7.658 -0.1555 -1.0596  0.3114
 6108WAT     H125138   3.932   6.007   7.586 -1.5895 -0.3032  1.3721
 6108WAT     H225139   4.027   5.918   7.628  0.8539  0.6530 -1.7209
 6108WAT    EPW25140   3.975   5.975   7.643  0.1575  0.3216 -0.1248
 6109WAT      O25141   4.922   6.483   5.489  0.0489  0.2809 -0.3308
 6109WAT     H125142   4.881   6.454   5.418 -1.8408  0.6162  0.5690
 6109WAT     H225143   5.003   6.451   5.480 -0.6855 -1.4020 -1.6137
 6109WAT    EPW25144   4.928   6.474   5.477  0.2413  0.4549  0.4175
 6110WAT      O25145   5.137   7.809   1.852 -0.2642  0.2642  0.2137
 6110WAT     H125146   5.130   7.735   1.898 -0.3740  0.3197  0.2860
 6110WAT     H225147   5.212   7.844   1.881  0.2742 -0.2710 -0.4774
 6110WAT    EPW25148   5.147   7.803   1.863  0.2502 -0.0321  0.4177
 6111WAT      O25149   4.703   3.521   7.847  0.0629  0.0911 -0.1779
 6111WAT     H125150   4.772   3.469   7.859 -1.0785 -1.5068 -0.1652
 6111WAT     H225151   4.654   3.506   7.917 -1.2386 -0.4069 -1.1618
 6111WAT    EPW25152   4.706   3.511   7.859  0.0016  0.7244  1.2837
 6112WAT      O25153   7.199   7.470   1.125 -0.8869  0.0014 -0.7379
 6112WAT     H125154   7.236   7.486   1.047 -2.5271 -1.7361 -1.9678
 6112WAT     H225155   7.261   7.428   1.169 -0.6040 -0.8474 -1.9027
 6112WAT    EPW25156   7.214   7.466   1.120  0.4167 -0.1950  0.3895
 6113WAT      O25157   2.233   7.867   1.588 -0.8102 -0.3680  0.0216
 6113WAT     H125158   2.171   7.837   1.641 -3.2024  0.2804 -2.2014
 6113WAT     H225159   2.208   7.949   1.571  0.5945 -0.1158 -1.0176
 6113WAT    EPW25160   2.220   7.875   1.593 -0.0367  0.3329  0.2880
 6114WAT      O25161   5.758   7.002   7.823  0.5031 -0.5551 -0.0735
 6114WAT     H125162   5.807   6.970   7.888  0.0357 -2.5147 -0.6337
 6114WAT     H225163   5.817   7.038   7.770  0.9204  0.7843  1.2398
 6114WAT    EPW25164   5.774   7.002   7.825  0.0027  0.2365  0.0794
 6115WAT      O25165   3.592   0.275   5.799 -0.1285 -0.5743 -0.2995
 6115WAT     H125166   3.630   0.240   5.869 -0.8195  0.6789  0.7539
 6115WAT     H225167   3.646   0.339   5.776  0.9692 -2.0203 -2.0244
 6115WAT    EPW25168   3.605   0.279   5.806 -0.2207 -0.1587 -0.3010
 6116WAT      O25169   3.703   3.922   1.115  0.7162  0.2872  0.0512
 6116WAT     H125170   3.732   3.970   1.182  0.7097 -0.2204  0.4318
 6116WAT     H225171   3.648   3.866   1.153  1.6379 -0.8168 -0.1808
 6116WAT    EPW25172   3.699   3.921   1.131  0.6705 -0.2974  0.1878
 6117WAT      O25173   5.909   2.582   6.821 -0.1706 -0.3018  0.1281
 6117WAT     H125174   5.825   2.597   6.840  0.0786  1.5184  0.0056
 6117WAT     H225175   5.951   2.610   6.892  0.3741 -0.1419 -0.2474
 6117WAT    EPW25176   5.902   2.589   6.834 -0.5647 -0.2195  0.0599
 6118WAT      O25177   5.714   2.282   3.365 -0.4478  0.6011  0.1130
 6118WAT     H125178   5.717   2.202   3.398  1.8399 -0.2943 -1.9159
 6118WAT     H225179   5.659   2.275   3.297  0.8407  0.2932 -0.9449
 6118WAT    EPW25180   5.706   2.269   3.360 -0.7193 -0.2352  0.0955
 6119WAT      O25181   3.762   5.012   0.020  0.0959 -0.2464 -0.3836
 6119WAT     H125182   3.768   4.974  -0.058 -1.3537 -2.5257  0.4864
 6119WAT     H225183   3.838   4.993   0.058  0.5625  0.3451 -0.9940
 6119WAT    EPW25184   3.774   5.003   0.014  0.3509 -0.7569  0.0151
 6120WAT      O25185   7.981   6.005   2.831  0.5422  0.0499  0.0648
 6120WAT     H125186   7.922   6.040   2.777  2.1164  2.0860 -0.4616
 6120WAT     H225187   8.005   5.932   2.789 -0.1672  0.2118 -0.6670
 6120WAT    EPW25188   7.975   6.000   2.816 -0.2741 -0.2037 -0.5789
 6121WAT      O25189   3.081   1.478   4.889 -0.5495  0.3444  0.2495
 6121WAT     H125190   3.145   1.441   4.843 -0.8697 -1.7979  1.3693
 6121WAT     H225191   3.036   1.524   4.830  0.6205 -0.0758 -1.0055
 6121WAT    EPW25192   3.084   1.479   4.874  0.8119  0.0652  0.1432
 6122WAT      O25193   4.012   0.160   7.599 -0.5186  0.2426 -0.0050
 6122WAT     H125194   4.033   0.118   7.673 -0.6009 -0.0014 -0.1177
 6122WAT     H225195   4.054   0.114   7.538  0.0991  0.8369 -0.0500
 6122WAT    EPW25196   4.022   0.147   7.601  0.5972  0.0589  0.1425
 6123WAT      O25197   3.763   7.571   7.469  0.1564  0.8557 -0.4902
 6123WAT     H125198   3.839   7.591   7.506 -0.3002  2.4071 -0.2967
 6123WAT     H225199   3.747   7.640   7.418 -0.2428 -0.2886 -1.9655
 6123WAT    EPW25200   3.772   7.584   7.467 -0.2789 -0.0145 -0.0990
 6124WAT      O25201   1.779   0.750   5.584  0.1661  0.3040  0.5814
 6124WAT     H125202   1.773   0.664   5.571  1.0542  0.1711  0.9782
 6124WAT     H225203   1.811   0.756   5.665 -1.1272  1.0386  1.0711
 6124WAT    EPW25204   1.782   0.738   5.594 -0.1920 -0.4084  0.2403
 6125WAT      O25205   3.009   2.306   0.640 -0.1921 -0.4912  0.3948
 6125WAT     H125206   3.040   2.353   0.573  1.8880 -0.2083  1.4670
 6125WAT     H225207   3.003   2.364   0.704 -2.4137 -0.7091  0.4483
 6125WAT    EPW25208   3.013   2.321   0.639  0.0344  0.1292  0.7921
 6126WAT      O25209   2.239   6.502   1.529  0.5974 -0.6639 -0.1231
 6126WAT     H125210   2.161   6.536   1.510  1.3424  1.9193  0.9706
 6126WAT     H225211   2.225   6.416   1.529 -1.6865 -0.3850 -2.1606
 6126WAT    EPW25212   2.225   6.494   1.527 -0.0587 -0.0601 -0.3950
 6127WAT      O25213   5.017   2.556   1.816  0.4684 -0.0719  0.3184
 6127WAT     H125214   5.025   2.579   1.900  0.0095  0.9120  0.1147
 6127WAT     H225215   5.044   2.627   1.773  3.9589 -1.6642 -0.4461
 6127WAT    EPW25216   5.022   2.570   1.822 -0.4910  0.4617 -0.1542
 6128WAT      O25217   6.214   6.757   7.874  0.2588 -0.0784 -0.1580
 6128WAT     H125218   6.238   6.679   7.904  0.4667 -0.0630 -0.2797
 6128WAT     H225219   6.211   6.806   7.946  3.0147  0.5467 -0.3655
 6128WAT    EPW25220   6.217   6.753   7.889  0.3158  0.4130 -0.1756
 6129WAT      O25221   2.324   7.965   0.369 -0.3092  0.1844  0.0046
 6129WAT     H125222   2.333   7.889   0.412  0.8373  1.1907  1.6539
 6129WAT     H225223   2.250   7.998   0.403 -0.3361  0.1970 -0.0677
 6129WAT    EPW25224   2.314   7.958   0.381 -0.6811  0.0631  0.3574
 6130WAT      O25225   4.347   4.114   3.095 -0.3712  0.1138  0.3093
 6130WAT     H125226   4.408   4.149   3.147  1.1519 -1.5745 -0.2219
 6130WAT     H225227   4.325   4.040   3.136  1.8903 -2.0077 -1.9026
 6130WAT    EPW25228   4.353   4.108   3.108 -0.1899  0.1904  0.5468
 6131WAT      O25229   1.832   0.915   6.768  0.0480  0.0842 -0.4628
 6131WAT     H125230   1.891   0.941   6.827  0.1608  0.3987 -0.7099
 6131WAT     H225231   1.760   0.904   6.815  0.9722 -3.2072  0.4200
 6131WAT    EPW25232   1.830   0.917   6.783 -0.0904 -0.6768 -0.0132
 6132WAT      O25233   4.572   2.623   0.864  0.6111  0.4419  0.5173
 6132WAT     H125234   4.534   2.576   0.926 -1.7104  1.7520  0.2068
 6132WAT     H225235   4.563   2.705   0.892  0.6532  0.9741 -0.9427
 6132WAT    EPW25236   4.565   2.628   0.877  0.1840 -0.3995 -0.4626
 6133WAT      O25237   2.019   7.889   1.179 -0.0281 -0.1041  0.8034
 6133WAT     H125238   2.103   7.893   1.203  0.4564  0.8444 -0.8766
 6133WAT     H225239   1.981   7.844   1.243  2.2252 -2.8610  0.3747
 6133WAT    EPW25240   2.026   7.883   1.192 -0.6171  0.3953  0.1798
 6134WAT      O25241   4.376   5.197   1.858  0.8777 -0.0445  0.2790
 6134WAT     H125242   4.377   5.258   1.796  0.1457 -0.1940  0.1098
 6134WAT     H225243   4.315   5.140   1.830  0.3670  0.0063  1.2322
 6134WAT    EPW25244   4.367   5.198   1.845  0.2754 -0.0230  0.0642
 6135WAT      O25245   2.159   6.341   7.662  0.5696 -0.2553 -0.5713
 6135WAT     H125246   2.222   6.389   7.625  0.3789  0.6967  0.2958
 6135WAT     H225247   2.129   6.293   7.596 -0.0561  1.7011 -1.7951
 6135WAT    EPW25248   2.164   6.341   7.647 -0.0722  0.7211  0.0766
 6136WAT      O25249   2.300   6.198   7.238  0.1107 -0.1254 -0.0890
 6136WAT     H125250   2.372   6.177   7.282 -0.4257 -0.2393  0.7595
 6136WAT     H225251   2.284   6.128   7.189  1.0642  0.2436 -0.9555
 6136WAT    EPW25252   2.308   6.185   7.238 -0.8002 -0.2063  0.3363
 6137WAT      O25253   3.751   1.103   7.757 -0.1505 -0.6862 -0.3294
 6137WAT     H125254   3.681   1.133   7.715 -0.6585 -0.0431  0.9203
 6137WAT     H225255   3.723   1.030   7.794  0.1957 -1.0613 -0.7918
 6137WAT    EPW25256   3.737   1.097   7.756  0.3459 -0.9313 -0.4442
 6138WAT      O25257   4.993   6.778   5.952 -0.0026  0.2282 -0.0683
 6138WAT     H125258   5.046   6.842   5.924  0.5038 -1.2659 -2.8920
 6138WAT     H225259   5.030   6.705   5.920 -1.5510 -1.3394  1.4569
 6138WAT    EPW25260   5.006   6.777   5.943 -0.1559 -0.1934 -0.0662
 6139WAT      O25261   4.339   4.933   0.679 -0.3553 -0.0388 -0.4625
 6139WAT     H125262   4.332   4.935   0.766 -1.5550  0.5247 -0.5480
 6139WAT     H225263   4.276   4.877   0.655  1.4335 -1.9739 -0.8718
 6139WAT    EPW25264   4.328   4.925   0.688 -0.2542  0.1137  0.0644
 6140WAT      O25265   6.422   6.626   4.449  0.8394 -0.2858  0.5952
 6140WAT     H125266   6.363   6.660   4.504  2.1246  0.2833  1.6984
 6140WAT     H225267   6.490   6.608   4.501  2.5083  1.2143 -0.9440
 6140WAT    EPW25268   6.423   6.628   4.465 -0.0471  0.2122  0.0523
 6141WAT      O25269   2.688   7.229   3.748 -0.4011 -0.8656 -0.7250
 6141WAT     H125270   2.619   7.263   3.789 -0.5709 -0.7107 -1.1399
 6141WAT     H225271   2.665   7.229   3.664  0.8599  1.0938 -1.1339
 6141WAT    EPW25272   2.674   7.234   3.742 -0.4048 -0.0372  0.1742
 6142WAT      O25273   0.953   5.330   2.450  0.0350  0.8997 -0.0213
 6142WAT     H125274   0.869   5.322   2.427  0.1587  0.8962 -0.4683
 6142WAT     H225275   0.989   5.258   2.419  0.4228  1.4216 -0.7944
 6142WAT    EPW25276   0.946   5.318   2.442 -0.8051 -0.0127 -0.2123
 6143WAT      O25277   3.152   0.191   1.192 -0.1336 -0.0224  0.3307
 6143WAT     H125278   3.232   0.166   1.215 -0.0407 -1.0311 -0.9972
 6143WAT     H225279   3.164   0.270   1.157  0.5254 -0.7563 -1.1816
 6143WAT    EPW25280   3.165   0.199   1.191 -0.0937  0.0578 -0.0983
 6144WAT      O25281   5.568   2.508   7.602 -0.0572 -0.5831  0.2697
 6144WAT     H125282   5.554   2.592   7.584  0.9923 -0.0324  1.8369
 6144WAT     H225283   5.498   2.468   7.570  0.0150  0.7167 -1.6708
 6144WAT    EPW25284   5.556   2.515   7.595 -1.3418  0.1470 -0.2304
 6145WAT      O25285   6.136   7.436   4.510  0.5071  0.1274  0.6756
 6145WAT     H125286   6.161   7.352   4.510  0.1332  0.0150  0.6771
 6145WAT     H225287   6.076   7.439   4.447 -1.3506 -0.1670  2.3386
 6145WAT    EPW25288   6.131   7.424   4.501  0.1135 -0.0456  0.3339
 6146WAT      O25289   1.976   2.611   6.025 -0.5198 -0.2644  0.2596
 6146WAT     H125290   2.040   2.665   5.999  0.0952 -0.5209  1.1856
 6146WAT     H225291   2.016   2.560   6.084 -1.3863 -0.9597  0.2514
 6146WAT    EPW25292   1.992   2.612   6.030 -0.0472 -0.3972 -0.0644
 6147WAT      O25293   3.762   6.660   3.701 -0.0980  0.1818  0.2234
 6147WAT     H125294   3.719   6.585   3.704 -0.3637  0.3296  0.1697
 6147WAT     H225295   3.792   6.670   3.782  2.3946 -1.3814 -0.3967
 6147WAT    EPW25296   3.760   6.651   3.713  0.6003  0.3696  0.0266
 6148WAT      O25297   4.012   1.813   0.949  0.3129 -0.4250  0.3310
 6148WAT     H125298   4.057   1.874   0.992 -0.5919  1.0668 -0.7595
 6148WAT     H225299   4.040   1.821   0.867 -0.6142 -0.7239 -0.0236
 6148WAT    EPW25300   4.023   1.823   0.943 -0.1918  0.2609 -0.4858
 6149WAT      O25301   3.609   6.487   7.527  0.4390 -0.0954 -0.3849
 6149WAT     H125302   3.553   6.504   7.592  1.1222  0.3810  0.0853
 6149WAT     H225303   3.687   6.502   7.563  0.8513 -0.3719 -1.1550
 6149WAT    EPW25304   3.612   6.492   7.542  0.0922 -0.3652  0.7171
 6150WAT      O25305   3.822   3.193   0.758 -0.5641 -0.0729  0.0857
 6150WAT     H125306   3.891   3.246   0.766 -1.0845  0.6845 -0.2659
 6150WAT     H225307   3.847   3.135   0.698 -0.5985  0.8528 -0.8628
 6150WAT    EPW25308   3.836   3.193   0.750  0.0004  0.5313  0.3898
 6151WAT      O25309   0.773   1.366   0.962 -0.3347 -0.8784  0.0221
 6151WAT     H125310   0.711   1.371   0.900 -0.1233 -0.5548 -0.1670
 6151WAT     H225311   0.785   1.280   0.972  0.0398 -0.9308 -0.8041
 6151WAT    EPW25312   0.766   1.354   0.954 -0.5259  0.9031 -0.1003
 6152WAT      O25313   6.156   4.263   2.366  0.1508  0.0824  0.6446
 6152WAT     H125314   6.131   4.347   2.371  1.2922  0.4956 -0.1262
 6152WAT     H225315   6.242   4.267   2.377  0.2136 -0.9976  0.5895
 6152WAT    EPW25316   6.165   4.276   2.368 -0.0884 -0.3872  0.4321
 6153WAT      O25317   5.021   7.179   0.753  0.1286  0.6062  0.1950
 6153WAT     H125318   5.009   7.261   0.779  0.8067  0.6548  0.3646
 6153WAT     H225319   5.008   7.132   0.825 -0.1438  0.5634  0.1230
 6153WAT    EPW25320   5.017   7.184   0.767  0.1614 -0.2729  0.5253
 6154WAT      O25321   7.030   7.048   2.519 -0.5684  0.5371  0.3982
 6154WAT     H125322   7.010   6.974   2.562 -0.3068  0.5463  0.5345
 6154WAT     H225323   6.955   7.093   2.522 -0.9817 -0.0661 -0.4052
 6154WAT    EPW25324   7.016   7.044   2.526  0.3023 -0.0921  0.4205
 6155WAT      O25325   3.913   5.139   1.684 -0.4921 -0.1991 -0.0039
 6155WAT     H125326   3.855   5.150   1.621  0.7388  1.6622 -0.9078
 6155WAT     H225327   3.946   5.219   1.696 -0.6946 -0.4645  3.0449
 6155WAT    EPW25328   3.909   5.152   1.677  0.0473  0.3873  0.4980
 6156WAT      O25329   4.980   4.576   2.421  0.3078  0.4261 -0.5265
 6156WAT     H125330   5.045   4.634   2.421 -0.2673  1.2522  2.5985
 6156WAT     H225331   5.018   4.502   2.395  1.9209  1.3913 -1.0751
 6156WAT    EPW25332   4.995   4.574   2.417  0.1129  0.0293 -0.2464
 6157WAT      O25333   5.342   6.610   6.075  0.3101 -0.3000  0.4649
 6157WAT     H125334   5.408   6.648   6.117  0.0057  2.1316 -1.0490
 6157WAT     H225335   5.272   6.656   6.101 -0.2271 -0.3880 -0.7403
 6157WAT    EPW25336   5.341   6.622   6.085  0.2354  0.6630  0.3344
 6158WAT      O25337   3.672   6.152   5.250 -0.0429  0.1254  0.1302
 6158WAT     H125338   3.660   6.237   5.234  1.3274  0.1771 -0.8087
 6158WAT     H225339   3.637   6.113   5.180 -0.9602 -0.1300  0.7087
 6158WAT    EPW25340   3.665   6.159   5.237 -0.5233 -0.5408  0.1472
 6159WAT      O25341   1.320   7.424   7.867  0.1878  0.1708 -0.6683
 6159WAT     H125342   1.281   7.389   7.937  1.0569 -0.2094 -0.3681
 6159WAT     H225343   1.266   7.489   7.845  0.3930  0.9452  0.9700
 6159WAT    EPW25344   1.306   7.429   7.874  0.0165  0.2694 -0.2874
 6160WAT      O25345   5.355   6.427   2.992  0.3280 -0.3006 -0.7343
 6160WAT     H125346   5.369   6.345   3.019 -1.2961 -0.5479 -0.4987
 6160WAT     H225347   5.393   6.431   2.914 -0.3701 -1.5898 -1.1657
 6160WAT    EPW25348   5.362   6.415   2.985 -0.1812 -0.3213  0.3133
 6161WAT      O25349   5.935   7.134   0.443 -0.2288 -0.0985 -0.1141
 6161WAT     H125350   5.868   7.133   0.388 -0.3196  0.4253 -0.0187
 6161WAT     H225351   5.936   7.053   0.475 -0.6379 -0.1915 -0.3292
 6161WAT    EPW25352   5.925   7.122   0.440  0.1742 -0.6621 -0.3821
 6162WAT      O25353   4.170   6.311   5.825  0.1039 -0.0396 -0.1727
 6162WAT     H125354   4.152   6.384   5.868  1.1884  0.7363 -0.9761
 6162WAT     H225355   4.136   6.248   5.875 -0.7519  0.9993  0.5761
 6162WAT    EPW25356   4.162   6.312   5.839 -0.1307 -0.3541  0.0621
 6163WAT      O25357   6.270   4.734   4.990  0.1384 -0.1449 -0.4831
 6163WAT     H125358   6.268   4.770   4.911 -1.3750 -1.4680 -1.1013
 6163WAT     H225359   6.264   4.803   5.044 -3.6177  0.6473 -1.6269
 6163WAT    EPW25360   6.269   4.750   4.987  0.5362  0.0491 -0.0608
 6164WAT      O25361   2.819   6.749   4.723 -0.3305  0.4346 -0.6313
 6164WAT     H125362   2.892   6.708   4.698 -0.6954  0.4262 -1.7062
 6164WAT     H225363   2.794   6.792   4.652 -1.1781  0.7348 -0.1638
 6164WAT    EPW25364   2.826   6.749   4.709  0.3807  0.4072 -0.4428
 6165WAT      O25365   5.821   0.800   3.680  0.6826  0.4093 -0.7303
 6165WAT     H125366   5.800   0.858   3.741 -1.0622 -0.6166 -0.2921
 6165WAT     H225367   5.835   0.727   3.725 -1.3628 -0.5650 -1.5310
 6165WAT    EPW25368   5.820   0.798   3.695 -0.2012 -0.1443 -0.1638
 6166WAT      O25369   3.541   5.950   7.497  0.3183 -0.0077 -0.3938
 6166WAT     H125370   3.480   5.895   7.529  0.7379  0.0584  0.5587
 6166WAT     H225371   3.494   6.015   7.464 -0.1436  0.1835  0.5925
 6166WAT    EPW25372   3.525   5.951   7.497  0.3358 -0.1534 -0.4612
 6167WAT      O25373   2.112   5.057   3.221  0.2812  0.3082 -0.3877
 6167WAT     H125374   2.117   4.991   3.164 -1.0037 -0.6394  0.5381
 6167WAT     H225375   2.145   5.125   3.177 -2.3186  0.0975 -2.9798
 6167WAT    EPW25376   2.117   5.057   3.206 -0.0304 -0.0830  0.3138
 6168WAT      O25377   2.048   7.412   4.676 -0.0748  0.0721  1.0467
 6168WAT     H125378   2.026   7.352   4.735 -0.3752  0.8334  1.7346
 6168WAT     H225379   2.091   7.472   4.723 -0.2675  0.6676  0.4824
 6168WAT    EPW25380   2.051   7.412   4.692 -0.5654  0.5547  0.0870
 6169WAT      O25381   2.279   0.300   4.525 -0.0684 -0.2703  0.0184
 6169WAT     H125382   2.347   0.291   4.579  0.7731  0.8874 -0.7797
 6169WAT     H225383   2.310   0.269   4.449  0.3558  2.0995 -0.8847
 6169WAT    EPW25384   2.294   0.294   4.522  0.5588  0.4338  0.1458
 6170WAT      O25385   2.759   3.552   4.466 -0.0872 -0.7140  0.0911
 6170WAT     H125386   2.772   3.635   4.489 -0.7351 -0.5557 -0.1202
 6170WAT     H225387   2.826   3.536   4.412  0.3505 -0.5061  0.5532
 6170WAT    EPW25388   2.771   3.562   4.462  0.1285 -0.2309 -0.1878
 6171WAT      O25389   1.474   6.280   5.753 -0.3180 -0.3974  0.4959
 6171WAT     H125390   1.541   6.335   5.764 -0.8401  0.4197 -0.2795
 6171WAT     H225391   1.415   6.309   5.810 -0.4775 -0.3518  0.3065
 6171WAT    EPW25392   1.475   6.292   5.763  0.3276  0.2829  0.3646
 6172WAT      O25393   1.935   7.336   1.907 -0.4203  0.1754 -0.0172
 6172WAT     H125394   1.852   7.313   1.892 -0.9214  2.1290 -0.5010
 6172WAT     H225395   1.929   7.390   1.975  0.5385 -0.1242  0.3144
 6172WAT    EPW25396   1.922   7.340   1.914  0.1912  0.1070  0.0120
 6173WAT      O25397   5.195   4.213   6.596  0.1010  0.5286  0.0827
 6173WAT     H125398   5.221   4.147   6.546  2.2955  0.5061  1.1445
 6173WAT     H225399   5.211   4.185   6.677 -3.0708  0.6839  0.8996
 6173WAT    EPW25400   5.201   4.199   6.600 -0.2274 -0.0650 -0.7422
 6174WAT      O25401   5.046   6.369   8.020  0.3799  0.3500 -0.5814
 6174WAT     H125402   5.020   6.382   7.937  1.4925  2.6102 -0.6635
 6174WAT     H225403   5.020   6.441   8.061  3.0172  0.9979  0.1627
 6174WAT    EPW25404   5.039   6.382   8.013 -0.1014 -0.0431  0.1840
 6175WAT      O25405   3.267   5.648   5.985  0.5939  0.1739 -0.2776
 6175WAT     H125406   3.319   5.592   6.028 -2.3356 -0.2679  3.1409
 6175WAT     H225407   3.306   5.725   5.998  1.4508 -0.3542  0.4667
 6175WAT    EPW25408   3.280   5.651   5.993  0.0574  0.3182 -0.0592
 6176WAT      O25409   4.463   1.430   7.363  0.7326  0.2908  0.7423
 6176WAT     H125410   4.401   1.488   7.381  1.3253  1.1653  0.0533
 6176WAT     H225411   4.532   1.459   7.409  0.6764 -0.6216  1.4410
 6176WAT    EPW25412   4.464   1.443   7.373  0.0179 -0.0879  0.8972
 6177WAT      O25413   1.647   7.352   5.175 -0.2216  0.3925  0.1010
 6177WAT     H125414   1.581   7.401   5.203 -0.6663  0.2747 -0.7061
 6177WAT     H225415   1.608   7.282   5.142  0.3162  0.2041 -0.1528
 6177WAT    EPW25416   1.632   7.349   5.174  0.4794 -0.2099  0.0546
 6178WAT      O25417   4.359   6.374   6.025 -0.4354  0.1699 -0.1429
 6178WAT     H125418   4.318   6.390   5.950  0.6913  2.1596 -0.3868
 6178WAT     H225419   4.312   6.419   6.084 -2.5936 -3.0266  0.8632
 6178WAT    EPW25420   4.346   6.383   6.023  0.6023 -0.0218 -0.2805
 6179WAT      O25421   5.243   4.765   6.702 -0.1385  0.1140 -0.1252
 6179WAT     H125422   5.225   4.795   6.622  1.1526 -1.8232 -1.1989
 6179WAT     H225423   5.168   4.776   6.745 -1.6140 -0.8856 -2.2754
 6179WAT    EPW25424   5.229   4.771   6.697 -0.3670  0.2025  0.1385
 6180WAT      O25425   3.875   5.488   1.207  0.0582 -0.2520  0.4550
 6180WAT     H125426   3.845   5.490   1.125  1.8216 -1.8169 -0.2982
 6180WAT     H225427   3.852   5.409   1.235  0.8410 -0.3221  0.9143
 6180WAT    EPW25428   3.867   5.477   1.199 -0.1556  0.0892  0.2972
 6181WAT      O25429   2.257   6.056   4.173 -0.1955 -0.1355  0.1346
 6181WAT     H125430   2.223   6.015   4.104  1.9538  0.5037 -1.4006
 6181WAT     H225431   2.287   5.991   4.223  1.4235 -0.5448 -1.3121
 6181WAT    EPW25432   2.256   6.041   4.171 -0.2380  0.0698 -0.7484
 6182WAT      O25433   6.871   3.053   3.809 -0.3038  0.3084  0.0338
 6182WAT     H125434   6.791   3.058   3.774 -0.9202  2.3331  1.4910
 6182WAT     H225435   6.919   3.013   3.748 -2.3213 -0.5830 -1.0575
 6182WAT    EPW25436   6.866   3.048   3.795 -0.1929  0.4997  0.4974
 6183WAT      O25437   5.471   4.330   6.569 -0.1228  0.0256 -0.4236
 6183WAT     H125438   5.390   4.298   6.563 -0.8990  1.9625 -0.8674
 6183WAT     H225439   5.471   4.372   6.646  0.9510 -1.1517  0.2604
 6183WAT    EPW25440   5.459   4.331   6.580 -0.4504  0.0590  0.0248
 6184WAT      O25441   4.935   7.404   7.397 -0.0002 -0.4762 -0.2505
 6184WAT     H125442   4.907   7.327   7.428  0.2651  0.1340  1.6458
 6184WAT     H225443   5.009   7.418   7.442 -0.4914  1.2651  0.0774
 6184WAT    EPW25444   4.942   7.395   7.408 -0.2108  0.2467 -0.0574
 6185WAT      O25445   4.689   4.705   5.983  0.0676  0.3706 -0.0950
 6185WAT     H125446   4.618   4.655   5.969  0.3251  0.2629 -1.0447
 6185WAT     H225447   4.698   4.701   6.070 -1.2106  0.5608  0.0774
 6185WAT    EPW25448   4.680   4.697   5.994  0.2586 -0.3331 -0.6066
 6186WAT      O25449   5.166   1.320   5.785  0.0281 -0.4633  0.1321
 6186WAT     H125450   5.131   1.247   5.816 -0.3675 -0.7447 -0.9193
 6186WAT     H225451   5.171   1.305   5.699  0.6555  0.4461 -0.0064
 6186WAT    EPW25452   5.162   1.307   5.777  0.0383  0.0302  0.5563
 6187WAT      O25453   3.227   3.881   1.095  0.9082  0.0123 -0.2604
 6187WAT     H125454   3.221   3.794   1.102  0.4794  0.0764  0.2530
 6187WAT     H225455   3.297   3.901   1.143 -0.3097  0.1570  1.5551
 6187WAT    EPW25456   3.237   3.871   1.103  0.1773  0.4122 -0.9593
 6188WAT      O25457   0.543   5.392   3.720  0.3854 -0.1206  0.1585
 6188WAT     H125458   0.507   5.355   3.649 -1.5061  1.3020  0.3113
 6188WAT     H225459   0.575   5.467   3.689 -1.1520  0.8814  0.8991
 6188WAT    EPW25460   0.543   5.397   3.705  0.2948  0.3344 -0.1607
 6189WAT      O25461   6.842   7.062   0.995 -0.3142 -0.9568  0.1810
 6189WAT     H125462   6.923   7.040   0.972 -0.1180 -0.7393  0.6486
 6189WAT     H225463   6.809   7.097   0.922  0.9238  1.4356  0.6708
 6189WAT    EPW25464   6.849   7.064   0.981  0.7896  0.1055  0.4390
 6190WAT      O25465   3.669   5.855   6.476  0.7365 -0.4571  0.5552
 6190WAT     H125466   3.697   5.882   6.554  1.3364  0.0946  0.1585
 6190WAT     H225467   3.742   5.837   6.432  0.5114  0.7737 -0.4097
 6190WAT    EPW25468   3.684   5.857   6.481  0.1845  0.5291 -0.4857
 6191WAT      O25469   5.135   4.836   6.444 -0.2116  0.9748  0.3087
 6191WAT     H125470   5.101   4.906   6.404 -3.5550 -0.9596 -0.6562
 6191WAT     H225471   5.065   4.797   6.479  1.4451 -1.9596  0.6743
 6191WAT    EPW25472   5.120   4.840   6.443 -0.0629 -1.0310 -0.2250
 6192WAT      O25473   5.684   2.516   5.995 -0.2984  0.0088 -0.0185
 6192WAT     H125474   5.659   2.498   5.914  3.4274  0.8151 -1.5398
 6192WAT     H225475   5.671   2.602   6.002 -1.0143 -0.1229  0.4725
 6192WAT    EPW25476   5.678   2.526   5.984 -0.1584  0.5116 -0.3641
 6193WAT      O25477   3.222   6.533   5.180 -0.4179  0.1079  0.2896
 6193WAT     H125478   3.220   6.460   5.228  1.5089 -0.1765  0.0125
 6193WAT     H225479   3.206   6.596   5.238 -2.0723 -0.4958  0.5396
 6193WAT    EPW25480   3.219   6.531   5.195  0.0571  0.5242  0.3162
 6194WAT      O25481   2.371   3.791   6.984  0.2824 -0.0608 -0.2687
 6194WAT     H125482   2.358   3.807   7.069 -0.7573  1.8650 -0.7357
 6194WAT     H225483   2.320   3.723   6.967 -0.0361 -0.0206  0.5123
 6194WAT    EPW25484   2.361   3.783   6.994 -0.2835  0.0804  0.5514
 6195WAT      O25485   0.148   1.048   3.840 -0.2112 -0.3268 -0.1120
 6195WAT     H125486   0.122   1.123   3.875  3.6156  0.4878  1.4465
 6195WAT     H225487   0.205   1.072   3.778  1.5719 -1.8553  0.8258
 6195WAT    EPW25488   0.152   1.062   3.836  0.2610 -0.2129  0.3721
 6196WAT      O25489   2.969   7.810   1.724 -0.5404  0.0893 -0.0452
 6196WAT     H125490   2.898   7.861   1.734  1.5132  2.9597  1.1111
 6196WAT     H225491   3.035   7.867   1.718  1.6215 -2.3816 -2.6074
 6196WAT    EPW25492   2.968   7.826   1.725 -0.2141 -0.5313 -0.0900
 6197WAT      O25493   1.791   3.965   4.729 -0.2508 -0.4005  0.0407
 6197WAT     H125494   1.763   4.014   4.663  1.1413 -2.1782 -2.0445
 6197WAT     H225495   1.718   3.932   4.763 -0.9854  0.0849 -1.0239
 6197WAT    EPW25496   1.776   3.967   4.724 -0.0613  0.3810  0.1788
 6198WAT      O25497   5.026   5.347   5.812 -0.0091  0.2153 -0.2320
 6198WAT     H125498   4.982   5.324   5.740 -0.9807 -2.9137  1.1724
 6198WAT     H225499   5.096   5.389   5.780 -0.9524 -0.0352 -2.9195
 6198WAT    EPW25500   5.030   5.350   5.796 -0.9107  0.5637  0.6664
 6199WAT      O25501   3.114   1.437   1.544  0.1535 -0.0669 -0.2058
 6199WAT     H125502   3.112   1.371   1.487  0.3125  0.0138 -0.3040
 6199WAT     H225503   3.199   1.455   1.553  0.0908  0.4023 -0.5057
 6199WAT    EPW25504   3.126   1.430   1.537 -0.0468 -0.2663  0.8143
 6200WAT      O25505   1.566   6.734   0.760  0.3886  0.7119  0.1267
 6200WAT     H125506   1.610   6.720   0.686 -0.0350 -0.2981  0.0497
 6200WAT     H225507   1.511   6.666   0.765  3.2977 -1.7785  3.5156
 6200WAT    EPW25508   1.564   6.722   0.750  0.3074 -0.3690 -0.5542
 6201WAT      O25509   5.098   4.939   1.582  0.6308 -0.1388 -0.1148
 6201WAT     H125510   5.069   4.860   1.562 -1.8597  0.8393 -0.7706
 6201WAT     H225511   5.105   4.937   1.669 -2.5825 -0.2048  0.2520
 6201WAT    EPW25512   5.095   4.927   1.592  0.1989  0.3243 -0.1688
 6202WAT      O25513   1.672   2.674   3.504  0.4436  0.2287 -0.1549
 6202WAT     H125514   1.723   2.609   3.533 -1.6540 -1.2565  0.4101
 6202WAT     H225515   1.728   2.741   3.496  2.7080 -1.5712 -0.6867
 6202WAT    EPW25516   1.688   2.674   3.507 -0.3709 -0.7377 -0.1148
 6203WAT      O25517   1.047   6.241   4.702 -0.5463  0.2620 -0.0773
 6203WAT     H125518   1.039   6.167   4.656  0.8689  0.4745 -0.7084
 6203WAT     H225519   1.121   6.229   4.747 -2.1555 -0.1840  2.6830
 6203WAT    EPW25520   1.057   6.228   4.702  0.4023 -0.3249 -0.1711
 6204WAT      O25521   5.734   0.169   6.856 -0.1597 -0.8025 -0.3379
 6204WAT     H125522   5.767   0.188   6.778  0.4795 -0.9737 -0.1220
 6204WAT     H225523   5.670   0.227   6.866 -0.5384 -1.0660 -1.1694
 6204WAT    EPW25524   5.729   0.180   6.846 -0.3327  0.0389  0.1298
 6205WAT      O25525   2.850   5.007   5.926  0.4547 -0.1861 -0.3960
 6205WAT     H125526   2.791   4.993   5.989 -1.0100 -0.2610 -1.7202
 6205WAT     H225527   2.879   5.088   5.943  0.1873 -0.2548  0.4309
 6205WAT    EPW25528   2.846   5.017   5.938  0.7182  0.1469 -0.0077
 6206WAT      O25529   3.166   5.498   5.476  0.2612  0.5100 -0.4145
 6206WAT     H125530   3.139   5.503   5.559 -1.7693  0.1750 -1.0078
 6206WAT     H225531   3.242   5.456   5.482  0.0282  0.2716  1.2556
 6206WAT    EPW25532   3.173   5.492   5.489 -0.1083 -0.4185  1.0604
 6207WAT      O25533   3.439   7.135   0.989  0.1078 -0.1634 -0.2630
 6207WAT     H125534   3.516   7.176   0.985 -0.1901  0.3765 -0.5378
 6207WAT     H225535   3.450   7.079   1.055  0.7287 -0.0756 -0.2818
 6207WAT    EPW25536   3.452   7.133   0.999 -0.7406 -0.1398  0.0026
 6208WAT      O25537   7.165   7.193   3.956 -0.6848  0.1392 -0.1879
 6208WAT     H125538   7.153   7.240   3.884 -1.6209  1.1002  0.5770
 6208WAT     H225539   7.104   7.131   3.951  0.8324 -1.3544 -1.4192
 6208WAT    EPW25540   7.154   7.191   3.945  0.2011  0.0591 -0.3665
 6209WAT      O25541   1.227   2.458   5.234  0.3136  0.2317  0.1234
 6209WAT     H125542   1.263   2.414   5.168 -0.8658 -0.8134  0.1386
 6209WAT     H225543   1.246   2.409   5.304 -1.0418 -0.3347  0.1332
 6209WAT    EPW25544   1.235   2.444   5.234  0.1515  0.0592 -0.1448
 6210WAT      O25545   6.561   4.428   5.228 -0.3192 -0.0281  0.2164
 6210WAT     H125546   6.542   4.439   5.144  0.5997  1.1718  0.1431
 6210WAT     H225547   6.637   4.469   5.238  0.1619 -1.1265  1.3895
 6210WAT    EPW25548   6.569   4.436   5.217  0.0020 -0.2380 -0.5426
 6211WAT      O25549   5.270   4.689   5.756  0.0478  0.3202 -0.5324
 6211WAT     H125550   5.242   4.620   5.802 -0.4706 -0.1756 -1.5757
 6211WAT     H225551   5.292   4.655   5.679  3.1412  0.7294  0.0338
 6211WAT    EPW25552   5.269   4.673   5.752  0.5527 -0.3997  0.1048
 6212WAT      O25553   0.220   5.781   4.865 -0.7848 -0.6678  0.2270
 6212WAT     H125554   0.271   5.713   4.845 -1.6351 -1.6422  1.2636
 6212WAT     H225555   0.216   5.779   4.952  0.6034  1.8023  0.4704
 6212WAT    EPW25556   0.227   5.771   4.875  0.4372 -0.0094  0.1858
 6213WAT      O25557   1.000   3.476   4.790  0.2373 -0.1473  0.8985
 6213WAT     H125558   1.058   3.480   4.725 -1.1061 -1.1301 -0.4212
 6213WAT     H225559   1.012   3.395   4.822 -0.5183 -0.4278  0.4897
 6213WAT    EPW25560   1.011   3.464   4.785  0.0384  0.0519  0.7270
 6214WAT      O25561   5.103   3.007   4.500  0.3236  0.3396  0.1878
 6214WAT     H125562   5.162   2.948   4.474  0.7533  0.4537  0.8899
 6214WAT     H225563   5.140   3.083   4.479  0.7356  0.4409  1.2185
 6214WAT    EPW25564   5.117   3.009   4.493  0.4944 -0.1401  0.3192
 6215WAT      O25565   3.122   1.879   1.433  0.4633 -0.0700  0.3206
 6215WAT     H125566   3.113   1.929   1.361  0.4674 -0.8913 -0.2624
 6215WAT     H225567   3.128   1.938   1.497  1.6288  0.7126 -0.4648
 6215WAT    EPW25568   3.122   1.895   1.432  0.0221 -0.0709 -0.2603
 6216WAT      O25569   3.485   3.674   0.980 -0.1688  0.3699 -0.2302
 6216WAT     H125570   3.418   3.715   0.943 -0.7170 -1.0273 -0.8415
 6216WAT     H225571   3.491   3.711   1.059 -1.8620  0.2921 -0.0432
 6216WAT    EPW25572   3.476   3.686   0.986 -0.6930 -0.3400  0.4150
 6217WAT      O25573   2.942   2.289   5.455  0.2398 -0.7969 -0.0435
 6217WAT     H125574   2.900   2.363   5.472 -0.6966 -1.5045  0.8635
 6217WAT     H225575   3.026   2.312   5.459 -0.0402  0.3372 -0.3895
 6217WAT    EPW25576   2.948   2.303   5.458  1.2519  0.4839 -0.4316
 6218WAT      O25577   3.697   1.474   6.071 -0.2227  0.4689  0.4165
 6218WAT     H125578   3.735   1.397   6.081 -2.3883 -0.8305 -0.6585
 6218WAT     H225579   3.747   1.514   6.012  0.7824 -0.1961  0.7935
 6218WAT    EPW25580   3.710   1.469   6.063 -0.2959  0.2331  0.5010
 6219WAT      O25581   4.455   7.844   2.514  0.5013  0.3510  0.1285
 6219WAT     H125582   4.377   7.879   2.497 -0.8320 -2.1153  0.7297
 6219WAT     H225583   4.478   7.809   2.437  1.4510  1.7351 -0.2588
 6219WAT    EPW25584   4.447   7.844   2.500  0.4792 -0.3866  0.2498
 6220WAT      O25585   1.586   5.494   4.045  0.3386  0.4625 -0.2278
 6220WAT     H125586   1.511   5.538   4.050  0.3310  0.9138 -3.0175
 6220WAT     H225587   1.639   5.538   4.098 -0.6493  1.7153 -0.2500
 6220WAT    EPW25588   1.583   5.507   4.054  0.3908 -0.3424 -0.7525
 6221WAT      O25589   7.251   7.176   1.298 -0.4338 -0.6311 -0.3942
 6221WAT     H125590   7.199   7.133   1.353  1.5605 -0.4594  1.7919
 6221WAT     H225591   7.331   7.151   1.322  0.5926  0.8515 -2.0632
 6221WAT    EPW25592   7.255   7.166   1.310  0.1986 -0.9214  0.2025
 6222WAT      O25593   3.045   6.395   3.439  0.1335  0.1586  0.0242
 6222WAT     H125594   3.041   6.419   3.523 -0.3327  0.1486  0.0095
 6222WAT     H225595   3.036   6.470   3.395  2.2911  0.4487 -0.0396
 6222WAT    EPW25596   3.043   6.410   3.445  0.1737  0.1304 -0.4341
 6223WAT      O25597   3.563   6.807   6.096  0.3967 -0.8762  0.2704
 6223WAT     H125598   3.529   6.755   6.034  0.5762 -0.6790  0.0041
 6223WAT     H225599   3.499   6.865   6.110 -0.1413 -1.6608  1.1800
 6223WAT    EPW25600   3.548   6.808   6.089  0.5234 -0.0594 -0.1614
 6224WAT      O25601   5.009   3.259   0.061 -0.3110  0.4571 -0.0544
 6224WAT     H125602   5.092   3.287   0.057 -0.4997  1.2017  0.8503
 6224WAT     H225603   5.013   3.191   0.116 -0.0900 -0.4047 -1.1071
 6224WAT    EPW25604   5.022   3.253   0.068 -0.3686 -0.7121  0.2732
 6225WAT      O25605   5.134   5.375   5.503  0.4599  0.0854  0.0733
 6225WAT     H125606   5.213   5.390   5.537  1.0881 -2.1162 -0.2308
 6225WAT     H225607   5.129   5.288   5.501 -2.7383  0.0587  1.8531
 6225WAT    EPW25608   5.145   5.364   5.508  0.2559 -0.4148  0.5966
 6226WAT      O25609   5.018   0.073   6.284  0.2718  0.3629  0.0498
 6226WAT     H125610   5.035   0.064   6.369  2.5631  0.6193 -0.3141
 6226WAT     H225611   5.060   0.005   6.248 -1.1727 -0.0930 -0.8549
 6226WAT    EPW25612   5.026   0.061   6.291  0.5074  0.1425  0.4190
 6227WAT      O25613   2.390   5.904   4.357  0.2169  0.5327 -0.4190
 6227WAT     H125614   2.475   5.916   4.373  0.4263 -0.4422 -0.7933
 6227WAT     H225615   2.366   5.846   4.418 -0.2526  1.0182 -0.1341
 6227WAT    EPW25616   2.399   5.898   4.369 -0.3647 -0.5463  0.0530
 6228WAT      O25617   5.433   3.682   4.455 -0.4973  0.2485 -0.6351
 6228WAT     H125618   5.468   3.667   4.533 -0.1347  2.1903 -0.3749
 6228WAT     H225619   5.363   3.731   4.473 -0.9715 -0.1039 -1.4675
 6228WAT    EPW25620   5.427   3.687   4.469  0.5974 -0.1025 -0.0400
 6229WAT      O25621   2.145   7.571   3.436 -0.8302 -0.5448 -0.8494
 6229WAT     H125622   2.120   7.651   3.413  0.6213 -0.0372 -0.7880
 6229WAT     H225623   2.091   7.551   3.502 -1.8879 -0.0706 -1.5402
 6229WAT    EPW25624   2.133   7.580   3.443  0.3454 -0.3484 -0.0779
 6230WAT      O25625   5.543   5.143   3.506  0.5068  0.1605 -0.9831
 6230WAT     H125626   5.567   5.223   3.480  0.1009  0.0673 -1.6730
 6230WAT     H225627   5.518   5.104   3.432 -0.7581 -0.0919 -0.4504
 6230WAT    EPW25628   5.543   5.149   3.491 -0.2193  0.0837 -0.7639
 6231WAT      O25629   4.076   5.882   6.347  0.3352 -0.1078 -0.0009
 6231WAT     H125630   4.029   5.816   6.377  0.0843 -0.0331 -0.2305
 6231WAT     H225631   4.020   5.949   6.345  0.6577  0.1861  0.4992
 6231WAT    EPW25632   4.061   5.882   6.351 -0.1155 -0.1412 -0.3365
 6232WAT      O25633   6.151   0.857   3.780 -0.3373  0.6797 -0.1374
 6232WAT     H125634   6.195   0.929   3.804  0.6288 -0.3460  1.3068
 6232WAT     H225635   6.067   0.882   3.783 -0.0650  1.5298  1.1484
 6232WAT    EPW25636   6.145   0.872   3.784  0.3513  0.4512 -0.1701
 6233WAT      O25637   3.410   0.177   6.633  0.7870 -0.1166 -0.2251
 6233WAT     H125638   3.398   0.189   6.547  0.3271 -0.0527 -0.1563
 6233WAT     H225639   3.423   0.091   6.639 -0.7099 -0.3675 -0.2037
 6233WAT    EPW25640   3.410   0.166   6.621  0.2307 -0.6854 -0.3854
 6234WAT      O25641   2.620   7.226   4.910  0.4373  0.1307 -0.0290
 6234WAT     H125642   2.672   7.197   4.974 -0.1395  1.8412  1.3009
 6234WAT     H225643   2.589   7.301   4.941 -1.5825 -0.0253 -1.4486
 6234WAT    EPW25644   2.623   7.233   4.924 -0.4119  0.0131 -0.2145
 6235WAT      O25645   2.883   6.869   2.757  0.1676  0.0126  0.1617
 6235WAT     H125646   2.913   6.890   2.837  1.8519 -0.1805 -0.3838
 6235WAT     H225647   2.845   6.791   2.769  0.1033  0.1424  0.8351
 6235WAT    EPW25648   2.882   6.860   2.771 -0.5335 -0.1640 -1.1050
 6236WAT      O25649   7.000   5.058   1.763  0.5695  0.1475 -0.5762
 6236WAT     H125650   6.972   5.095   1.689  0.1958  1.4588  0.1747
 6236WAT     H225651   7.084   5.081   1.766  0.3207  1.0772 -0.0741
 6236WAT    EPW25652   7.008   5.067   1.753  0.2756 -0.0353  0.5566
 6237WAT      O25653   6.251   6.651   2.119  0.1635 -0.2960  0.3218
 6237WAT     H125654   6.284   6.572   2.104  1.0906  0.2704 -0.7967
 6237WAT     H225655   6.320   6.703   2.112 -0.8938  0.9448 -2.0342
 6237WAT    EPW25656   6.266   6.647   2.116  0.4193  0.5676 -0.0875
 6238WAT      O25657   1.324   6.597   4.694  0.3261 -0.0587  0.2798
 6238WAT     H125658   1.385   6.598   4.756  0.9745 -2.7715 -0.2148
 6238WAT     H225659   1.249   6.588   4.739  0.5399  0.4292  0.7445
 6238WAT    EPW25660   1.322   6.596   4.710  0.5179  0.7450  0.0611
 6239WAT      O25661   1.498   0.690   1.946  0.3221  0.1786 -0.4851
 6239WAT     H125662   1.412   0.691   1.960  0.1574 -0.0682 -1.3940
 6239WAT     H225663   1.524   0.616   1.983  0.0753  0.0671 -0.5284
 6239WAT    EPW25664   1.489   0.680   1.953  0.0451 -0.7467  0.7099
 6240WAT      O25665   6.047   0.024   0.404 -0.3389 -0.3391 -0.2850
 6240WAT     H125666   6.046   0.084   0.340 -0.4973 -0.0682 -0.0306
 6240WAT     H225667   5.987   0.054   0.460  1.4489  0.7089  1.1762
 6240WAT    EPW25668   6.038   0.038   0.403  0.4088 -0.1247 -0.1636
 6241WAT      O25669   4.822   7.155   5.569 -0.5932  0.0909 -0.4423
 6241WAT     H125670   4.830   7.237   5.541 -0.1316  0.3294  0.3739
 6241WAT     H225671   4.900   7.136   5.602 -0.5542 -0.8400 -1.0090
 6241WAT    EPW25672   4.834   7.164   5.570 -0.1555  0.6761  0.0477
 6242WAT      O25673   5.888   5.867   4.428 -0.3264 -0.2708  0.3885
 6242WAT     H125674   5.860   5.785   4.436  0.5427 -0.5741  0.5232
 6242WAT     H225675   5.861   5.905   4.501  0.3049 -0.7749  0.9028
 6242WAT    EPW25676   5.880   5.860   4.440  0.2205  0.0441 -0.2378
 6243WAT      O25677   1.323   2.454   7.654 -0.3872  0.2639 -0.3902
 6243WAT     H125678   1.364   2.483   7.726  0.4722 -1.7847  0.0044
 6243WAT     H225679   1.245   2.495   7.657  0.7972  2.6915 -0.0735
 6243WAT    EPW25680   1.317   2.464   7.665  0.0984 -0.1697  0.2581
 6244WAT      O25681   1.996   2.574   7.035 -0.3414 -1.0192  0.0855
 6244WAT     H125682   1.924   2.612   7.066 -0.3663  0.1174 -1.2773
 6244WAT     H225683   2.061   2.625   7.065 -0.3959  0.4547 -2.0585
 6244WAT    EPW25684   1.995   2.587   7.044 -0.0886  0.3693  0.6309
 6245WAT      O25685   2.670   5.251   7.757 -0.6018  0.2915  0.0104
 6245WAT     H125686   2.614   5.264   7.823 -1.4870  0.8223 -0.8199
 6245WAT     H225687   2.658   5.321   7.706 -1.7259 -1.2726 -1.9712
 6245WAT    EPW25688   2.660   5.263   7.759 -0.0629 -0.3629  0.0622
 6246WAT      O25689   4.396   3.827   7.020 -0.5548  0.5878  0.3793
 6246WAT     H125690   4.360   3.815   7.098 -2.1570  0.1591 -0.3730
 6246WAT     H225691   4.482   3.818   7.035 -0.8074  0.6858  2.0923
 6246WAT    EPW25692   4.404   3.824   7.034  0.3709  0.1251  0.2590
 6247WAT      O25693   1.023   1.864   4.002 -0.1445 -0.5812  0.4615
 6247WAT     H125694   1.013   1.843   4.087  0.1558 -1.6465  0.2508
 6247WAT     H225695   0.942   1.884   3.977 -0.0698  0.8390  1.2582
 6247WAT    EPW25696   1.009   1.864   4.011 -0.1086 -0.8731  0.0454
 6248WAT      O25697   0.501   5.480   5.172  0.0945 -0.1777 -0.6270
 6248WAT     H125698   0.558   5.539   5.201 -1.3574  0.0336  2.1106
 6248WAT     H225699   0.456   5.523   5.111 -1.3029  1.8829  1.6872
 6248WAT    EPW25700   0.503   5.495   5.168  0.5428 -0.3633  0.0134
 6249WAT      O25701   3.531   5.522   8.021  0.1323  0.2822 -0.7629
 6249WAT     H125702   3.605   5.480   8.039 -1.0050 -0.9025  1.5477
 6249WAT     H225703   3.558   5.597   7.985  2.4929  0.3253  0.8924
 6249WAT    EPW25704   3.546   5.527   8.018  0.2586  0.1560 -0.5878
 6250WAT      O25705   5.308   6.674   0.239  0.0012 -0.5180 -0.1134
 6250WAT     H125706   5.269   6.725   0.179 -2.4670 -1.2360  0.7819
 6250WAT     H225707   5.385   6.713   0.251 -0.9633  1.8559 -0.9471
 6250WAT    EPW25708   5.314   6.687   0.232  0.2012  0.2645 -0.5582
 6251WAT      O25709   4.268   1.519   5.961  0.2250  0.5839 -0.6774
 6251WAT     H125710   4.199   1.489   6.005  0.6025  1.2607  0.4031
 6251WAT     H225711   4.328   1.457   5.974 -0.4339 -0.5062 -2.4482
 6251WAT    EPW25712   4.266   1.505   5.969 -0.3338 -0.0611 -0.2874
 6252WAT      O25713   3.104   7.248   5.040  0.1828  0.1489 -0.5817
 6252WAT     H125714   3.046   7.247   4.974  0.0142 -2.2172 -0.4743
 6252WAT     H225715   3.180   7.258   4.999 -0.1609  2.4970 -0.7856
 6252WAT    EPW25716   3.107   7.249   5.024 -0.2212 -0.5682 -0.2215
 6253WAT      O25717   4.573   3.329   1.414  0.4174 -0.5190 -0.1735
 6253WAT     H125718   4.627   3.291   1.472  1.9732  0.4955 -0.8736
 6253WAT     H225719   4.497   3.332   1.456  1.5095  0.3139  1.9272
 6253WAT    EPW25720   4.570   3.324   1.429 -0.4769  0.3208  0.0831
 6254WAT      O25721   1.469   4.067   4.378  0.5170 -0.4989  0.5377
 6254WAT     H125722   1.494   4.094   4.299 -0.8294  0.9115  0.5678
 6254WAT     H225723   1.448   3.983   4.365 -0.9195  0.0382 -0.9215
 6254WAT    EPW25724   1.470   4.059   4.364 -0.0931 -0.0320  0.5355
 6255WAT      O25725   5.455   7.136   0.840  0.5531  0.4107  0.4331
 6255WAT     H125726   5.505   7.207   0.837  0.2315  0.7267  1.8514
 6255WAT     H225727   5.435   7.128   0.925 -0.5688 -0.5596  0.1082
 6255WAT    EPW25728   5.459   7.145   0.852  0.1432 -0.0472 -0.0794
 6256WAT      O25729   2.780   5.994   5.222 -0.0427 -0.1823 -0.0335
 6256WAT     H125730   2.738   5.923   5.193 -1.2162 -1.3614  3.9495
 6256WAT     H225731   2.717   6.054   5.228 -1.0052 -1.2781  3.7631
 6256WAT    EPW25732   2.765   5.993   5.219 -0.1247 -0.7637 -0.3888
 6257WAT      O25733   5.828   7.481   7.373  0.2526  0.3046 -0.3277
 6257WAT     H125734   5.906   7.442   7.371  0.2751  0.3728 -1.1035
 6257WAT     H225735   5.839   7.547   7.429  0.6218  0.0500 -0.0981
 6257WAT    EPW25736   5.841   7.485   7.381  0.3121  0.6185 -0.0251
 6258WAT      O25737   6.115   5.406   3.086  0.2643 -0.3976 -0.2967
 6258WAT     H125738   6.084   5.393   3.166  1.7437  0.3159  0.4273
 6258WAT     H225739   6.173   5.471   3.096  0.1670  0.0138 -2.0181
 6258WAT    EPW25740   6.119   5.414   3.099 -0.3220 -0.0479 -0.4502
 6259WAT      O25741   3.483   7.339   7.279  0.5382  0.3914  0.3065
 6259WAT     H125742   3.496   7.255   7.301  1.6481  0.4578 -0.0069
 6259WAT     H225743   3.491   7.381   7.355  1.8899  0.3757  0.2087
 6259WAT    EPW25744   3.486   7.332   7.294  0.1779 -0.5354 -0.2664
 6260WAT      O25745   7.239   4.664   0.692 -0.3040  0.0388  0.0516
 6260WAT     H125746   7.156   4.642   0.676  0.2997 -1.7914 -0.8094
 6260WAT     H225747   7.233   4.748   0.715 -2.1575  0.6933 -2.3188
 6260WAT    EPW25748   7.226   4.674   0.693  0.2722 -0.0160  0.1775
 6261WAT      O25749   5.273   6.816   4.673 -0.2781 -0.3125  0.0079
 6261WAT     H125750   5.194   6.781   4.662  0.2567 -1.6653  0.2664
 6261WAT     H225751   5.318   6.753   4.713  1.4534 -0.2870 -1.7438
 6261WAT    EPW25752   5.268   6.802   4.677  0.3958  0.0898 -0.2982
 6262WAT      O25753   4.648   6.558   6.938 -0.1253  0.4316  0.5816
 6262WAT     H125754   4.583   6.526   6.888 -1.2375  2.8512  0.3180
 6262WAT     H225755   4.687   6.616   6.885  0.5423  0.9233  1.5902
 6262WAT    EPW25756   4.644   6.562   6.923 -0.1542 -0.6171 -0.1166
 6263WAT      O25757   2.145   4.706   5.299  0.3842 -0.3986  0.5029
 6263WAT     H125758   2.212   4.758   5.280  1.4814 -1.2060  1.9818
 6263WAT     H225759   2.165   4.631   5.258  0.9413 -0.9744  1.7889
 6263WAT    EPW25760   2.158   4.703   5.290  0.2313 -0.1943  0.2419
 6264WAT      O25761   1.488   6.749   1.213 -0.1423  0.6665  0.0476
 6264WAT     H125762   1.412   6.716   1.185 -0.7471 -0.1364  2.4290
 6264WAT     H225763   1.544   6.722   1.152 -1.5302 -0.0029 -1.0058
 6264WAT    EPW25764   1.485   6.740   1.200  0.1777 -0.1328  0.7440
 6265WAT      O25765   1.677   5.883   1.742  0.0065  0.0260 -0.6529
 6265WAT     H125766   1.728   5.891   1.671  1.4426  0.6007  0.3844
 6265WAT     H225767   1.727   5.916   1.806 -1.6725  0.5591  0.4404
 6265WAT    EPW25768   1.692   5.889   1.741 -0.2616 -0.1762 -0.3307
 6266WAT      O25769   2.369   4.381   2.393  0.3723 -0.2566  0.3271
 6266WAT     H125770   2.403   4.385   2.313  0.7011 -0.3774  0.4576
 6266WAT     H225771   2.321   4.308   2.391  1.2309 -0.8397  0.5609
 6266WAT    EPW25772   2.367   4.371   2.381 -0.2714 -0.1530  0.0337
 6267WAT      O25773   3.726   2.829   6.077 -0.1254 -0.2268  0.2220
 6267WAT     H125774   3.780   2.835   6.145 -0.5308  0.0065  0.5260
 6267WAT     H225775   3.739   2.903   6.034 -0.3308 -0.0891  0.3937
 6267WAT    EPW25776   3.736   2.841   6.081  0.3921  0.3308  0.1199
 6268WAT      O25777   0.256   3.671   2.061  0.0950 -0.2811 -0.1621
 6268WAT     H125778   0.250   3.607   2.119  0.0921  0.3780  0.5820
 6268WAT     H225779   0.303   3.732   2.102 -1.4736  0.9618 -0.1251
 6268WAT    EPW25780   0.262   3.671   2.075 -0.1351  0.0073 -0.2829
 6269WAT      O25781   3.020   7.975   4.882 -0.1421 -0.5376  0.2696
 6269WAT     H125782   2.970   8.005   4.947 -0.0213  1.2108 -0.4115
 6269WAT     H225783   2.969   7.983   4.812  0.2064 -1.1550 -0.0557
 6269WAT    EPW25784   3.005   7.980   4.881 -0.0505  0.1801 -0.0778
 6270WAT      O25785   4.474   7.304   5.435  0.1618  1.0911  0.0507
 6270WAT     H125786   4.417   7.254   5.391  0.3420 -0.3275  1.3434
 6270WAT     H225787   4.423   7.355   5.484 -0.0327  0.3870  0.5999
 6270WAT    EPW25788   4.458   7.304   5.436  0.0138  0.1535 -0.3203
 6271WAT      O25789   2.967   0.173   7.054  0.1756 -0.0835 -0.3607
 6271WAT     H125790   2.980   0.123   7.124  0.8760  0.9167  0.2482
 6271WAT     H225791   3.023   0.141   6.995  1.1680  0.4091  0.2727
 6271WAT    EPW25792   2.978   0.161   7.056  0.1692  0.4439 -0.0171
 6272WAT      O25793   3.719   6.550   5.977 -0.2674 -0.3250  0.2147
 6272WAT     H125794   3.653   6.595   5.944  0.4280  0.6437  0.1126
 6272WAT     H225795   3.785   6.608   5.980  0.9638 -1.5805 -0.8913
 6272WAT    EPW25796   3.719   6.565   5.973 -0.5728  0.0573 -0.8518
 6273WAT      O25797   5.806   5.688   2.727 -0.8155  0.2486 -0.1555
 6273WAT     H125798   5.738   5.651   2.767 -0.2147 -2.8427 -1.6800
 6273WAT     H225799   5.769   5.744   2.671 -2.4201 -2.4265 -2.0559
 6273WAT    EPW25800   5.791   5.691   2.724 -0.3394  0.4225 -0.3030
 6274WAT      O25801   1.138   3.819   0.290 -0.3387 -0.2570 -0.3425
 6274WAT     H125802   1.100   3.818   0.369 -0.0198 -0.0181 -0.1790
 6274WAT     H225803   1.170   3.900   0.285  1.2462 -0.8135  0.0694
 6274WAT    EPW25804   1.138   3.831   0.301  1.0366 -0.0776  0.0991
 6275WAT      O25805   0.490   4.259   5.056  0.3679 -0.5280  0.1839
 6275WAT     H125806   0.510   4.343   5.043  0.3144 -0.2414  1.7443
 6275WAT     H225807   0.545   4.235   5.120  3.0550 -2.7848 -2.6289
 6275WAT    EPW25808   0.501   4.268   5.064  0.4211 -0.1957  0.0477
 6276WAT      O25809   6.828   2.644   1.486 -0.3249  0.6233 -0.2365
 6276WAT     H125810   6.910   2.634   1.514  0.1372  1.3116 -1.2618
 6276WAT     H225811   6.820   2.584   1.423 -1.2268 -0.6608  1.0434
 6276WAT    EPW25812   6.839   2.634   1.481  0.2745 -0.4015 -0.0041
 6277WAT      O25813   5.433   4.075   2.330 -0.6402  0.0715 -0.5852
 6277WAT     H125814   5.363   4.054   2.281 -0.2254 -1.7998 -0.4619
 6277WAT     H225815   5.447   4.003   2.377  0.8210  0.7432  0.0678
 6277WAT    EPW25816   5.425   4.061   2.330  0.2448  0.1663 -0.4540
 6278WAT      O25817   3.830   1.623   6.852 -0.5090  0.0797  0.4287
 6278WAT     H125818   3.808   1.694   6.898 -1.5916  0.5028 -0.6484
 6278WAT     H225819   3.856   1.566   6.912  0.2752  1.3403  1.3441
 6278WAT    EPW25820   3.830   1.625   6.867 -0.1835 -0.1095  0.1840
 6279WAT      O25821   5.172   4.257   7.570  0.0051 -0.6432 -0.0343
 6279WAT     H125822   5.171   4.264   7.657  1.9749 -0.5918  0.0378
 6279WAT     H225823   5.123   4.186   7.555  0.5306 -1.3041  1.2183
 6279WAT    EPW25824   5.165   4.247   7.581  0.3506  0.5698 -1.0707
 6280WAT      O25825   5.434   4.583   0.574  0.3319  0.2124  0.5002
 6280WAT     H125826   5.444   4.661   0.612  1.7253 -0.2153  1.0877
 6280WAT     H225827   5.350   4.582   0.549  0.1916  1.7226  0.8514
 6280WAT    EPW25828   5.423   4.594   0.576  0.8471  0.3302  0.3736
 6281WAT      O25829   4.236   7.740   6.931  0.0488 -0.4937  0.7348
 6281WAT     H125830   4.195   7.671   6.966  0.9512 -1.4361  0.0136
 6281WAT     H225831   4.193   7.753   6.856 -1.6352  1.2784  1.8977
 6281WAT    EPW25832   4.224   7.732   6.925  0.1233 -0.4804  0.2042
 6282WAT      O25833   7.344   7.887   0.989  0.2640 -0.2649 -0.7702
 6282WAT     H125834   7.338   7.899   1.075 -0.9700  1.0805 -1.0093
 6282WAT     H225835   7.390   7.956   0.962  0.4682 -0.5746 -1.2268
 6282WAT    EPW25836   7.350   7.899   0.998  0.1712 -0.3250 -0.6644
 6283WAT      O25837   4.549   0.989   4.140  0.4598  0.1440 -0.1157
 6283WAT     H125838   4.555   0.904   4.159  0.8124  0.2174  0.1192
 6283WAT     H225839   4.568   1.028   4.216 -0.5297  0.4274 -0.0028
 6283WAT    EPW25840   4.553   0.982   4.154 -0.3529 -0.0436 -0.3888
 6284WAT      O25841   1.266   4.899   4.792  0.0615 -0.0424 -0.2097
 6284WAT     H125842   1.314   4.826   4.803 -0.8368 -0.8803 -1.5823
 6284WAT     H225843   1.264   4.909   4.705 -1.8064  0.2418 -0.1694
 6284WAT    EPW25844   1.273   4.890   4.781 -0.4296  0.3279 -0.4734
 6285WAT      O25845   3.037   4.939   6.614  0.7074  0.0811  0.2068
 6285WAT     H125846   3.091   4.872   6.605  0.2386 -0.1027 -1.8504
 6285WAT     H225847   3.047   4.983   6.539 -1.2075  0.6112  0.2110
 6285WAT    EPW25848   3.046   4.936   6.601 -0.1165  0.5122 -0.7556
 6286WAT      O25849   5.672   3.189   5.331  0.0489 -0.1252  0.6572
 6286WAT     H125850   5.644   3.259   5.376  0.4290  0.8835 -0.6284
 6286WAT     H225851   5.600   3.160   5.292  0.2084  0.6775 -0.2701
 6286WAT    EPW25852   5.657   3.195   5.332  0.4995  0.3769 -0.4095
 6287WAT      O25853   0.065   7.431   0.986  0.8194  0.3622  0.6890
 6287WAT     H125854   0.046   7.359   0.940 -2.5397  0.9343  0.9057
 6287WAT     H225855   0.036   7.412   1.066 -2.5123  2.6569  0.2145
 6287WAT    EPW25856   0.058   7.418   0.991 -0.4007  0.5165  0.6625
 6288WAT      O25857   5.031   5.718   7.692 -0.6448  0.0436 -0.9532
 6288WAT     H125858   5.009   5.781   7.749 -0.5769  0.4500 -1.3706
 6288WAT     H225859   4.991   5.743   7.618  0.1925  0.1254 -1.3884
 6288WAT    EPW25860   5.022   5.731   7.689  0.2183 -0.0495  0.5037
 6289WAT      O25861   3.906   1.703   0.548  0.2325 -0.5193 -0.7232
 6289WAT     H125862   3.855   1.725   0.616 -0.1191  0.2828 -1.2285
 6289WAT     H225863   3.858   1.645   0.505  0.4365 -0.9943 -0.3090
 6289WAT    EPW25864   3.891   1.698   0.552 -0.1431 -0.0071 -0.2017
 6290WAT      O25865   1.892   4.160   6.533  0.1041 -0.7889 -0.2409
 6290WAT     H125866   1.876   4.092   6.481  0.1366 -1.9810  1.2408
 6290WAT     H225867   1.977   4.176   6.520  0.5792 -2.2773  0.7380
 6290WAT    EPW25868   1.902   4.152   6.524  0.3295  0.4835 -0.3513
 6291WAT      O25869   6.674   5.080   4.887 -0.0950 -0.2305  0.4720
 6291WAT     H125870   6.715   5.141   4.935 -0.2452  0.2618 -0.0241
 6291WAT     H225871   6.721   5.074   4.815  1.0921 -2.1605  1.3118
 6291WAT    EPW25872   6.687   5.088   4.884  0.6221  0.1659 -0.4395
 6292WAT      O25873   2.018   5.846   2.095 -0.2822  0.1071 -0.1804
 6292WAT     H125874   2.100   5.842   2.065 -0.9207  2.5729 -2.5686
 6292WAT     H225875   1.993   5.762   2.096  1.8870 -0.6073 -0.4750
 6292WAT    EPW25876   2.026   5.833   2.091 -0.8188 -0.2318  0.0583
 6293WAT      O25877   5.268   4.328   0.356  0.1111 -0.2107  0.2785
 6293WAT     H125878   5.267   4.285   0.432  0.3230 -0.4949  0.1232
 6293WAT     H225879   5.342   4.374   0.360 -0.7367  1.1461  0.9899
 6293WAT    EPW25880   5.279   4.328   0.368 -0.3205 -0.4942 -0.7021
 6294WAT      O25881   4.085   0.102   7.902 -0.1232  0.4072  0.9345
 6294WAT     H125882   4.026   0.118   7.965 -0.4480  0.8982  0.5187
 6294WAT     H225883   4.127   0.177   7.894 -0.0304  0.3220  0.6179
 6294WAT    EPW25884   4.082   0.115   7.910 -0.1990  0.1799  0.2048
 6295WAT      O25885   5.011   3.927   3.851  0.1015 -0.1141  0.6451
 6295WAT     H125886   5.045   3.988   3.904  0.5155 -0.1405  0.4047
 6295WAT     H225887   4.929   3.956   3.838 -0.2784 -0.5226  1.9482
 6295WAT    EPW25888   5.004   3.940   3.857 -0.3633  0.1333 -0.4603
 6296WAT      O25889   0.173   6.693   4.078  0.4316 -0.1007  0.3019
 6296WAT     H125890   0.217   6.690   4.002  0.7748 -1.1983  0.5307
 6296WAT     H225891   0.089   6.690   4.053  0.4558  1.4364 -0.1049
 6296WAT    EPW25892   0.167   6.692   4.063  0.0545 -0.4969  0.1858
 6297WAT      O25893   5.253   0.883   4.379  0.2871 -0.0520 -0.4140
 6297WAT     H125894   5.305   0.897   4.310  0.5797  1.0560  0.0176
 6297WAT     H225895   5.222   0.802   4.365  1.6139 -0.4900 -1.0210
 6297WAT    EPW25896   5.256   0.873   4.367  0.6871  0.4103  0.0852
 6298WAT      O25897   2.400   4.935   3.118 -0.1746 -0.0350  0.5024
 6298WAT     H125898   2.405   4.864   3.169  0.9849  0.3144  0.9055
 6298WAT     H225899   2.440   4.910   3.045  0.9810  0.4369  0.9492
 6298WAT    EPW25900   2.406   4.921   3.115 -0.0791  0.1345  0.1097
 6299WAT      O25901   4.167   1.606   5.517  0.5787  0.1725  0.0869
 6299WAT     H125902   4.250   1.632   5.510  1.0440 -1.3655 -0.5817
 6299WAT     H225903   4.139   1.646   5.589  1.6773  1.2701 -0.0500
 6299WAT    EPW25904   4.175   1.616   5.526  0.3284 -0.2536  0.1874
 6300WAT      O25905   4.784   6.915   5.836 -0.1257  0.0747  0.5774
 6300WAT     H125906   4.837   6.870   5.889 -1.6740  0.4300  2.5439
 6300WAT     H225907   4.791   6.873   5.760 -0.2710 -2.5829  1.8940
 6300WAT    EPW25908   4.793   6.902   5.833 -0.2465 -0.3660 -0.5386
 6301WAT      O25909   6.537   6.674   1.460  0.9093  0.3290  0.2248
 6301WAT     H125910   6.621   6.651   1.452  0.9957  0.8876 -0.6281
 6301WAT     H225911   6.520   6.715   1.385 -0.8559 -2.0156 -0.7675
 6301WAT    EPW25912   6.547   6.677   1.448 -0.2826  0.4879  0.3351
 6302WAT      O25913   0.716   5.118   2.945 -0.2116 -0.2090  0.0754
 6302WAT     H125914   0.791   5.142   2.906  0.0209 -0.8219  0.1411
 6302WAT     H225915   0.698   5.186   2.996 -1.1604  1.1696 -1.9615
 6302WAT    EPW25916   0.725   5.132   2.947  0.9564  0.0320  0.7312
 6303WAT      O25917   5.788   5.174   6.775 -0.0598 -0.5718  0.0061
 6303WAT     H125918   5.767   5.169   6.860 -0.2824  0.5044  0.0243
 6303WAT     H225919   5.859   5.123   6.769  0.7415  0.3545  1.1097
 6303WAT    EPW25920   5.795   5.165   6.787 -0.2635 -0.6692  0.2278
 6304WAT      O25921   5.078   1.493   7.148  0.7009  0.7203  0.4588
 6304WAT     H125922   5.164   1.506   7.153  0.8527 -0.0031 -0.1598
 6304WAT     H225923   5.049   1.565   7.108  0.8551  1.4903  1.6741
 6304WAT    EPW25924   5.086   1.505   7.143 -0.4040 -0.3442 -0.1497
 6305WAT      O25925   3.587   7.348   4.952 -0.1491 -0.2313  0.1260
 6305WAT     H125926   3.614   7.430   4.937  0.4048 -0.7571 -2.0919
 6305WAT     H225927   3.637   7.300   4.899  0.7436 -2.2581  2.6163
 6305WAT    EPW25928   3.598   7.353   4.942  0.7358  0.0883  0.7321
 6306WAT      O25929   2.222   4.488   3.286 -0.0578  0.0517  0.5165
 6306WAT     H125930   2.197   4.428   3.227 -1.6808  0.1206  1.0987
 6306WAT     H225931   2.150   4.503   3.332  1.1878 -0.1088  2.6415
 6306WAT    EPW25932   2.208   4.481   3.284  0.0458 -0.2353  0.0984
 6307WAT      O25933   1.777   6.822   7.692  0.3305 -0.5401  0.4945
 6307WAT     H125934   1.849   6.796   7.734 -0.2534 -0.3883  1.6208
 6307WAT     H225935   1.807   6.850   7.615  1.5146 -0.1671  1.0680
 6307WAT    EPW25936   1.792   6.822   7.687 -0.1351 -0.1043 -0.6293
 6308WAT      O25937   3.513   0.268   1.069 -0.2040  0.3401 -0.0583
 6308WAT     H125938   3.480   0.330   1.121 -0.7073 -0.4850  0.6369
 6308WAT     H225939   3.554   0.214   1.125 -1.4202 -0.9923 -0.4037
 6308WAT    EPW25940   3.514   0.269   1.085 -0.8044 -0.2501  0.3635
 6309WAT      O25941   1.677   6.864   5.792  0.9198  0.3121  0.1273
 6309WAT     H125942   1.715   6.900   5.722 -1.5282  2.1938 -0.3624
 6309WAT     H225943   1.702   6.914   5.858  1.5384 -0.1715  0.2610
 6309WAT    EPW25944   1.686   6.877   5.791  0.1600 -0.6209 -0.1226
 6310WAT      O25945   3.495   4.368   7.881 -0.2149  0.7231  0.2743
 6310WAT     H125946   3.426   4.359   7.933 -0.3948  0.7970  0.0450
 6310WAT     H225947   3.463   4.404   7.809 -0.3399 -1.2069 -0.7065
 6310WAT    EPW25948   3.480   4.372   7.878  0.9204 -0.2173 -1.0748
 6311WAT      O25949   3.030   5.303   4.683 -0.5191 -0.1894  0.0524
 6311WAT     H125950   3.101   5.343   4.715  0.3027 -0.7626 -0.9941
 6311WAT     H225951   3.036   5.222   4.714 -0.0050 -0.5994 -1.0544
 6311WAT    EPW25952   3.041   5.297   4.692 -0.1838 -0.8131  0.2406
 6312WAT      O25953   2.471   5.524   0.465 -0.1256 -0.3036  0.4333
 6312WAT     H125954   2.403   5.575   0.481  1.2159  1.1727  1.7590
 6312WAT     H225955   2.451   5.449   0.505 -0.5856  0.4080  1.5713
 6312WAT    EPW25956   2.458   5.520   0.473 -0.5692 -0.3448  0.2330
 6313WAT      O25957   0.198   5.245   2.842 -0.7302  0.0237 -0.3704
 6313WAT     H125958   0.237   5.298   2.899 -1.7345 -0.5505  0.9173
 6313WAT     H225959   0.168   5.299   2.781  2.1818  0.4694 -1.5809
 6313WAT    EPW25960   0.199   5.261   2.841 -0.0734 -0.0070 -0.3610
 6314WAT      O25961   5.152   3.500   5.834 -0.0622  0.0151  0.2503
 6314WAT     H125962   5.087   3.445   5.817 -1.2216  0.8843  1.6752
 6314WAT     H225963   5.223   3.455   5.810 -1.0961 -1.3347 -0.4275
 6314WAT    EPW25964   5.153   3.485   5.828  0.4733 -0.1777 -0.3575
 6315WAT      O25965   3.597   4.508   6.481 -0.4638 -0.1353  0.1605
 6315WAT     H125966   3.599   4.550   6.557 -0.8541  0.7694 -0.3102
 6315WAT     H225967   3.669   4.537   6.440 -0.4778 -0.3036  0.0166
 6315WAT    EPW25968   3.608   4.519   6.486 -0.1730  0.3650  0.5877
 6316WAT      O25969   5.112   1.194   7.674 -0.2740  0.4793  0.1567
 6316WAT     H125970   5.165   1.131   7.644  0.8715  0.4421  2.0944
 6316WAT     H225971   5.043   1.150   7.703 -0.4095  0.3250 -0.3816
 6316WAT    EPW25972   5.110   1.178   7.674 -0.2652  0.5828 -0.1878
 6317WAT      O25973   5.791   5.329   7.074  0.5639 -0.4417  0.5653
 6317WAT     H125974   5.723   5.277   7.059 -1.4603  2.3605 -0.7252
 6317WAT     H225975   5.767   5.376   7.143  0.7610  1.2024 -0.4426
 6317WAT    EPW25976   5.778   5.328   7.082  0.0746 -0.1924 -0.6317
 6318WAT      O25977   3.910   6.191   2.599  0.6551 -0.3952  0.1501
 6318WAT     H125978   3.899   6.122   2.546 -0.7920  0.2723 -0.4545
 6318WAT     H225979   3.956   6.247   2.551  0.4786 -0.3188  0.0683
 6318WAT    EPW25980   3.915   6.189   2.584  0.3498 -0.3642  0.5544
 6319WAT      O25981   6.075   0.636   1.194 -0.2499  0.1976  0.4540
 6319WAT     H125982   6.126   0.667   1.131 -0.7215 -2.2739 -1.3082
 6319WAT     H225983   5.999   0.677   1.180 -0.1640  0.1507 -0.2017
 6319WAT    EPW25984   6.071   0.646   1.183 -0.4245 -0.2217 -0.4710
 6320WAT      O25985   3.770   6.940   7.674  0.6926 -0.5489  0.4982
 6320WAT     H125986   3.786   6.899   7.599  2.0263 -0.5675  0.7692
 6320WAT     H225987   3.699   6.900   7.705 -0.5182  0.1687 -1.2386
 6320WAT    EPW25988   3.762   6.928   7.668 -0.4642 -0.2570  0.2473
 6321WAT      O25989   5.699   6.470   7.067 -0.4327 -0.4749 -0.5580
 6321WAT     H125990   5.750   6.415   7.023  0.4191  0.3696 -0.6289
 6321WAT     H225991   5.683   6.427   7.142  0.2875 -0.7809 -0.5773
 6321WAT    EPW25992   5.704   6.455   7.072  0.0887 -0.0142 -0.3835
 6322WAT      O25993   7.931   1.310   2.700 -0.7093 -0.3991  0.0873
 6322WAT     H125994   7.930   1.339   2.617  0.0268 -1.2788 -0.2498
 6322WAT     H225995   7.991   1.247   2.698 -0.8345 -0.5652  1.2573
 6322WAT    EPW25996   7.939   1.305   2.687  0.0321  0.5781  0.0833
 6323WAT      O25997   0.040   4.835   2.804 -0.4282  0.2163 -0.0691
 6323WAT     H125998   0.109   4.870   2.844  1.1953 -2.8230  0.0674
 6323WAT     H225999  -0.007   4.801   2.869  0.0682 -1.1238 -0.3637
 6323WAT    EPW26000   0.044   4.835   2.820 -0.1852 -0.5291  0.6137
 6324WAT      O26001   3.095   3.681   6.571 -0.5440  0.2513 -0.2226
 6324WAT     H126002   3.139   3.685   6.647 -1.3003  1.1124  0.1883
 6324WAT     H226003   3.013   3.702   6.593 -0.9850 -0.4584 -1.1255
 6324WAT    EPW26004   3.090   3.685   6.586 -0.2484 -0.0210 -0.5312
 6325WAT      O26005   5.466   6.636   4.429 -0.3372 -0.5596 -0.2463
 6325WAT     H126006   5.459   6.715   4.392  2.2348 -0.6925 -1.2320
 6325WAT     H226007   5.384   6.608   4.435 -1.2760  1.9111 -0.4589
 6325WAT    EPW26008   5.453   6.644   4.425 -0.3587  0.2676  0.0665
 6326WAT      O26009   5.649   6.668   1.572  0.0393 -0.1970 -0.1259
 6326WAT     H126010   5.599   6.686   1.642  1.5061  0.8028  0.7180
 6326WAT     H226011   5.723   6.712   1.588  1.7877 -2.7438 -0.5948
 6326WAT    EPW26012   5.652   6.677   1.585  0.2088 -0.1320 -0.0483
 6327WAT      O26013   0.552   5.066   3.360 -0.2027 -0.1715 -0.2183
 6327WAT     H126014   0.517   5.020   3.295 -1.3048 -1.1590  1.0352
 6327WAT     H226015   0.627   5.024   3.377 -0.3461 -0.4434 -0.2562
 6327WAT    EPW26016   0.558   5.053   3.353  0.4541 -0.1424  0.1553
 6328WAT      O26017   3.084   0.451   4.380  0.1606 -0.1340  0.6147
 6328WAT     H126018   3.046   0.509   4.433 -0.7333  1.7327 -1.9130
 6328WAT     H226019   3.155   0.492   4.353 -0.2715 -0.3534 -0.9129
 6328WAT    EPW26020   3.089   0.465   4.384  0.2544  0.0153  0.1759
 6329WAT      O26021   6.934   4.205   2.647  0.5391 -0.2055  0.0642
 6329WAT     H126022   7.011   4.224   2.683  0.4878  1.7276 -0.7338
 6329WAT     H226023   6.885   4.274   2.666  0.3663  0.7323 -3.2252
 6329WAT    EPW26024   6.938   4.218   2.655 -0.4049  0.2891  0.1819
 6330WAT      O26025   4.697   7.692   0.207  0.6686 -0.5566  1.0322
 6330WAT     H126026   4.760   7.678   0.149  1.8281 -0.3027  2.1795
 6330WAT     H226027   4.728   7.756   0.257 -0.5200 -0.3969  1.6133
 6330WAT    EPW26028   4.711   7.699   0.206 -0.4394 -0.9371 -0.0428
 6331WAT      O26029   2.929   4.781   3.961  0.4134  0.1621 -0.4557
 6331WAT     H126030   2.884   4.718   3.920  0.7615  0.8323 -1.9326
 6331WAT     H226031   2.965   4.740   4.029 -0.0762 -1.0245 -0.8844
 6331WAT    EPW26032   2.927   4.766   3.965 -0.9445 -0.4301 -0.1145
 6332WAT      O26033   5.977   4.924   5.918  0.2161 -0.0937 -0.1960
 6332WAT     H126034   5.976   4.897   6.001  1.3231  1.2224  0.2910
 6332WAT     H226035   5.994   5.010   5.925  3.1906 -0.4068 -1.7942
 6332WAT    EPW26036   5.980   4.933   5.932 -0.2025  0.1718 -0.3333
 6333WAT      O26037   5.826   5.487   1.556 -0.5793 -0.0725 -0.1716
 6333WAT     H126038   5.847   5.530   1.628 -1.4613  1.0887 -0.5816
 6333WAT     H226039   5.900   5.488   1.509  0.0220 -0.9087  0.7181
 6333WAT    EPW26040   5.840   5.493   1.560 -0.9764  0.3036  0.1714
 6334WAT      O26041   7.014   3.296   3.608  0.0484 -0.3454  0.0385
 6334WAT     H126042   6.956   3.345   3.651 -1.5362 -2.1013  0.0087
 6334WAT     H226043   7.032   3.232   3.664  0.3129 -0.9751 -0.7522
 6334WAT    EPW26044   7.008   3.294   3.622  0.1183 -0.0253 -0.1395
 6335WAT      O26045   1.163   5.715   4.698  0.7425  0.4730  0.6919
 6335WAT     H126046   1.123   5.670   4.762  0.4261  0.4423  0.4775
 6335WAT     H226047   1.133   5.677   4.626  1.2964  0.3378  0.5263
 6335WAT    EPW26048   1.153   5.702   4.697 -0.1484 -0.1223  0.5599
 6336WAT      O26049   6.678   7.579   4.394 -0.4463  0.1874 -0.1929
 6336WAT     H126050   6.599   7.542   4.389 -0.6258  0.6187 -0.6227
 6336WAT     H226051   6.668   7.642   4.453 -0.4404  0.2726 -0.2817
 6336WAT    EPW26052   6.665   7.583   4.402  0.2934 -1.1407 -0.4212
 6337WAT      O26053   0.470   6.449   2.639  0.5988 -0.0211  0.2802
 6337WAT     H126054   0.499   6.481   2.563 -0.0738  0.1968  0.1101
 6337WAT     H226055   0.529   6.477   2.696 -0.0161  1.6382  0.1545
 6337WAT    EPW26056   0.483   6.458   2.636 -0.3572  0.2747  0.5031
 6338WAT      O26057   5.020   7.321   6.066  0.3667  0.4600  0.0335
 6338WAT     H126058   4.966   7.341   6.131 -1.0710 -0.3082 -0.8673
 6338WAT     H226059   4.966   7.293   6.002  1.8305 -0.4963 -0.8511
 6338WAT    EPW26060   5.004   7.320   6.066 -0.0580 -0.9336 -0.2744
 6339WAT      O26061   4.623   5.645   7.562 -0.3486  0.5037 -0.6418
 6339WAT     H126062   4.637   5.571   7.516 -0.1123  0.1599 -0.0254
 6339WAT     H226063   4.674   5.635   7.632 -0.9508  0.8854 -0.1432
 6339WAT    EPW26064   4.633   5.632   7.565 -0.1602 -0.0706  0.1147
 6340WAT      O26065   1.905   5.760   6.673  0.2394  0.1273  0.7071
 6340WAT     H126066   1.942   5.686   6.699  0.5600 -1.0589 -2.5975
 6340WAT     H226067   1.826   5.757   6.708  0.5288 -1.3854  1.2960
 6340WAT    EPW26068   1.899   5.749   6.682 -0.3481  0.0130 -0.2178
 6341WAT      O26069   5.599   6.471   3.554  0.1872 -0.2434  0.0633
 6341WAT     H126070   5.553   6.544   3.570 -0.5312 -1.0471  2.0589
 6341WAT     H226071   5.590   6.459   3.468 -2.2855  0.3518  0.1568
 6341WAT    EPW26072   5.591   6.480   3.544  0.2765  0.3408 -0.4037
 6342WAT      O26073   3.753   4.752   3.322 -0.4712 -0.4250  0.8658
 6342WAT     H126074   3.721   4.730   3.244  1.0240  1.4931 -0.3795
 6342WAT     H226075   3.767   4.674   3.361  1.8995 -1.7008 -2.1334
 6342WAT    EPW26076   3.750   4.737   3.316 -0.3962 -0.0572  0.2609
 6343WAT      O26077   4.386   6.131   2.482  0.8055  0.0621 -0.1194
 6343WAT     H126078   4.404   6.209   2.518 -0.5156  0.7023 -0.7551
 6343WAT     H226079   4.341   6.090   2.544  1.4575 -0.1867  0.1969
 6343WAT    EPW26080   4.382   6.137   2.496 -0.0285 -0.8192 -0.5582
 6344WAT      O26081   5.096   4.637   1.533 -0.6046 -0.4903 -0.1064
 6344WAT     H126082   5.139   4.623   1.458 -0.3252 -3.7729  0.5371
 6344WAT     H226083   5.157   4.630   1.594 -1.3239 -0.8302  0.5923
 6344WAT    EPW26084   5.111   4.634   1.531  0.0252 -0.1785  0.4735
 6345WAT      O26085   3.950   3.676   7.711 -0.1877 -0.0995 -0.2232
 6345WAT     H126086   3.911   3.755   7.712  0.2297  0.1258 -1.0173
 6345WAT     H226087   3.892   3.625   7.751 -0.5026  0.5951  0.2406
 6345WAT    EPW26088   3.936   3.680   7.717  0.1380 -0.2920 -0.0028
 6346WAT      O26089   0.441   5.982   4.855 -0.5145 -0.6110  0.3740
 6346WAT     H126090   0.358   5.971   4.878 -0.1935 -0.8300  1.5078
 6346WAT     H226091   0.436   6.025   4.780 -1.6402  0.5116  1.0525
 6346WAT    EPW26092   0.428   5.987   4.847 -0.3213  0.5354 -0.1461
 6347WAT      O26093   1.431   2.508   3.928  0.0421 -0.5928 -0.0901
 6347WAT     H126094   1.453   2.589   3.905  0.5152 -0.5888  0.3671
 6347WAT     H226095   1.461   2.459   3.863  0.6731 -0.4991  0.1184
 6347WAT    EPW26096   1.439   2.513   3.915  0.1689 -0.4739 -0.2540
 6348WAT      O26097   6.174   4.661   2.202  0.7375 -0.0003  0.3703
 6348WAT     H126098   6.121   4.609   2.247  0.1875  0.5396  0.3540
 6348WAT     H226099   6.154   4.644   2.119 -1.5201  2.2550  0.3314
 6348WAT    EPW26100   6.163   4.651   2.196  0.0968  0.0550 -0.7662
 6349WAT      O26101   4.603   6.769   0.189 -0.3066  0.1463  0.2583
 6349WAT     H126102   4.674   6.794   0.235 -1.5530 -1.7680  3.5653
 6349WAT     H226103   4.549   6.837   0.198 -0.1900  0.1701  0.8304
 6349WAT    EPW26104   4.606   6.783   0.197 -0.2183 -0.1116 -0.1586
 6350WAT      O26105   4.208   2.032   0.988 -0.0478 -0.1622  0.4213
 6350WAT     H126106   4.249   2.021   1.064  0.0133 -1.7099  0.1985
 6350WAT     H226107   4.175   2.112   0.994 -0.6116 -0.4739  2.3681
 6350WAT    EPW26108   4.209   2.042   1.000 -0.3400  0.0387 -0.2388
 6351WAT      O26109   2.215   6.222   5.786 -0.3963 -0.4847  0.2969
 6351WAT     H126110   2.168   6.184   5.723 -0.6073 -0.3390  0.3659
 6351WAT     H226111   2.155   6.258   5.838 -0.2037 -0.1566  0.2970
 6351WAT    EPW26112   2.199   6.221   5.784 -0.1403 -0.0193 -0.2286
 6352WAT      O26113   5.167   0.087   0.693 -0.3562  0.9719 -0.6866
 6352WAT     H126114   5.162   0.036   0.622  0.7309 -1.9862  1.2010
 6352WAT     H226115   5.239   0.133   0.680  0.9884 -1.0254 -0.6811
 6352WAT    EPW26116   5.177   0.086   0.680 -0.4249  0.2246 -0.5441
 6353WAT      O26117   3.619   2.005   5.211  0.3240 -0.0374  0.5918
 6353WAT     H126118   3.634   2.090   5.219 -0.8794  0.2170  0.3432
 6353WAT     H226119   3.697   1.969   5.224  1.0973  1.1712 -0.4641
 6353WAT    EPW26120   3.633   2.012   5.214 -0.0696  0.4565 -0.0035
 6354WAT      O26121   5.404   6.429   1.804  0.2818 -0.3656 -0.6393
 6354WAT     H126122   5.400   6.416   1.890 -1.6578  0.9808 -0.4621
 6354WAT     H226123   5.446   6.505   1.796 -0.8070  0.2362 -0.7704
 6354WAT    EPW26124   5.410   6.438   1.816  0.1998 -0.0997 -0.6710
 6355WAT      O26125   2.554   7.402   5.130 -0.7815  0.1654 -0.1272
 6355WAT     H126126   2.622   7.449   5.157 -1.2079  0.6759  0.0828
 6355WAT     H226127   2.523   7.367   5.203  0.0691 -1.1983 -0.3862
 6355WAT    EPW26128   2.559   7.404   5.144  0.1486 -0.5472  0.4413
 6356WAT      O26129   6.469   5.277   2.105  0.1928  0.2665 -0.1100
 6356WAT     H126130   6.432   5.229   2.168 -0.0148 -1.4282 -1.4245
 6356WAT     H226131   6.401   5.312   2.063 -0.0157 -1.9723 -1.8568
 6356WAT    EPW26132   6.454   5.275   2.108 -0.8996 -0.2425  0.0813
 6357WAT      O26133   7.400   5.012   1.328  0.0284 -0.1898 -0.1613
 6357WAT     H126134   7.446   4.955   1.374  0.8172  0.0796 -0.6029
 6357WAT     H226135   7.332   5.030   1.380  0.3059 -0.7550  0.4055
 6357WAT    EPW26136   7.396   5.006   1.343 -0.1309  0.3104 -0.0858
 6358WAT      O26137   1.030   5.421   0.877  0.0437 -0.1036  0.5662
 6358WAT     H126138   1.098   5.410   0.824 -1.3018 -1.2515 -1.0397
 6358WAT     H226139   1.062   5.403   0.956  1.6719 -0.2098 -0.0851
 6358WAT    EPW26140   1.044   5.417   0.881  0.2660 -0.2813 -0.4934
 6359WAT      O26141   7.282   2.285   4.721  0.1639 -0.9631 -0.1533
 6359WAT     H126142   7.232   2.348   4.687 -0.6452 -1.7585 -0.5062
 6359WAT     H226143   7.224   2.224   4.746  0.8793 -1.2853  0.7812
 6359WAT    EPW26144   7.266   2.285   4.720  0.2737 -0.3909  0.1967
 6360WAT      O26145   4.837   0.927   2.579  0.2223 -0.4608  0.0640
 6360WAT     H126146   4.755   0.949   2.601  0.8937  2.0827  0.3851
 6360WAT     H226147   4.866   0.882   2.647 -1.0239 -1.7947 -0.2479
 6360WAT    EPW26148   4.829   0.924   2.592  0.0768  0.0456 -0.6275
 6361WAT      O26149   1.692   3.401   2.403  0.2062  0.0718 -0.3074
 6361WAT     H126150   1.751   3.430   2.460 -0.7579  0.1176  0.6936
 6361WAT     H226151   1.711   3.444   2.330  0.8958  0.7066  0.2345
 6361WAT    EPW26152   1.703   3.412   2.401 -0.5276  0.7600  0.0719
 6362WAT      O26153   3.675   4.487   2.355 -0.1206  0.0905  0.1184
 6362WAT     H126154   3.649   4.510   2.275  0.9671  0.4937 -0.1333
 6362WAT     H226155   3.738   4.428   2.341 -0.1407 -0.0746  0.6860
 6362WAT    EPW26156   3.680   4.482   2.341  0.2158 -0.7933 -0.3812
 6363WAT      O26157   3.551   4.315   3.762 -0.1653 -0.0568  0.0429
 6363WAT     H126158   3.617   4.329   3.707 -0.2699 -0.5468 -0.2151
 6363WAT     H226159   3.494   4.268   3.715 -0.9481  0.8131  0.0823
 6363WAT    EPW26160   3.552   4.310   3.747 -0.0426  0.0194  0.3934
 6364WAT      O26161   1.478   6.367   5.363  0.3064  0.5950 -0.1915
 6364WAT     H126162   1.398   6.358   5.329  0.1602  1.9211 -0.2732
 6364WAT     H226163   1.466   6.349   5.448  0.5057 -1.9019 -0.6268
 6364WAT    EPW26164   1.464   6.363   5.371 -0.1526 -0.0222 -0.3470
 6365WAT      O26165   2.435   1.202   2.973 -0.2733  0.8063  0.1642
 6365WAT     H126166   2.381   1.171   2.911  0.1012  1.3784 -0.4652
 6365WAT     H226167   2.437   1.138   3.032  0.1670 -0.2107 -0.9029
 6365WAT    EPW26168   2.427   1.188   2.972  0.3586 -0.3242  0.5957
 6366WAT      O26169   6.340   0.349   3.292 -0.1531  0.0977  0.2863
 6366WAT     H126170   6.358   0.377   3.373  1.3840 -1.1267  0.4044
 6366WAT     H226171   6.254   0.362   3.285 -0.4437 -0.3413  2.3467
 6366WAT    EPW26172   6.330   0.355   3.303 -0.4868 -0.1482  0.1240
 6367WAT      O26173   1.706   6.999   4.421 -0.0863  0.6594 -0.3621
 6367WAT     H126174   1.768   6.974   4.365  0.9227  0.9999  0.5646
 6367WAT     H226175   1.666   6.925   4.443  1.3388  0.1326  0.5678
 6367WAT    EPW26176   1.709   6.985   4.416  0.3922 -0.2319  0.1191
 6368WAT      O26177   2.004   2.109   5.024  0.2999  0.0752 -0.6962
 6368WAT     H126178   1.972   2.095   4.943  2.0245 -2.0717 -1.1228
 6368WAT     H226179   1.976   2.039   5.068  1.0868  0.1943 -0.0012
 6368WAT    EPW26180   1.995   2.096   5.018 -0.2371  0.2148  0.0794
 6369WAT      O26181   2.702   3.247   4.265  0.0534 -0.6245 -0.0406
 6369WAT     H126182   2.710   3.333   4.278  0.2341 -0.9060  2.0606
 6369WAT     H226183   2.765   3.213   4.316  0.7380 -1.9812 -1.7152
 6369WAT    EPW26184   2.712   3.255   4.275  0.0915 -0.4468  0.0899
 6370WAT      O26185   2.694   0.280   3.123 -0.0946 -0.8854  0.2920
 6370WAT     H126186   2.656   0.274   3.201 -1.4305 -0.6305 -0.3196
 6370WAT     H226187   2.754   0.217   3.124 -0.4934 -1.2602  1.3026
 6370WAT    EPW26188   2.698   0.270   3.134 -0.1919  0.2758 -0.3535
 6371WAT      O26189   4.622   7.544   4.304 -0.1164  0.0988  0.2839
 6371WAT     H126190   4.631   7.470   4.350 -1.0424 -0.3280 -0.1830
 6371WAT     H226191   4.554   7.583   4.341  0.0969  0.5021  0.2499
 6371WAT    EPW26192   4.613   7.539   4.316 -0.2521 -0.1014  0.0016
 6372WAT      O26193   4.638   5.045   4.757  0.4341  0.1331  0.1244
 6372WAT     H126194   4.624   5.090   4.684  2.9408 -1.2291 -1.3143
 6372WAT     H226195   4.606   4.966   4.739  2.6682 -0.7422 -0.2947
 6372WAT    EPW26196   4.631   5.040   4.744 -0.0454 -0.3252  0.0846
 6373WAT      O26197   3.888   6.212   1.073 -0.0177  0.0104 -0.0197
 6373WAT     H126198   3.810   6.227   1.036 -0.3761  0.2910  0.8415
 6373WAT     H226199   3.943   6.221   1.006 -0.6255  0.8482 -0.4347
 6373WAT    EPW26200   3.884   6.216   1.057 -0.0048 -0.3087 -0.1130
 6374WAT      O26201   5.416   6.892   4.382  0.0807  0.0551  0.0977
 6374WAT     H126202   5.375   6.885   4.458  0.0526  1.2538  0.2093
 6374WAT     H226203   5.486   6.940   4.401  1.7691 -2.1771 -0.0181
 6374WAT    EPW26204   5.420   6.898   4.396  0.8205  0.0720 -0.3202
 6375WAT      O26205   2.004   5.053   2.243  0.4912 -0.1481 -0.1488
 6375WAT     H126206   2.001   5.110   2.177  3.2586 -0.2843 -0.4942
 6375WAT     H226207   1.934   5.003   2.230 -0.3712  1.3366 -1.5402
 6375WAT    EPW26208   1.993   5.054   2.232 -0.6440  0.2802 -0.2623
 6376WAT      O26209   2.203   5.463   7.833 -0.1436  0.8682  0.2473
 6376WAT     H126210   2.172   5.532   7.876 -2.4237 -1.2558  2.3619
 6376WAT     H226211   2.199   5.399   7.892 -1.5733 -1.8499 -2.5191
 6376WAT    EPW26212   2.198   5.464   7.848 -0.3156 -0.2648 -0.1505
 6377WAT      O26213   1.958   3.389   0.746 -0.4062 -0.4660  0.2011
 6377WAT     H126214   1.950   3.458   0.693 -0.8288 -1.6811 -1.4045
 6377WAT     H226215   1.903   3.407   0.811 -1.9599 -0.1203 -1.1367
 6377WAT    EPW26216   1.949   3.402   0.748 -0.4535 -0.5552 -0.3263
 6378WAT      O26217   6.781   0.103   3.454  0.1402  0.4668  0.4718
 6378WAT     H126218   6.699   0.131   3.442  0.1226  0.5368  0.7429
 6378WAT     H226219   6.824   0.133   3.384  0.1176  1.1485  0.7398
 6378WAT    EPW26220   6.775   0.112   3.442 -0.3411 -0.3563  0.0706
 6379WAT      O26221   3.164   6.206   2.829  0.2372  0.0307 -0.2094
 6379WAT     H126222   3.113   6.276   2.840 -0.6302 -0.7530  0.9505
 6379WAT     H226223   3.229   6.219   2.887  2.0033  1.5118 -2.3497
 6379WAT    EPW26224   3.166   6.218   2.839 -0.2051 -0.3827  0.2974
 6380WAT      O26225   3.422   4.693   0.203  0.2268  0.0908  0.5746
 6380WAT     H126226   3.491   4.642   0.185  0.6046  0.4911  0.8789
 6380WAT     H226227   3.371   4.684   0.133  0.0651 -1.0650  0.8070
 6380WAT    EPW26228   3.425   4.684   0.190 -0.3053  0.1258 -0.8981
 6381WAT      O26229   2.697   0.814   1.189  0.5178  0.6905 -0.5575
 6381WAT     H126230   2.761   0.864   1.221 -1.6342  2.1594  1.8384
 6381WAT     H226231   2.734   0.735   1.185  2.3993  1.3856  1.0406
 6381WAT    EPW26232   2.712   0.810   1.193  0.6500 -0.4157 -0.5170
 6382WAT      O26233   2.160   7.159   6.227 -0.3633  0.2820  0.9791
 6382WAT     H126234   2.096   7.120   6.272 -0.9091  1.6512  1.4426
 6382WAT     H226235   2.229   7.154   6.280 -0.0761 -1.1390  0.5054
 6382WAT    EPW26236   2.161   7.153   6.241  0.3703 -0.6139 -0.0422
 6383WAT      O26237   5.250   4.032   5.276  0.4493 -0.0132 -0.1949
 6383WAT     H126238   5.193   3.971   5.252  0.4586 -0.8562  1.7430
 6383WAT     H226239   5.324   4.010   5.234  0.2379 -0.8791 -0.1187
 6383WAT    EPW26240   5.253   4.020   5.266 -0.1905 -0.7102 -0.2219
 6384WAT      O26241   3.537   7.696   1.843 -0.0885 -0.2857 -0.5292
 6384WAT     H126242   3.609   7.650   1.859  0.1475 -0.2996 -1.5422
 6384WAT     H226243   3.498   7.701   1.920  1.2805  0.1997  0.1697
 6384WAT    EPW26244   3.542   7.690   1.857  0.0312  0.0400 -0.1514
 6385WAT      O26245   1.103   7.005   2.156 -0.1110 -0.2843  0.0449
 6385WAT     H126246   1.052   6.952   2.108  1.6411 -1.3683 -0.7140
 6385WAT     H226247   1.165   7.029   2.100  0.7108  0.2982  1.1739
 6385WAT    EPW26248   1.104   7.001   2.140 -0.1679  0.6429  0.0159
 6386WAT      O26249   3.836   6.759   3.385 -0.0990 -0.1318 -0.0238
 6386WAT     H126250   3.811   6.803   3.456 -0.1482  0.6583 -0.5233
 6386WAT     H226251   3.909   6.719   3.410 -1.0109 -1.2579  0.9984
 6386WAT    EPW26252   3.843   6.759   3.399  0.3469 -0.6154 -0.2371
 6387WAT      O26253   1.140   5.047   1.647 -0.0330  0.3040  0.3086
 6387WAT     H126254   1.161   4.966   1.625 -0.3178  1.0989 -3.5707
 6387WAT     H226255   1.054   5.050   1.635  0.1920  1.5481 -1.2760
 6387WAT    EPW26256   1.130   5.036   1.642 -0.0100  0.1521 -0.3154
 6388WAT      O26257   3.315   6.507   4.151  0.1350  0.6339  0.1781
 6388WAT     H126258   3.259   6.549   4.099  0.7374  0.1148 -0.9275
 6388WAT     H226259   3.337   6.437   4.105  1.5851  0.7487  0.6503
 6388WAT    EPW26260   3.310   6.503   4.137 -0.1102  0.1096  0.7203
 6389WAT      O26261   2.567   5.710   2.487 -0.8759  0.2569  0.1886
 6389WAT     H126262   2.548   5.787   2.451 -2.9695 -0.6791 -0.8619
 6389WAT     H226263   2.491   5.667   2.485  0.0113 -1.5232  1.5973
 6389WAT    EPW26264   2.553   5.715   2.482 -0.1304 -0.0861  0.0230
 6390WAT      O26265   2.501   4.049   6.493  0.0731  0.2609 -0.0484
 6390WAT     H126266   2.455   3.976   6.508  0.7136  0.2144  1.9659
 6390WAT     H226267   2.500   4.056   6.406 -1.9714 -0.8533 -0.1773
 6390WAT    EPW26268   2.494   4.039   6.482  0.2683  0.2660  0.2295
 6391WAT      O26269   5.800   7.350   3.363 -0.3080  0.2684  0.2722
 6391WAT     H126270   5.884   7.362   3.381  0.0838 -0.7252 -0.7392
 6391WAT     H226271   5.790   7.387   3.284 -0.5571 -0.5004 -0.0694
 6391WAT    EPW26272   5.811   7.357   3.354  0.5648  0.0599 -0.4634
 6392WAT      O26273   4.692   6.256   0.525 -0.1862  0.7417  0.0415
 6392WAT     H126274   4.699   6.307   0.596  1.1177 -0.0692  0.5321
 6392WAT     H226275   4.740   6.298   0.465  0.1450  0.5601  0.1749
 6392WAT    EPW26276   4.700   6.270   0.527  0.1676  0.3365  0.6239
 6393WAT      O26277   5.015   5.379   2.995  0.0130  0.1299  0.1500
 6393WAT     H126278   5.093   5.357   2.964 -0.6952 -0.9313 -0.9778
 6393WAT     H226279   4.992   5.447   2.945  0.0707  0.2185  0.2444
 6393WAT    EPW26280   5.023   5.386   2.983 -0.9900  0.2084 -0.5909
 6394WAT      O26281   2.382   5.207   1.346  0.2778  0.2293  0.1961
 6394WAT     H126282   2.393   5.122   1.330 -1.1897 -0.3144  1.7890
 6394WAT     H226283   2.457   5.242   1.319  0.0439 -1.2096 -2.6575
 6394WAT    EPW26284   2.395   5.200   1.340  0.7641  0.3425  0.2110
 6395WAT      O26285   4.478   1.353   1.756  0.4165  0.2505  0.3457
 6395WAT     H126286   4.520   1.315   1.822  0.7621 -2.2326 -1.1769
 6395WAT     H226287   4.424   1.291   1.727 -0.6249  1.6745 -0.9448
 6395WAT    EPW26288   4.477   1.339   1.761  0.8879  0.1595 -0.8607
 6396WAT      O26289   2.089   8.060   4.234 -0.0826 -0.4239 -0.3101
 6396WAT     H126290   2.060   8.067   4.152  1.2101 -0.4055 -0.7815
 6396WAT     H226291   2.087   7.974   4.249 -1.3275 -0.3542  0.0370
 6396WAT    EPW26292   2.084   8.048   4.224  0.3544  0.4791 -0.0361
 6397WAT      O26293   8.078   5.368   2.085 -0.7630  0.7601  0.8698
 6397WAT     H126294   8.151   5.407   2.057  0.5929 -2.1782 -0.0430
 6397WAT     H226295   8.015   5.422   2.059  0.7879  1.0235 -2.9255
 6397WAT    EPW26296   8.079   5.382   2.077  0.2136 -0.1455  0.2533
 6398WAT      O26297   7.078   1.178   3.147  0.1413  0.7397 -0.2228
 6398WAT     H126298   7.143   1.159   3.091  0.6783 -0.7606  0.8557
 6398WAT     H226299   7.049   1.100   3.172 -1.8153  1.3771 -0.3267
 6398WAT    EPW26300   7.084   1.164   3.142 -0.3260  0.4000 -0.4894
 6399WAT      O26301   6.514   7.991   4.333  0.3090 -0.1326  0.0171
 6399WAT     H126302   6.444   7.945   4.358 -1.1234  2.3233  0.9188
 6399WAT     H226303   6.577   7.963   4.386  0.4579 -3.2540 -1.5928
 6399WAT    EPW26304   6.513   7.980   4.345  0.2421  0.2504 -0.1980
 6400WAT      O26305   3.863   2.126   7.956  1.0773 -0.2705 -0.0047
 6400WAT     H126306   3.836   2.057   8.003 -0.7546  0.0476 -0.5207
 6400WAT     H226307   3.842   2.194   8.006  0.6710  0.0006 -0.5359
 6400WAT    EPW26308   3.856   2.126   7.971  0.6053 -0.4837  0.4643
 6401WAT      O26309   4.483   6.071   7.598 -0.0085 -0.6098  0.2586
 6401WAT     H126310   4.502   6.074   7.682 -0.0230  0.2052  0.2411
 6401WAT     H226311   4.483   6.155   7.573  2.2939 -0.9286 -1.0775
 6401WAT    EPW26312   4.486   6.084   7.606 -0.5226 -0.1455 -0.1644
 6402WAT      O26313   3.341   6.252   4.878 -0.4943  0.3897  0.1307
 6402WAT     H126314   3.409   6.231   4.827 -0.3274  2.0689 -0.3878
 6402WAT     H226315   3.339   6.187   4.937  0.2943 -0.7503 -1.0395
 6402WAT    EPW26316   3.351   6.239   4.879  0.0668 -0.1842  0.3516
 6403WAT      O26317   5.871   0.229   6.256 -0.7035  0.0485  0.2589
 6403WAT     H126318   5.911   0.279   6.315 -1.0798  0.0246  0.5309
 6403WAT     H226319   5.819   0.285   6.213  0.7789  0.4167 -1.1693
 6403WAT    EPW26320   5.869   0.245   6.258  0.1898  0.5111  0.0875
 6404WAT      O26321   8.007   0.596   3.163 -0.9547 -0.1096 -0.6352
 6404WAT     H126322   7.950   0.532   3.145 -0.7204 -0.5039  0.0076
 6404WAT     H226323   8.008   0.643   3.089 -2.2320  0.0045 -0.6108
 6404WAT    EPW26324   7.999   0.594   3.149 -0.3471 -0.2404  0.7580
 6405WAT      O26325   3.635   4.200   7.296 -0.4749  0.6058  0.3496
 6405WAT     H126326   3.666   4.281   7.293 -0.1727  0.5079  0.6886
 6405WAT     H226327   3.549   4.210   7.300 -0.5321  0.8747 -1.1497
 6405WAT    EPW26328   3.627   4.213   7.296  0.0881  0.2425  0.2788
 6406WAT      O26329   5.000   7.085   2.364 -0.0603 -0.4591 -0.3700
 6406WAT     H126330   4.999   7.123   2.286 -0.1332  1.0680  0.3273
 6406WAT     H226331   5.069   7.122   2.403 -0.6287 -0.4287  0.6374
 6406WAT    EPW26332   5.010   7.096   2.359  0.0236  0.4216 -0.2564
 6407WAT      O26333   1.340   0.586   3.825 -0.3846 -0.4798  0.0313
 6407WAT     H126334   1.284   0.572   3.760 -0.7420  0.2811  0.1706
 6407WAT     H226335   1.291   0.621   3.888  0.5210  2.0213 -0.5282
 6407WAT    EPW26336   1.325   0.589   3.825  0.2380 -0.4371 -0.1774
 6408WAT      O26337   3.048   6.971   1.528 -0.1131 -0.1907  0.5003
 6408WAT     H126338   3.077   7.043   1.567 -0.9156 -0.6668  2.0733
 6408WAT     H226339   2.968   6.992   1.501  0.2193 -0.0441 -0.3903
 6408WAT    EPW26340   3.040   6.985   1.530  0.4830  0.8697  0.4122
 6409WAT      O26341   6.246   6.908   3.369 -0.4919  0.0475  0.2505
 6409WAT     H126342   6.268   6.971   3.313 -1.4081 -0.3170 -0.5495
 6409WAT     H226343   6.243   6.837   3.319  1.4133 -0.8544  1.2988
 6409WAT    EPW26344   6.249   6.907   3.353 -0.6260  0.0003 -0.0873
 6410WAT      O26345   3.811   1.642   3.884  0.4910  0.4246 -0.4325
 6410WAT     H126346   3.863   1.571   3.882 -1.1991 -0.8550 -0.8541
 6410WAT     H226347   3.768   1.638   3.809 -2.7239 -0.5831  1.2821
 6410WAT    EPW26348   3.813   1.631   3.873 -0.1634 -0.7193 -0.6987
 6411WAT      O26349   2.600   6.459   5.004  0.2167  0.6120  0.2726
 6411WAT     H126350   2.584   6.543   4.984 -0.8165  0.1675 -0.9704
 6411WAT     H226351   2.686   6.452   4.999  0.2109  1.2453 -1.2923
 6411WAT    EPW26352   2.610   6.470   5.000  0.1505 -0.3124 -0.1992
 6412WAT      O26353   3.328   1.336   5.961 -0.0200  0.0254  0.2176
 6412WAT     H126354   3.267   1.336   6.023 -0.7310 -0.6762 -0.4765
 6412WAT     H226355   3.322   1.416   5.926 -0.4595 -0.0099  0.2192
 6412WAT    EPW26356   3.318   1.348   5.965 -0.1949 -0.9557 -0.4539
 6413WAT      O26357   6.400   7.115   4.009 -0.4357  0.0537  0.1861
 6413WAT     H126358   6.424   7.193   3.978 -0.3641  0.4325  1.1510
 6413WAT     H226359   6.454   7.102   4.076 -1.0364 -0.4091  0.5947
 6413WAT    EPW26360   6.411   7.125   4.015 -0.1299  0.7871 -0.1351
 6414WAT      O26361   2.898   2.158   3.166 -0.0256  0.5221 -0.4601
 6414WAT     H126362   2.882   2.155   3.080  1.1851  0.6631 -0.7099
 6414WAT     H226363   2.898   2.243   3.184  0.0151  0.5051 -0.3787
 6414WAT    EPW26364   2.896   2.170   3.156  0.3134 -0.5718  0.6054
 6415WAT      O26365   5.193   3.815   6.181 -0.1989  0.1792  0.1947
 6415WAT     H126366   5.168   3.814   6.097 -0.7424 -0.2350  0.3578
 6415WAT     H226367   5.242   3.743   6.188 -0.4250  0.0398  0.3186
 6415WAT    EPW26368   5.197   3.805   6.169 -0.6418  0.7673  0.0135
 6416WAT      O26369   5.785   3.570   3.412  0.1426  0.4149  0.0227
 6416WAT     H126370   5.741   3.617   3.471  1.4643  1.5181  0.1962
 6416WAT     H226371   5.803   3.628   3.349 -1.3432 -0.7572 -1.5857
 6416WAT    EPW26372   5.781   3.586   3.411 -0.8685 -0.0191 -0.1177
 6417WAT      O26373   0.102   5.363   2.592 -0.4031 -0.1077 -0.4074
 6417WAT     H126374   0.086   5.320   2.518 -0.7739  1.9864 -1.6283
 6417WAT     H226375   0.139   5.438   2.565 -0.2836  0.6028  1.5453
 6417WAT    EPW26376   0.105   5.368   2.577  0.1840 -0.0839 -0.1813
 6418WAT      O26377   4.557   6.148   2.252  0.1642 -0.4864 -0.0545
 6418WAT     H126378   4.565   6.234   2.239  0.9804 -0.5710 -0.2217
 6418WAT     H226379   4.488   6.141   2.304  0.7475  0.3655  0.8839
 6418WAT    EPW26380   4.548   6.160   2.258 -0.4798 -0.0908 -0.9742
 6419WAT      O26381   5.035   7.163   6.905  0.0011 -0.5855  0.2466
 6419WAT     H126382   4.982   7.207   6.851  2.2711  0.7804 -1.0421
 6419WAT     H226383   5.017   7.196   6.983  0.3623  1.4266 -0.4545
 6419WAT    EPW26384   5.025   7.174   6.908  0.7011  0.4424  0.3978
 6420WAT      O26385   1.626   7.426   1.227 -0.5233 -0.1564 -0.0424
 6420WAT     H126386   1.629   7.464   1.305 -0.5499 -1.4989  0.6434
 6420WAT     H226387   1.568   7.362   1.237 -0.4739 -0.4014 -1.1519
 6420WAT    EPW26388   1.618   7.422   1.240 -0.1393 -0.3873 -0.7504
 6421WAT      O26389   5.409   5.061   3.220  0.3104  0.1021 -0.7246
 6421WAT     H126390   5.364   5.121   3.176  0.8468 -0.5812 -2.2691
 6421WAT     H226391   5.346   5.015   3.260 -0.2409  0.3256 -1.3165
 6421WAT    EPW26392   5.393   5.063   3.219  0.3217  0.3761 -0.0551
 6422WAT      O26393   1.104   5.981   3.745  0.1472  0.2972  0.0446
 6422WAT     H126394   1.153   5.915   3.775  0.7360  0.5889 -0.2620
 6422WAT     H226395   1.056   6.004   3.814  0.1073 -0.3017  0.2184
 6422WAT    EPW26396   1.104   5.975   3.760  1.0289 -0.2667  0.2282
 6423WAT      O26397   1.284   6.184   3.783 -0.0694 -0.4825  0.0696
 6423WAT     H126398   1.317   6.158   3.860 -0.5566 -1.1809  0.0576
 6423WAT     H226399   1.221   6.126   3.768 -2.2797  1.6054  0.7602
 6423WAT    EPW26400   1.280   6.171   3.792 -0.2518  0.3981 -0.1535
 6424WAT      O26401   5.026   6.514   1.456 -0.2886  0.2026  0.1846
 6424WAT     H126402   5.048   6.495   1.374  0.6710 -1.3398  0.7572
 6424WAT     H226403   4.966   6.454   1.477  2.8412 -2.6272  2.0435
 6424WAT    EPW26404   5.020   6.503   1.447 -0.4107  0.0837 -0.0482
 6425WAT      O26405   3.221   0.570   7.352  0.3159  0.1132 -0.4369
 6425WAT     H126406   3.147   0.609   7.377 -1.2800 -3.3275  0.9708
 6425WAT     H226407   3.273   0.578   7.422  0.9521  1.6983 -1.0639
 6425WAT    EPW26408   3.217   0.577   7.366 -0.6623 -0.2456 -0.1601
 6426WAT      O26409   5.417   5.965   3.973 -0.1321  0.0723 -0.1236
 6426WAT     H126410   5.430   6.050   3.955 -0.1131 -0.1802 -1.3726
 6426WAT     H226411   5.473   5.949   4.038  0.8021  0.7131 -0.7447
 6426WAT    EPW26412   5.427   5.975   3.980  0.3998  0.0528 -0.7450
 6427WAT      O26413   7.037   5.174   1.025 -0.1075  0.2442  0.2466
 6427WAT     H126414   6.998   5.129   0.961  2.3202 -1.3437 -0.2605
 6427WAT     H226415   7.012   5.132   1.098 -1.4605  0.9508  0.2095
 6427WAT    EPW26416   7.028   5.161   1.026 -0.0680 -0.2603  0.5233
 6428WAT      O26417   3.370   4.483   2.158  0.5990 -0.0841  0.7888
 6428WAT     H126418   3.321   4.494   2.087  0.4262  0.6409  1.0091
 6428WAT     H226419   3.440   4.533   2.142  1.7671 -1.8728  0.0400
 6428WAT    EPW26420   3.373   4.492   2.145  0.2000  0.4978  0.1506
 6429WAT      O26421   3.577   1.547   3.194  0.5215 -0.5045  0.5547
 6429WAT     H126422   3.560   1.471   3.233  1.9742 -0.8488  0.5695
 6429WAT     H226423   3.595   1.525   3.111 -0.2632 -0.0364  0.2527
 6429WAT    EPW26424   3.577   1.533   3.187  0.4877 -0.6140 -0.0314
 6430WAT      O26425   3.166   6.525   0.878  0.7458  0.1073  0.1902
 6430WAT     H126426   3.185   6.593   0.826  0.7725 -0.3854 -0.4676
 6430WAT     H226427   3.242   6.483   0.886  0.2855 -1.1433 -1.3757
 6430WAT    EPW26428   3.180   6.529   0.871 -0.0410 -0.0594 -0.3427
 6431WAT      O26429   4.288   5.825   3.259 -0.3995 -0.3046  0.4985
 6431WAT     H126430   4.263   5.881   3.198 -0.9837 -0.9415  0.1447
 6431WAT     H226431   4.236   5.844   3.327 -0.2195 -0.0585  0.5706
 6431WAT    EPW26432   4.277   5.836   3.260 -0.0202  0.0195  0.7380
 6432WAT      O26433   7.230   3.467   4.536 -0.0577 -0.0108 -0.1786
 6432WAT     H126434   7.254   3.384   4.550  0.6381 -0.0442 -1.4401
 6432WAT     H226435   7.191   3.464   4.458 -1.6384  0.5622  0.5438
 6432WAT    EPW26436   7.227   3.454   4.527 -0.5691  0.2740  0.5702
 6433WAT      O26437   5.068   6.605   4.906 -0.3864 -0.0369 -0.5487
 6433WAT     H126438   4.999   6.559   4.936  0.7674 -2.2411 -1.0407
 6433WAT     H226439   5.087   6.658   4.972 -1.2141 -0.9818  0.4935
 6433WAT    EPW26440   5.060   6.606   4.920 -0.4686 -0.5602 -0.2861
 6434WAT      O26441   3.539   6.912   2.806 -0.2252  0.2558 -0.1471
 6434WAT     H126442   3.512   6.829   2.816 -1.8225  0.7344 -0.2254
 6434WAT     H226443   3.607   6.917   2.861  0.6000 -1.3937 -0.9370
 6434WAT    EPW26444   3.545   6.900   2.816 -0.1317 -0.9919  0.0925
 6435WAT      O26445   5.943   1.924   5.132  0.2219 -0.1904  0.1548
 6435WAT     H126446   5.866   1.899   5.100 -0.3495  1.1139  0.4702
 6435WAT     H226447   5.923   1.982   5.193  1.4567  0.1121  0.3120
 6435WAT    EPW26448   5.929   1.929   5.136  0.2087  0.7540  0.2901
 6436WAT      O26449   7.637   1.373   2.036 -0.7030  0.0378  0.3051
 6436WAT     H126450   7.646   1.297   1.996 -0.9536 -0.5258  1.2946
 6436WAT     H226451   7.569   1.361   2.089 -0.3837  0.7660  0.8970
 6436WAT    EPW26452   7.628   1.360   2.038  0.0033 -0.6026 -0.1026
 6437WAT      O26453   3.067   0.051   3.436  0.1991  0.1457 -0.0057
 6437WAT     H126454   3.099   0.068   3.357 -2.4165 -0.4933 -1.3085
 6437WAT     H226455   3.134   0.012   3.478  2.1539  1.9407 -1.2815
 6437WAT    EPW26456   3.082   0.047   3.431  0.0895 -0.0858  0.1349
 6438WAT      O26457   3.511   6.895   2.436  0.5341  0.3043  0.1122
 6438WAT     H126458   3.489   6.829   2.490  0.3476 -0.9352 -1.4225
 6438WAT     H226459   3.438   6.910   2.391  0.6210  1.5008  0.3283
 6438WAT    EPW26460   3.497   6.888   2.438  0.3968 -0.3056  0.1703
 6439WAT      O26461   4.308   4.804   4.239  0.2251 -0.6558 -0.1947
 6439WAT     H126462   4.346   4.795   4.318 -0.9266 -1.1255  0.3272
 6439WAT     H226463   4.278   4.885   4.240 -0.9593 -1.0744  0.4146
 6439WAT    EPW26464   4.309   4.814   4.251  0.6146 -0.2277 -0.2371
 6440WAT      O26465   6.138   4.722   4.449  0.5392  0.6217 -0.0803
 6440WAT     H126466   6.104   4.801   4.466 -0.9243 -0.6057  4.1304
 6440WAT     H226467   6.072   4.679   4.411 -0.1306  0.4196  1.2219
 6440WAT    EPW26468   6.123   4.727   4.446 -0.1977  0.2759  0.2057
 6441WAT      O26469   2.354   4.624   5.029 -0.2737  0.1954  0.3177
 6441WAT     H126470   2.326   4.570   5.092  1.3368 -2.1488 -0.8441
 6441WAT     H226471   2.426   4.660   5.063  0.3384 -0.7257  0.0490
 6441WAT    EPW26472   2.360   4.621   5.043  0.3196  0.1727 -0.4167
 6442WAT      O26473   5.193   5.779   0.361 -0.3443  0.0862 -0.3554
 6442WAT     H126474   5.237   5.715   0.401  1.3524  0.8539 -0.9125
 6442WAT     H226475   5.210   5.849   0.409 -2.4479  0.1191  0.4307
 6442WAT    EPW26476   5.202   5.780   0.374  0.2001  0.6122 -0.6828
 6443WAT      O26477   5.084   5.771   6.790 -0.3394  0.1925  0.6875
 6443WAT     H126478   5.038   5.752   6.718 -2.7595  0.5776  2.0422
 6443WAT     H226479   5.146   5.824   6.761 -1.1535  0.2219 -1.1444
 6443WAT    EPW26480   5.086   5.776   6.775 -0.0498 -0.0634 -0.4429
 6444WAT      O26481   1.710   2.907   3.958  0.3550 -0.1681 -0.1519
 6444WAT     H126482   1.794   2.900   3.935  0.2230 -2.1111 -0.2254
 6444WAT     H226483   1.713   2.904   4.046  0.2489 -3.9511 -0.1142
 6444WAT    EPW26484   1.723   2.905   3.968  0.0930 -0.6492 -0.1982
 6445WAT      O26485   6.033   3.635   1.842 -0.8828 -0.1517 -0.3103
 6445WAT     H126486   5.972   3.618   1.782 -1.7185  0.5675  0.3053
 6445WAT     H226487   6.001   3.705   1.884 -0.5367 -0.8721  1.2386
 6445WAT    EPW26488   6.019   3.643   1.839  0.7055  0.0416  0.0343
 6446WAT      O26489   3.012   6.384   3.717 -0.1356  0.7601  0.2389
 6446WAT     H126490   2.999   6.470   3.723  0.6391  0.8384  0.9835
 6446WAT     H226491   3.090   6.372   3.754 -0.5620 -0.3643  0.8413
 6446WAT    EPW26492   3.022   6.395   3.723  0.2669  0.0065  0.1164
 6447WAT      O26493   5.603   0.230   6.603  0.1825  0.0597 -0.5190
 6447WAT     H126494   5.586   0.282   6.535  0.5506 -0.3879 -0.9677
 6447WAT     H226495   5.546   0.165   6.593  0.9684 -0.5710 -1.0496
 6447WAT    EPW26496   5.592   0.228   6.591  0.3994  0.1893  0.0197
 6448WAT      O26497   5.649   1.429   3.411  0.0200 -0.2609  0.1837
 6448WAT     H126498   5.571   1.454   3.383 -0.6545 -0.3701  1.8398
 6448WAT     H226499   5.640   1.343   3.423  0.3397 -0.2540  0.4983
 6448WAT    EPW26500   5.636   1.420   3.409 -0.2605 -0.0459  0.0886
 6449WAT      O26501   6.083   5.818   1.371  0.4957  0.0970 -0.2306
 6449WAT     H126502   6.089   5.814   1.458  0.2505 -0.6072 -0.2345
 6449WAT     H226503   6.164   5.802   1.344  0.4591 -0.2582 -0.1368
 6449WAT    EPW26504   6.096   5.815   1.380  0.4231 -0.2607 -0.3417
 6450WAT      O26505   3.115   6.640   3.974 -0.5261 -0.3243  0.6140
 6450WAT     H126506   3.146   6.632   3.893  0.4263 -2.3674  1.1090
 6450WAT     H226507   3.029   6.634   3.964 -0.4118 -0.6912 -0.2505
 6450WAT    EPW26508   3.107   6.638   3.961 -0.1359 -0.5371 -0.4608
 6451WAT      O26509   4.446   5.184   4.917 -0.1919  0.3248  0.5189
 6451WAT     H126510   4.406   5.108   4.929 -2.2587  0.6293 -3.0689
 6451WAT     H226511   4.516   5.163   4.869  0.3311  0.4965  1.1960
 6451WAT    EPW26512   4.451   5.170   4.911 -0.0809 -0.1232 -0.2748
 6452WAT      O26513   5.556   1.864   3.866  0.1840  0.6040 -0.1529
 6452WAT     H126514   5.554   1.795   3.812  2.7600 -0.8158  1.3865
 6452WAT     H226515   5.617   1.915   3.832 -0.5901  1.3753 -0.4076
 6452WAT    EPW26516   5.565   1.861   3.853 -0.0842  0.3137  0.2148
 6453WAT      O26517   1.188   3.186   2.450  0.1106  0.0494  0.0890
 6453WAT     H126518   1.263   3.216   2.481  0.3381  0.0872 -0.4940
 6453WAT     H226519   1.191   3.206   2.365 -0.6860  0.3259  0.1157
 6453WAT    EPW26520   1.199   3.193   2.442  0.2475 -0.7714 -0.0868
 6454WAT      O26521   4.415   1.740   0.425  0.0607 -0.0257  0.5449
 6454WAT     H126522   4.365   1.795   0.380  0.7253 -0.9761 -1.4955
 6454WAT     H226523   4.376   1.734   0.502 -2.8850 -0.5811 -0.8757
 6454WAT    EPW26524   4.402   1.747   0.430  0.3993 -0.6133  0.2331
 6455WAT      O26525   0.200   0.455   2.734  0.0849 -1.0355  0.5218
 6455WAT     H126526   0.250   0.494   2.795  1.6256 -0.5055 -1.0043
 6455WAT     H226527   0.256   0.436   2.671 -1.3334 -2.3230 -0.4126
 6455WAT    EPW26528   0.216   0.458   2.734  0.4979 -0.2083 -0.0876
 6456WAT      O26529   4.054   6.019   4.500 -0.0344 -0.1625  0.2755
 6456WAT     H126530   3.967   6.014   4.507 -0.0788  0.9571  0.5960
 6456WAT     H226531   4.066   6.055   4.421  0.1166  0.3552  0.5333
 6456WAT    EPW26532   4.043   6.023   4.489  0.2585  0.2355  0.1966
 6457WAT      O26533   3.505  -0.008   2.770  0.2515 -0.2009 -0.5776
 6457WAT     H126534   3.550  -0.018   2.844 -0.3549  0.4712 -0.1077
 6457WAT     H226535   3.553   0.049   2.725  0.8358 -0.9223 -0.8929
 6457WAT    EPW26536   3.519  -0.001   2.775  0.3077 -0.2506  0.1716
 6458WAT      O26537   3.707   8.048   0.837 -0.3608  0.1004  0.0892
 6458WAT     H126538   3.756   8.052   0.909 -1.9973 -1.7003  1.4005
 6458WAT     H226539   3.690   7.963   0.828 -1.8313  0.4877 -1.2735
 6458WAT    EPW26540   3.712   8.036   0.846 -0.1488 -0.0998 -0.2308
 6459WAT      O26541   3.632   4.336   0.800  0.1702 -0.5798 -0.1967
 6459WAT     H126542   3.638   4.257   0.836  0.0779 -0.5635 -0.1458
 6459WAT     H226543   3.564   4.327   0.745  0.7272 -0.8041 -0.8676
 6459WAT    EPW26544   3.623   4.323   0.797 -0.2596  0.0273  0.4899
 6460WAT      O26545   5.635   1.351   6.990 -0.1584  0.1552  0.2853
 6460WAT     H126546   5.711   1.373   6.953 -0.4267 -0.0219 -0.4043
 6460WAT     H226547   5.636   1.393   7.066  0.7639 -0.0883  0.4208
 6460WAT    EPW26548   5.646   1.360   6.996 -0.1068 -0.1951 -0.1918
 6461WAT      O26549   4.689   6.072   5.312  0.2287 -0.0887  0.3470
 6461WAT     H126550   4.757   6.018   5.315  1.3009  1.2123  2.7448
 6461WAT     H226551   4.725   6.151   5.316 -1.3484  0.6456  2.8169
 6461WAT    EPW26552   4.704   6.076   5.313  0.6383 -0.3703 -0.1004
 6462WAT      O26553   2.856   1.737   3.150  0.2767  0.2845  0.4931
 6462WAT     H126554   2.769   1.742   3.162  0.1887  0.1021 -0.0319
 6462WAT     H226555   2.887   1.804   3.196 -0.3467  1.8721 -1.2945
 6462WAT    EPW26556   2.848   1.747   3.158  0.1139  0.2920  0.2345
 6463WAT      O26557   4.695   6.346   3.089 -0.1221  0.1208 -0.1074
 6463WAT     H126558   4.718   6.417   3.044 -2.7636  1.4746  0.4356
 6463WAT     H226559   4.711   6.281   3.033  1.1487  1.2473 -1.1396
 6463WAT    EPW26560   4.700   6.347   3.074 -0.0664  0.5296  0.5107
 6464WAT      O26561   4.691   7.370   7.553  0.1135  0.1949  0.5530
 6464WAT     H126562   4.614   7.380   7.514 -0.0438  0.7118  0.9936
 6464WAT     H226563   4.730   7.447   7.543 -0.0860  0.4672  1.7437
 6464WAT    EPW26564   4.685   7.383   7.545 -0.1570 -0.3197 -0.5264
 6465WAT      O26565   6.012   7.850   4.509 -0.2613 -0.2887  0.2486
 6465WAT     H126566   5.993   7.929   4.478  0.3006 -0.4883 -0.6500
 6465WAT     H226567   6.069   7.866   4.573  1.3925 -0.0340 -1.2027
 6465WAT    EPW26568   6.018   7.864   4.514  0.3225  0.0084  0.3372
 6466WAT      O26569   4.557   6.774   3.039  0.1047  0.7403  0.2400
 6466WAT     H126570   4.616   6.822   3.082 -0.3789  0.2998  1.4364
 6466WAT     H226571   4.494   6.831   3.019  0.6126  1.0729 -0.4368
 6466WAT    EPW26572   4.556   6.790   3.042 -0.0196  0.8906 -0.1320
 6467WAT      O26573   4.810   4.422   1.610 -0.2376  0.0211  0.0800
 6467WAT     H126574   4.848   4.427   1.532  0.7508 -0.8374  0.4643
 6467WAT     H226575   4.807   4.336   1.626  1.7347  0.1825  1.9227
 6467WAT    EPW26576   4.815   4.410   1.601 -0.0899  0.1723  0.5642
 6468WAT      O26577   1.008   4.810   3.537  0.1503 -0.4045  0.0476
 6468WAT     H126578   1.062   4.871   3.569  1.1497 -0.6563 -1.0870
 6468WAT     H226579   0.984   4.765   3.607 -0.5025  1.1864  0.8998
 6468WAT    EPW26580   1.012   4.812   3.552  0.1156  0.2211  0.0388
 6469WAT      O26581   2.869   4.715   3.681  0.4398  0.0872  0.4738
 6469WAT     H126582   2.787   4.730   3.705  0.0288  2.1175 -1.9039
 6469WAT     H226583   2.909   4.792   3.693  1.9514 -0.7639  1.2588
 6469WAT    EPW26584   2.863   4.728   3.686  0.2451 -0.3669  0.2548
 6470WAT      O26585   0.242   3.471   2.259 -0.1318  0.1748  0.4153
 6470WAT     H126586   0.189   3.450   2.326  0.2776 -0.0843  0.6600
 6470WAT     H226587   0.319   3.484   2.297  0.0672  0.1804  0.0105
 6470WAT    EPW26588   0.245   3.470   2.274  0.9452  0.0277  0.6436
 6471WAT      O26589   4.681   6.214  -0.007 -0.4040  0.1532 -0.0760
 6471WAT     H126590   4.682   6.293   0.032 -1.2649  0.1747 -0.0703
 6471WAT     H226591   4.658   6.160   0.057 -1.6344  0.1610 -0.4929
 6471WAT    EPW26592   4.678   6.218   0.008  0.4484 -0.4407  0.4400
 6472WAT      O26593   3.970   7.699   7.579 -0.4516 -0.0659 -0.3218
 6472WAT     H126594   4.021   7.728   7.514 -1.0497  0.3238 -0.6227
 6472WAT     H226595   4.027   7.659   7.633  0.1939  0.4819 -0.5785
 6472WAT    EPW26596   3.986   7.697   7.578 -0.5253 -0.2757 -0.2403
 6473WAT      O26597   4.795   0.150   5.447 -0.2891 -0.0805 -0.2173
 6473WAT     H126598   4.712   0.175   5.443 -0.8473 -1.6589  0.4791
 6473WAT     H226599   4.799   0.085   5.390  0.5888  0.2657 -0.5598
 6473WAT    EPW26600   4.783   0.144   5.438 -0.1226  0.3196 -0.0225
 6474WAT      O26601   6.848   4.027   3.046  0.1450 -0.0868 -0.0491
 6474WAT     H126602   6.834   4.088   2.985 -0.6388 -0.3641 -0.1721
 6474WAT     H226603   6.783   3.970   3.032 -0.3591  0.1024  1.3831
 6474WAT    EPW26604   6.836   4.028   3.035 -0.0548  0.1321  0.0786
 6475WAT      O26605   7.889   7.523   0.506 -0.3342  0.1454  0.4261
 6475WAT     H126606   7.909   7.592   0.555 -0.1046  0.7668 -0.5160
 6475WAT     H226607   7.941   7.460   0.538 -0.3241  0.4811  1.0969
 6475WAT    EPW26608   7.900   7.524   0.518  0.0513 -0.6786  0.0646
 6476WAT      O26609   4.716   0.987   0.590 -0.2104 -0.5949 -0.0461
 6476WAT     H126610   4.720   1.030   0.666 -0.9434 -1.5731  0.5809
 6476WAT     H226611   4.703   1.050   0.531 -1.7323  0.0346  0.8955
 6476WAT    EPW26612   4.715   1.002   0.592 -0.0290  0.4248  0.3004
 6477WAT      O26613   7.461   5.345   4.368 -0.3752 -0.2624  0.5127
 6477WAT     H126614   7.380   5.332   4.337  0.1810  0.4087 -1.3566
 6477WAT     H226615   7.466   5.432   4.376  1.2472  0.0708 -2.7824
 6477WAT    EPW26616   7.450   5.356   4.365  0.2141  0.0605 -0.0600
 6478WAT      O26617   1.637   0.577   2.867  0.4716 -0.6229 -0.7410
 6478WAT     H126618   1.653   0.493   2.884  0.4310 -0.4542  0.1824
 6478WAT     H226619   1.552   0.586   2.884  0.7755 -0.0760  0.6281
 6478WAT    EPW26620   1.627   0.566   2.872  0.4997  0.5042  0.1737
 6479WAT      O26621   5.275   5.548   5.774 -0.6340  0.4312 -0.0026
 6479WAT     H126622   5.295   5.568   5.691  0.1154 -0.0885  0.0431
 6479WAT     H226623   5.343   5.499   5.800 -0.8002  0.6962  0.9594
 6479WAT    EPW26624   5.288   5.543   5.765  0.0734  0.3095  0.1183
 6480WAT      O26625   1.922   6.797   0.404  0.4661  0.6798 -0.0806
 6480WAT     H126626   1.933   6.733   0.346  0.7930  0.9977 -0.3818
 6480WAT     H226627   2.000   6.802   0.443  0.9052  1.8006 -1.0177
 6480WAT    EPW26628   1.935   6.788   0.401 -0.1027 -0.7210 -0.3702
 6481WAT      O26629   5.410   7.497   3.015 -0.3846  0.2465 -0.5619
 6481WAT     H126630   5.325   7.515   3.029 -0.4960 -0.4943 -0.2397
 6481WAT     H226631   5.447   7.576   3.009 -0.7939  0.6124  1.1983
 6481WAT    EPW26632   5.403   7.512   3.016  0.0766  0.6374  0.6255
 6482WAT      O26633   6.450   1.518   3.489 -0.4631 -0.1420 -0.5254
 6482WAT     H126634   6.380   1.558   3.521  0.0383 -0.2218  0.7211
 6482WAT     H226635   6.493   1.582   3.448  1.0490  1.0845  2.6119
 6482WAT    EPW26636   6.446   1.533   3.488  0.9455  0.2676 -0.0930
 6483WAT      O26637   2.813   2.130   0.601 -0.3096  0.3082  0.3748
 6483WAT     H126638   2.874   2.191   0.612  0.0121 -0.1022  0.9287
 6483WAT     H226639   2.798   2.102   0.682 -0.1594 -0.6203  0.0929
 6483WAT    EPW26640   2.820   2.135   0.614  0.0319  0.0395  0.8583
 6484WAT      O26641   1.168   6.579   0.248  0.4618 -0.1762 -0.0160
 6484WAT     H126642   1.248   6.562   0.218  0.6684  1.0795 -0.2163
 6484WAT     H226643   1.123   6.507   0.227  0.9204  0.0769 -2.1711
 6484WAT    EPW26644   1.173   6.566   0.240  0.0134  0.1228 -0.2037
 6485WAT      O26645   5.300   7.604   3.467 -0.2779  0.5603 -0.3344
 6485WAT     H126646   5.329   7.674   3.423  0.3568  0.3827 -0.2168
 6485WAT     H226647   5.341   7.611   3.544  0.0668 -0.1248 -0.4476
 6485WAT    EPW26648   5.310   7.615   3.472  0.1273 -0.0916  0.7832
 6486WAT      O26649   5.908   7.920   6.719 -0.0051 -0.3587 -0.0315
 6486WAT     H126650   5.894   7.955   6.640 -0.9452  0.9314  0.6729
 6486WAT     H226651   5.829   7.895   6.744  0.3652 -1.2011  0.3104
 6486WAT    EPW26652   5.894   7.922   6.711  0.0002  0.3637 -0.1505
 6487WAT      O26653   6.488   4.502   1.377  0.2458 -0.0170 -0.3051
 6487WAT     H126654   6.518   4.580   1.401  0.2981  0.4808 -1.8264
 6487WAT     H226655   6.479   4.459   1.452 -2.1957  2.2655  0.8609
 6487WAT    EPW26656   6.491   4.507   1.391 -0.5718  0.4002 -0.0831
 6488WAT      O26657   4.383   6.610   2.543  0.5633  0.0117 -0.1463
 6488WAT     H126658   4.452   6.610   2.488  0.7975 -2.7474  0.0354
 6488WAT     H226659   4.326   6.663   2.503  0.9882 -1.3494 -2.7760
 6488WAT    EPW26660   4.385   6.618   2.529  0.4353 -0.5931  0.1872
 6489WAT      O26661   1.635   5.818   3.100  0.1710  0.0901 -0.2507
 6489WAT     H126662   1.712   5.809   3.059 -0.1430 -0.4555 -0.7324
 6489WAT     H226663   1.626   5.743   3.144  0.3988  0.5811  0.6516
 6489WAT    EPW26664   1.645   5.806   3.100  0.0610  0.0384  0.5042
 6490WAT      O26665   1.286   4.448   1.463 -0.4893  0.4550  0.0456
 6490WAT     H126666   1.331   4.406   1.525 -0.9087  0.5274  0.4052
 6490WAT     H226667   1.320   4.528   1.463 -1.3070  0.8227  1.0465
 6490WAT    EPW26668   1.297   4.453   1.472 -0.2072  0.2792 -0.5980
 6491WAT      O26669   1.423   4.388   1.701  0.0025  0.3206  0.0791
 6491WAT     H126670   1.494   4.428   1.670  0.0388 -0.3413 -0.7167
 6491WAT     H226671   1.403   4.435   1.772 -1.1625  3.0838 -1.8975
 6491WAT    EPW26672   1.431   4.401   1.707 -0.2903 -0.0348  0.2214
 6492WAT      O26673   4.547   4.648   0.349 -0.7721 -0.1325  0.4026
 6492WAT     H126674   4.492   4.714   0.360 -2.1724 -1.1664 -0.1528
 6492WAT     H226675   4.536   4.600   0.421  0.2773  0.2340  0.8305
 6492WAT    EPW26676   4.537   4.650   0.361 -0.1386 -0.2868 -0.2943
 6493WAT      O26677   2.749   3.675   0.919 -0.2038 -0.3320 -0.1970
 6493WAT     H126678   2.718   3.717   0.989 -0.6075 -1.4577  0.3387
 6493WAT     H226679   2.835   3.689   0.923 -0.4212  1.4158 -0.7381
 6493WAT    EPW26680   2.757   3.683   0.930 -0.4288 -0.0372 -0.0422
 6494WAT      O26681   0.491   0.799   1.996 -0.2876 -0.1373 -0.3591
 6494WAT     H126682   0.414   0.800   2.037  0.7255  2.0792  1.7861
 6494WAT     H226683   0.501   0.881   1.968  1.1838 -0.4221 -0.7934
 6494WAT    EPW26684   0.481   0.811   1.998  0.1831  0.4812 -0.5866
 6495WAT      O26685   5.225   7.826   1.300 -0.4590 -0.9119 -0.6898
 6495WAT     H126686   5.149   7.833   1.258 -0.9858 -3.5979 -0.3527
 6495WAT     H226687   5.221   7.747   1.337  2.6343 -1.2777 -0.8836
 6495WAT    EPW26688   5.213   7.816   1.299 -0.7336  0.1939  0.3716
 6496WAT      O26689   0.554   3.302   4.068  0.1216 -0.1549  0.2021
 6496WAT     H126690   0.615   3.248   4.037 -0.3024 -1.1175  1.0003
 6496WAT     H226691   0.593   3.381   4.065  0.3849 -0.2839 -1.9981
 6496WAT    EPW26692   0.569   3.306   4.063  0.4249  0.3597  0.2901
 6497WAT      O26693   3.033   4.369   1.759 -0.0685  0.2352 -0.0076
 6497WAT     H126694   2.961   4.396   1.717 -0.2384 -0.0793  0.0731
 6497WAT     H226695   3.092   4.430   1.740 -0.6150  1.0182  0.7212
 6497WAT    EPW26696   3.031   4.382   1.750  0.3365  0.4243  0.4302
 6498WAT      O26697   3.413   3.363   0.001 -0.5008  0.4696 -0.2074
 6498WAT     H126698   3.465   3.340   0.068  0.4313  0.1554 -1.0107
 6498WAT     H226699   3.333   3.357   0.034 -0.0462  0.4629  0.9276
 6498WAT    EPW26700   3.409   3.359   0.016  0.0810  0.4229 -0.1115
 6499WAT      O26701   4.856   7.739   0.982  0.3752  0.4570 -0.4386
 6499WAT     H126702   4.829   7.657   0.991  0.6438  0.4230  0.0536
 6499WAT     H226703   4.802   7.772   0.921 -0.2644  0.1615 -0.0374
 6499WAT    EPW26704   4.844   7.732   0.974 -0.0776 -0.0827 -0.0325
 6500WAT      O26705   1.168   1.131   1.186  0.1783  0.5362  0.0031
 6500WAT     H126706   1.124   1.109   1.114 -0.2404 -1.2292  0.7424
 6500WAT     H226707   1.107   1.126   1.249  0.8773  0.4750  0.6902
 6500WAT    EPW26708   1.152   1.127   1.185  0.3170  0.5440 -0.6506
 6501WAT      O26709   5.167   0.366   2.721 -0.1342  0.0822  0.5079
 6501WAT     H126710   5.107   0.410   2.765 -0.3510 -0.0658  0.3588
 6501WAT     H226711   5.148   0.283   2.737  1.2419  0.0151  2.1343
 6501WAT    EPW26712   5.156   0.360   2.730 -0.2185 -0.2387 -0.0215
 6502WAT      O26713   6.491   4.747   3.845 -0.4125  0.3631  0.1359
 6502WAT     H126714   6.544   4.815   3.831  0.4043 -0.0836  0.9069
 6502WAT     H226715   6.487   4.742   3.932 -2.0692  0.6200  0.1045
 6502WAT    EPW26716   6.499   4.757   3.856  0.4312  0.5440  0.5181
 6503WAT      O26717   1.653   7.069   0.491 -0.4014 -0.3077 -0.7239
 6503WAT     H126718   1.722   7.059   0.439 -0.3084  1.8769 -1.1176
 6503WAT     H226719   1.689   7.087   0.569 -0.5116  0.2741 -0.8035
 6503WAT    EPW26720   1.669   7.070   0.495  0.0524  0.7876  0.3809
 6504WAT      O26721   4.614   7.974   3.773 -0.4639  0.1208 -0.1864
 6504WAT     H126722   4.657   7.969   3.849 -1.4267  1.3666  0.4833
 6504WAT     H226723   4.534   7.947   3.794 -0.5955 -0.0377 -0.8866
 6504WAT    EPW26724   4.608   7.969   3.787 -0.2760  0.4304 -0.2859
 6505WAT      O26725   7.391   6.508   0.608  0.7565  0.5578  0.8712
 6505WAT     H126726   7.399   6.567   0.544 -0.0386  1.0885  1.2575
 6505WAT     H226727   7.467   6.465   0.605  0.5032  0.1174 -0.8750
 6505WAT    EPW26728   7.403   6.510   0.598 -0.0022  0.9000  0.7941
 6506WAT      O26729   0.591   1.025   3.303  0.0354 -0.3606 -0.1801
 6506WAT     H126730   0.616   0.947   3.333 -0.7086 -0.5935 -0.1453
 6506WAT     H226731   0.512   1.009   3.267 -0.5058  0.5329  0.5625
 6506WAT    EPW26732   0.583   1.011   3.302  0.5025  0.2598 -0.2256
 6507WAT      O26733   2.071   2.157   2.720 -0.4965  0.0146 -0.3226
 6507WAT     H126734   2.102   2.173   2.640  0.9133  1.9333  0.5570
 6507WAT     H226735   2.132   2.105   2.756 -0.1864  0.6839  0.1268
 6507WAT    EPW26736   2.084   2.152   2.713 -0.0055 -0.1351 -0.6224
 6508WAT      O26737   1.741   6.678   6.754  0.3352 -0.2739 -0.3487
 6508WAT     H126738   1.792   6.643   6.693  1.2907  1.7991 -0.8055
 6508WAT     H226739   1.769   6.640   6.828  1.8435  0.0352 -0.7332
 6508WAT    EPW26740   1.752   6.667   6.756  0.0286 -0.4836  0.3410
 6509WAT      O26741   7.116   3.963   3.041  0.0549 -0.0351 -0.3452
 6509WAT     H126742   7.126   4.012   3.113  1.3746  0.8518 -1.1106
 6509WAT     H226743   7.030   3.967   3.027 -0.0956  0.6158  0.6061
 6509WAT    EPW26744   7.105   3.971   3.050 -0.1296  0.4627 -0.2730
 6510WAT      O26745   2.828   4.420   5.692 -0.3788 -0.0715  0.2320
 6510WAT     H126746   2.855   4.503   5.697 -1.6020  0.4404 -0.7951
 6510WAT     H226747   2.760   4.417   5.747  1.1145 -1.0884  2.1100
 6510WAT    EPW26748   2.822   4.432   5.701 -0.0828 -0.2245 -0.5660
 6511WAT      O26749   6.919   1.034   3.706  0.0088 -0.3493  0.1872
 6511WAT     H126750   6.842   0.996   3.697  0.4708 -1.0512 -1.0906
 6511WAT     H226751   6.976   0.969   3.698  0.8228  0.5365 -2.1071
 6511WAT    EPW26752   6.916   1.019   3.703  0.4496 -0.5610 -0.2120
 6512WAT      O26753   8.052   3.827   4.413 -0.3913  0.1112  0.0285
 6512WAT     H126754   8.063   3.867   4.336 -0.9110 -0.7321 -0.5034
 6512WAT     H226755   8.086   3.884   4.470  0.4683  0.5412 -0.8595
 6512WAT    EPW26756   8.059   3.841   4.410 -0.0022 -0.0979  0.5841
 6513WAT      O26757   2.132   2.384   6.922 -0.5576  0.3021  0.5040
 6513WAT     H126758   2.073   2.443   6.946 -0.9619 -0.2801  0.9770
 6513WAT     H226759   2.140   2.397   6.836  0.1670  1.7451  0.7469
 6513WAT    EPW26760   2.125   2.395   6.913  0.3237 -0.4129  0.3049
 6514WAT      O26761   3.380   6.545   1.147 -0.0812 -0.0370  0.3488
 6514WAT     H126762   3.398   6.511   1.068 -1.8019 -0.8219  0.2302
 6514WAT     H226763   3.458   6.564   1.180  1.0543 -3.6467  0.1841
 6514WAT    EPW26764   3.394   6.543   1.140  0.3810 -0.6395  0.3407
 6515WAT      O26765   3.425   6.419   0.881  0.5913  0.1297 -0.0407
 6515WAT     H126766   3.489   6.473   0.855  0.8771 -0.1661  0.0496
 6515WAT     H226767   3.468   6.349   0.910  0.2002 -0.3950 -0.7073
 6515WAT    EPW26768   3.441   6.417   0.882  0.1133  0.2053 -0.3607
 6516WAT      O26769   1.551   0.568   0.234 -0.1591  0.5989  0.2699
 6516WAT     H126770   1.628   0.608   0.239  0.0212  0.2343  0.4189
 6516WAT     H226771   1.519   0.575   0.315  0.2530 -0.3039  0.5276
 6516WAT    EPW26772   1.558   0.575   0.247  0.3335 -0.1131 -0.4797
 6517WAT      O26773   2.801   6.704   0.389 -0.2748  0.5782 -0.4077
 6517WAT     H126774   2.789   6.626   0.426  0.8173  0.6590  0.1464
 6517WAT     H226775   2.862   6.689   0.329 -0.0474  1.0034 -0.2885
 6517WAT    EPW26776   2.808   6.691   0.386 -0.0482  0.8622 -0.0964
 6518WAT      O26777   2.838   7.047   3.879 -0.4171  0.0594  0.5122
 6518WAT     H126778   2.839   7.086   3.957 -0.3695  2.4736 -0.6155
 6518WAT     H226779   2.803   7.107   3.826  1.4251 -0.6993 -1.7292
 6518WAT    EPW26780   2.833   7.061   3.883  0.0512  0.4694  0.9671
 6519WAT      O26781   3.220   4.989   6.235 -0.4130  0.1207  0.0212
 6519WAT     H126782   3.184   4.924   6.280  1.0672 -1.5092 -1.0376
 6519WAT     H226783   3.192   4.976   6.154 -1.8626  2.1626  0.1013
 6519WAT    EPW26784   3.210   4.978   6.230  0.1267 -0.2167  0.2958
 6520WAT      O26785   0.114   1.847   4.792  0.0640 -0.2186 -1.0032
 6520WAT     H126786   0.087   1.789   4.851  0.2383 -3.1574 -3.5432
 6520WAT     H226787   0.198   1.860   4.811 -0.0773 -0.5172 -0.1699
 6520WAT    EPW26788   0.122   1.840   4.803  0.7070 -0.2206 -0.0888
 6521WAT      O26789   1.788   2.796   1.243 -0.6814  0.3210  0.3218
 6521WAT     H126790   1.829   2.812   1.318 -0.8340 -0.1298  0.5040
 6521WAT     H226791   1.851   2.806   1.183  0.1065 -1.8746  0.7081
 6521WAT    EPW26792   1.803   2.800   1.245 -0.0796 -0.4469  0.1467
 6522WAT      O26793   1.441   0.440   0.028 -0.4165  0.1557  0.3141
 6522WAT     H126794   1.476   0.484   0.095 -2.6569  0.9100  1.1142
 6522WAT     H226795   1.443   0.357   0.054 -0.3035  0.3271  0.8641
 6522WAT    EPW26796   1.446   0.434   0.042  0.0438 -0.1394  0.2072
 6523WAT      O26797   6.015   4.145   1.819  0.5080  0.1595 -0.1369
 6523WAT     H126798   5.938   4.131   1.857  0.9301  0.8606  1.0384
 6523WAT     H226799   6.022   4.232   1.817  1.3813  0.1141  0.0653
 6523WAT    EPW26800   6.005   4.156   1.825 -0.3162  0.0783 -0.0842
 6524WAT      O26801   3.077   5.506   0.660 -0.5339  0.3518 -0.0173
 6524WAT     H126802   3.130   5.437   0.671 -0.0346  0.8945  1.2082
 6524WAT     H226803   3.006   5.484   0.705 -1.0344 -0.0166 -0.9594
 6524WAT    EPW26804   3.075   5.492   0.668  0.4713 -0.3175 -0.0794
 6525WAT      O26805   2.161   3.819   7.743  0.1596  0.4536  0.5801
 6525WAT     H126806   2.094   3.815   7.799  1.3767 -1.6277  2.0259
 6525WAT     H226807   2.125   3.800   7.666 -0.7191 -2.4966  1.5881
 6525WAT    EPW26808   2.146   3.816   7.740  0.3662  0.0016 -0.7199
 6526WAT      O26809   3.226   4.467   3.455  0.0823  0.1318 -0.2250
 6526WAT     H126810   3.152   4.497   3.419  0.4252  1.1310 -0.1532
 6526WAT     H226811   3.219   4.381   3.448 -0.4819  0.2495 -1.4739
 6526WAT    EPW26812   3.214   4.459   3.448 -0.4028 -0.7936  0.4983
 6527WAT      O26813   2.073   8.030   3.704  0.3031 -0.5555  0.5082
 6527WAT     H126814   2.142   8.013   3.654  0.0075 -0.2261 -0.0335
 6527WAT     H226815   2.007   7.992   3.661  0.0474 -0.2716  0.6424
 6527WAT    EPW26816   2.073   8.022   3.690 -0.2030  0.5867 -0.1219
 6528WAT      O26817   3.187   5.185   0.406  0.0442  0.8746 -0.2107
 6528WAT     H126818   3.171   5.228   0.333  2.2616  3.6919  0.7901
 6528WAT     H226819   3.246   5.125   0.382  0.9666  1.9558 -0.7474
 6528WAT    EPW26820   3.194   5.182   0.392 -0.5352  0.9949 -0.0194
 6529WAT      O26821   3.405   2.017   2.814  0.7352  0.2115  0.0086
 6529WAT     H126822   3.469   1.991   2.867 -1.3901 -0.3061  2.5063
 6529WAT     H226823   3.347   1.952   2.818 -1.3923  2.0247  0.4352
 6529WAT    EPW26824   3.406   2.004   2.822 -0.3079 -0.5445 -0.3008
 6530WAT      O26825   4.365   6.240   7.304  0.1583  0.3031 -0.4577
 6530WAT     H126826   4.432   6.187   7.286  1.4675  1.5900  0.3889
 6530WAT     H226827   4.363   6.294   7.236 -0.9165 -0.5391 -1.1261
 6530WAT    EPW26828   4.375   6.240   7.291 -0.0168 -0.0209 -0.6053
 6531WAT      O26829   4.611   2.037   3.157 -0.3747 -0.0874 -0.1745
 6531WAT     H126830   4.545   2.014   3.104 -0.9331 -0.1028  0.5135
 6531WAT     H226831   4.679   1.994   3.125 -0.6797 -0.0007 -0.9568
 6531WAT    EPW26832   4.611   2.027   3.145 -0.2366 -0.2397 -0.2318
 6532WAT      O26833   4.162   3.906   7.738 -0.2467  0.0480 -0.2829
 6532WAT     H126834   4.080   3.913   7.768 -0.4680 -0.9338 -0.5929
 6532WAT     H226835   4.177   3.820   7.743  0.7133  0.2078 -0.3751
 6532WAT    EPW26836   4.152   3.894   7.743  0.4842  0.3479  0.0247
 6533WAT      O26837   0.964   4.701   0.454 -0.1738  0.3359 -0.3671
 6533WAT     H126838   1.045   4.699   0.486 -0.1101  1.4623 -0.3892
 6533WAT     H226839   0.926   4.629   0.486  0.1605  0.9400  1.5033
 6533WAT    EPW26840   0.970   4.690   0.463 -0.4962 -0.1378  0.6992
 6534WAT      O26841   2.204   5.584   1.646 -0.0605 -0.0420 -0.1044
 6534WAT     H126842   2.243   5.662   1.645  0.9602 -0.5436 -0.2792
 6534WAT     H226843   2.119   5.604   1.638  0.2609  0.9926 -1.1795
 6534WAT    EPW26844   2.197   5.599   1.645 -0.1385 -0.4618 -1.0902
 6535WAT      O26845   4.217   0.668   5.422  0.3832  0.3440 -0.4581
 6535WAT     H126846   4.137   0.704   5.423  1.1451  2.1518  1.5261
 6535WAT     H226847   4.206   0.592   5.463 -0.5692 -0.1220 -1.5178
 6535WAT    EPW26848   4.203   0.662   5.428 -0.0385  0.2404 -0.2341
 6536WAT      O26849   5.538   5.813   1.910 -0.0317  0.5883 -0.3680
 6536WAT     H126850   5.496   5.737   1.897  0.2074  0.4089 -0.1189
 6536WAT     H226851   5.487   5.872   1.871 -1.7112  0.7310  1.8262
 6536WAT    EPW26852   5.524   5.810   1.902 -0.3242  0.3555  0.1714
 6537WAT      O26853  -0.006   1.464   2.461  0.2672 -0.0139  0.0318
 6537WAT     H126854   0.051   1.491   2.520  1.1137 -2.9183  0.6791
 6537WAT     H226855   0.043   1.426   2.399 -0.7944  0.0706 -0.9165
 6537WAT    EPW26856   0.009   1.462   2.460  0.2590 -0.1445 -0.5770
 6538WAT      O26857   3.001   7.338   0.800 -0.1078 -0.1898 -0.1677
 6538WAT     H126858   3.036   7.417   0.784  2.3870 -0.8814  1.3608
 6538WAT     H226859   3.070   7.284   0.798 -1.7344 -2.3792 -1.0788
 6538WAT    EPW26860   3.017   7.342   0.797  0.3965  0.2534 -0.0431
 6539WAT      O26861   1.010   5.957   3.021  0.6075 -0.2395  0.4263
 6539WAT     H126862   0.940   5.906   3.008 -0.4106  1.2083 -0.0235
 6539WAT     H226863   1.069   5.925   2.966 -0.2176 -0.5463 -0.3125
 6539WAT    EPW26864   1.008   5.944   3.011 -0.2503  0.3350 -0.4606
 6540WAT      O26865   1.211   5.227   3.750 -0.0053  0.5011  0.6400
 6540WAT     H126866   1.273   5.287   3.737 -0.6685  0.9957 -0.4173
 6540WAT     H226867   1.205   5.223   3.837 -0.5835  2.6959  0.7693
 6540WAT    EPW26868   1.219   5.235   3.761 -0.2444 -0.0662  0.1951
 6541WAT      O26869   4.915   2.077   0.217  0.0533  0.0369  0.5328
 6541WAT     H126870   4.872   2.117   0.152  0.0612 -2.0467 -0.8424
 6541WAT     H226871   4.909   2.134   0.283 -1.2087  1.6174 -0.8469
 6541WAT    EPW26872   4.908   2.091   0.217 -0.6545 -0.3853  0.2129
 6542WAT      O26873   3.367   7.145   3.055 -0.3593 -0.2590 -0.1020
 6542WAT     H126874   3.419   7.175   3.119 -1.2441 -0.6320  0.8114
 6542WAT     H226875   3.370   7.059   3.065 -2.3109 -0.2514  0.9352
 6542WAT    EPW26876   3.375   7.137   3.066 -0.2248 -0.6252 -0.1209
 6543WAT      O26877   4.476   1.494   2.533 -0.6180  0.2286  0.2231
 6543WAT     H126878   4.453   1.415   2.563 -0.0097  0.1172  0.4043
 6543WAT     H226879   4.424   1.548   2.578 -1.2405 -0.0774 -0.1070
 6543WAT    EPW26880   4.465   1.491   2.544 -0.2942 -0.2770 -0.4032
 6544WAT      O26881   5.321   5.073   7.898  0.0618  0.0868  0.2043
 6544WAT     H126882   5.263   5.008   7.908 -0.5258  0.7404  1.2361
 6544WAT     H226883   5.291   5.116   7.828 -1.2581  0.9133  1.2037
 6544WAT    EPW26884   5.308   5.070   7.889  0.0092 -0.2337  0.7840
 6545WAT      O26885   0.770   5.181   1.478  0.4959 -0.0616 -0.4457
 6545WAT     H126886   0.832   5.238   1.501  1.6570 -1.4232 -0.0398
 6545WAT     H226887   0.788   5.111   1.528 -2.5524  0.1400  1.1413
 6545WAT    EPW26888   0.782   5.179   1.489 -0.2081  0.6282 -0.0573
 6546WAT      O26889   8.077   5.767   2.686  0.2113  1.1233 -0.2223
 6546WAT     H126890   8.026   5.696   2.681 -0.1539  1.3632 -0.0041
 6546WAT     H226891   8.157   5.734   2.695  0.3392  0.7259 -2.4116
 6546WAT    EPW26892   8.081   5.751   2.687  0.2634  0.4097 -0.2751
 6547WAT      O26893   6.660   4.140   1.536 -1.0537 -0.3229 -0.1270
 6547WAT     H126894   6.596   4.198   1.549 -0.5840  0.3446 -0.7354
 6547WAT     H226895   6.717   4.183   1.486 -0.3907 -1.0983 -0.0546
 6547WAT    EPW26896   6.659   4.155   1.530  0.0924 -0.5880  0.0281
 6548WAT      O26897   2.614   4.741   4.873 -0.0943  0.3430  0.1223
 6548WAT     H126898   2.603   4.660   4.842 -1.1911 -0.2246  1.8937
 6548WAT     H226899   2.533   4.774   4.876  0.2516  1.2199  0.1984
 6548WAT    EPW26900   2.601   4.734   4.869 -0.5254  0.5898 -0.0008
 6549WAT      O26901   0.461   0.626   0.728 -0.4650  0.0249 -0.4173
 6549WAT     H126902   0.419   0.551   0.744  0.6653 -0.5163  0.1837
 6549WAT     H226903   0.503   0.610   0.653 -1.3871  0.6004 -1.0749
 6549WAT    EPW26904   0.461   0.612   0.719  0.2073 -0.0947 -0.3324
 6550WAT      O26905   3.887   5.711   4.528 -0.6295  0.0859 -0.2146
 6550WAT     H126906   3.815   5.668   4.505  0.3779 -1.7798 -0.0570
 6550WAT     H226907   3.902   5.763   4.459 -2.6716  1.3210  0.2005
 6550WAT    EPW26908   3.878   5.712   4.514  0.5269 -0.0846  0.4881
 6551WAT      O26909   4.732   6.405   4.869 -0.0231 -0.0188 -0.1506
 6551WAT     H126910   4.738   6.386   4.784 -0.9005  1.1731 -0.5192
 6551WAT     H226911   4.772   6.339   4.908 -2.0060 -2.0972 -1.3464
 6551WAT    EPW26912   4.739   6.392   4.862 -0.6327 -0.1126  0.1805
 6552WAT      O26913   1.682   6.637   1.022  0.2864 -0.0053 -0.4120
 6552WAT     H126914   1.692   6.672   0.943  0.7157  1.1512  0.1223
 6552WAT     H226915   1.753   6.664   1.065  0.1845 -0.8376  0.2905
 6552WAT    EPW26916   1.694   6.646   1.017  0.3324  0.2126  0.5149
 6553WAT      O26917   1.256   2.515   2.279 -0.1559  0.1979  0.4856
 6553WAT     H126918   1.197   2.538   2.220  0.4899  1.2266  0.2222
 6553WAT     H226919   1.230   2.556   2.352 -1.4776 -1.7994  1.2217
 6553WAT    EPW26920   1.244   2.524   2.281 -0.1981  0.4553 -0.6641
 6554WAT      O26921   0.167   4.189   3.152 -0.0748  0.2050  0.3738
 6554WAT     H126922   0.202   4.162   3.227 -0.3834  0.4717  0.6206
 6554WAT     H226923   0.084   4.163   3.159  0.3773 -1.7591 -0.8469
 6554WAT    EPW26924   0.160   4.181   3.164 -0.5631  0.0287  0.3101
 6555WAT      O26925   2.833   4.142   7.652  0.0160  0.0005  0.2358
 6555WAT     H126926   2.845   4.066   7.610 -0.0205 -0.2232  0.6248
 6555WAT     H226927   2.906   4.187   7.634  0.6060 -0.6131  1.0192
 6555WAT    EPW26928   2.845   4.138   7.643 -0.1470 -0.0712 -0.0951
 6556WAT      O26929   1.714   5.544   1.870 -0.3533  0.0063  0.0931
 6556WAT     H126930   1.635   5.521   1.841 -0.0614 -0.1852 -0.5628
 6556WAT     H226931   1.733   5.481   1.927 -0.9996  0.4724  0.8500
 6556WAT    EPW26932   1.705   5.532   1.874  0.3112  0.2222 -0.1809
 6557WAT      O26933   1.720   5.533   2.928 -0.1300  0.1713 -0.4424
 6557WAT     H126934   1.798   5.495   2.939  0.7887  2.4092  1.5191
 6557WAT     H226935   1.738   5.605   2.882 -0.6093  1.7642  1.7020
 6557WAT    EPW26936   1.734   5.538   2.922  0.4165 -0.1800  0.7254
 6558WAT      O26937   5.572   7.175   7.090  0.2756 -0.4465  0.5931
 6558WAT     H126938   5.487   7.155   7.081  0.3580 -0.8309  0.6715
 6558WAT     H226939   5.613   7.107   7.054  0.5455  0.1013 -0.1559
 6558WAT    EPW26940   5.565   7.162   7.083  0.0906  0.4718  0.2934
 6559WAT      O26941   2.185   3.573   6.967  0.1991 -0.2424 -0.8542
 6559WAT     H126942   2.184   3.493   6.932 -1.1198 -0.5495 -0.1704
 6559WAT     H226943   2.158   3.625   6.902 -1.0511 -0.6512 -0.6882
 6559WAT    EPW26944   2.181   3.569   6.952 -0.0268  0.2968  0.6006
 6560WAT      O26945   5.571   6.627   3.846  0.5133 -0.4323  0.4581
 6560WAT     H126946   5.594   6.562   3.900  2.1900  0.2110  0.5486
 6560WAT     H226947   5.527   6.681   3.898  0.5031 -0.7149  0.7498
 6560WAT    EPW26948   5.568   6.625   3.861  0.0532  0.0857 -0.1386
 6561WAT      O26949   5.223   4.227   1.497  0.2305  0.3099  0.5921
 6561WAT     H126950   5.145   4.226   1.460  1.1499 -0.8275 -1.4800
 6561WAT     H226951   5.207   4.210   1.581 -1.5816 -2.8752 -0.2378
 6561WAT    EPW26952   5.209   4.224   1.504 -0.0171 -0.2651  0.4390
 6562WAT      O26953   1.884   5.385   2.584 -0.5038  0.2148  0.2224
 6562WAT     H126954   1.933   5.321   2.550  0.7302  1.7567 -1.0602
 6562WAT     H226955   1.918   5.458   2.548 -1.7863  1.6009  1.6905
 6562WAT    EPW26956   1.897   5.386   2.573 -0.1807  0.8314  0.0097
 6563WAT      O26957   4.571   6.813   6.138 -0.0262  0.4902 -0.0811
 6563WAT     H126958   4.582   6.888   6.182  0.4360 -1.1221  2.8254
 6563WAT     H226959   4.646   6.771   6.152 -0.1046 -0.3717 -2.0438
 6563WAT    EPW26960   4.584   6.818   6.147  0.1140  0.0343  0.1783
 6564WAT      O26961   2.040   4.473   4.226 -0.7179 -0.0952  0.2902
 6564WAT     H126962   2.042   4.555   4.197 -2.0544 -0.5523 -1.2640
 6564WAT     H226963   2.062   4.480   4.310 -0.9874  1.8785  0.2439
 6564WAT    EPW26964   2.043   4.486   4.234  0.3390 -0.2137 -0.0869
 6565WAT      O26965   3.236   2.194   5.882 -0.7337  0.0823 -0.2658
 6565WAT     H126966   3.167   2.155   5.845  0.9961 -1.4847 -2.0386
 6565WAT     H226967   3.271   2.240   5.817 -0.1013  0.9107  0.6240
 6565WAT    EPW26968   3.231   2.195   5.867 -0.0028 -1.0699 -0.0713
 6566WAT      O26969   7.185   6.508   4.590  0.4088  0.5350 -0.4884
 6566WAT     H126970   7.176   6.530   4.506 -2.0500  2.1873  0.1042
 6566WAT     H226971   7.147   6.430   4.595  0.6474  0.3844 -0.8930
 6566WAT    EPW26972   7.178   6.500   4.578  0.5279 -0.6512 -0.1882
 6567WAT      O26973   0.183   7.890   0.245 -0.2684  0.0273 -0.1250
 6567WAT     H126974   0.126   7.839   0.289 -3.0781  2.0916 -1.0645
 6567WAT     H226975   0.239   7.916   0.307 -0.8283 -1.4292  1.0670
 6567WAT    EPW26976   0.182   7.886   0.261 -0.4944  0.6482 -0.6323
 6568WAT      O26977   6.487   4.272   2.863  0.1696 -0.2228 -0.2140
 6568WAT     H126978   6.457   4.277   2.944  1.6124 -1.0124  0.4034
 6568WAT     H226979   6.449   4.340   2.823  0.1389  0.7379  1.3450
 6568WAT    EPW26980   6.477   4.283   2.869 -0.1727 -0.3720 -0.2453
 6569WAT      O26981   6.934   1.049   1.304 -0.6408 -0.3066 -0.5353
 6569WAT     H126982   6.998   1.008   1.347  1.4836  0.8299 -2.4197
 6569WAT     H226983   6.934   1.129   1.339 -0.1444  0.0619 -1.3379
 6569WAT    EPW26984   6.944   1.055   1.316 -0.6104 -0.3278  0.1685
 6570WAT      O26985   1.280   4.245   4.455  0.6132 -0.7549  0.1180
 6570WAT     H126986   1.218   4.220   4.511 -0.2250  0.7521 -0.0872
 6570WAT     H226987   1.324   4.171   4.438 -0.0735 -1.5239  1.5632
 6570WAT    EPW26988   1.277   4.231   4.461  0.0359 -0.1968 -0.1363
 6571WAT      O26989   4.211   3.253   1.993  0.5336 -0.2795  0.0749
 6571WAT     H126990   4.178   3.280   2.069 -0.9081 -0.9700 -0.2566
 6571WAT     H226991   4.295   3.274   1.997  0.1457  1.1773  1.1824
 6571WAT    EPW26992   4.218   3.260   2.005  0.2730  0.0615 -0.0156
 6572WAT      O26993   0.563   6.736   4.036  0.6355  0.3040  0.3506
 6572WAT     H126994   0.520   6.798   3.991  0.7102  0.2070  0.1461
 6572WAT     H226995   0.586   6.679   3.975  1.7680  0.7550  0.3418
 6572WAT    EPW26996   0.560   6.737   4.020 -0.2438  0.5636  0.0405
 6573WAT      O26997   2.148   4.662   3.631  0.5493 -0.4993 -0.1095
 6573WAT     H126998   2.090   4.644   3.569 -0.6122 -0.5532  0.9503
 6573WAT     H226999   2.146   4.591   3.682  2.9456 -1.3168 -1.0467
 6573WAT    EPW27000   2.139   4.649   3.629  0.2416 -0.6542  0.2662
 6574WAT      O27001   3.298   7.971   3.573  0.2373  0.5517 -0.5345
 6574WAT     H127002   3.315   7.897   3.530 -2.1178 -0.9754  0.9412
 6574WAT     H227003   3.371   7.986   3.618  1.1510 -0.2263 -1.7029
 6574WAT    EPW27004   3.311   7.962   3.573  0.1316  0.2509 -0.3199
 6575WAT      O27005   3.858   4.040   1.621  0.2287 -0.0280 -0.0072
 6575WAT     H127006   3.939   4.024   1.646 -0.6702 -2.5299  1.6750
 6575WAT     H227007   3.819   4.068   1.694 -0.3709  1.6979 -0.9081
 6575WAT    EPW27008   3.864   4.042   1.636 -0.4209 -0.1435 -0.0048
 6576WAT      O27009   3.873   7.890   2.200 -0.4037 -0.1653 -0.5335
 6576WAT     H127010   3.849   7.811   2.171  0.5056 -1.4116  1.8252
 6576WAT     H227011   3.870   7.881   2.287  1.9916  1.6685 -0.1800
 6576WAT    EPW27012   3.869   7.877   2.208 -0.3376 -0.9137 -0.6611
 6577WAT      O27013   7.338   4.433   2.657  0.2900  0.9864 -0.6419
 6577WAT     H127014   7.301   4.369   2.703  0.9833 -1.6507 -3.3899
 6577WAT     H227015   7.421   4.434   2.685  0.3517  0.4315 -0.7925
 6577WAT    EPW27016   7.345   4.423   2.668  0.7355 -0.4229 -0.1401
 6578WAT      O27017   3.053   5.104   2.807 -0.3380  0.2733 -0.4574
 6578WAT     H127018   3.102   5.164   2.849  0.0079  2.3197 -3.4359
 6578WAT     H227019   2.972   5.127   2.827 -0.2060 -0.4831  1.1235
 6578WAT    EPW27020   3.049   5.117   2.816 -0.0764 -0.8516 -0.6864
 6579WAT      O27021   5.580   3.987   1.227 -0.2391 -0.7208  0.0720
 6579WAT     H127022   5.526   4.004   1.294  0.7909 -3.1442  1.6759
 6579WAT     H227023   5.526   3.962   1.164 -1.3102  2.3969 -0.4477
 6579WAT    EPW27024   5.564   3.986   1.228  0.4317  0.9446 -0.3121
 6580WAT      O27025   7.963   7.995   1.208 -0.1566 -0.4325  0.2189
 6580WAT     H127026   8.031   8.020   1.160  1.2247 -1.4409  1.5718
 6580WAT     H227027   7.986   8.017   1.289 -2.5027  1.3991  0.4952
 6580WAT    EPW27028   7.976   8.002   1.213  0.4537 -0.5969 -0.2554
 6581WAT      O27029   4.542   1.024   1.391  0.5281 -0.1744  0.5746
 6581WAT     H127030   4.604   1.032   1.331  1.4105  0.2013  1.5131
 6581WAT     H227031   4.571   0.960   1.443  0.0436 -0.1111  0.9348
 6581WAT    EPW27032   4.555   1.016   1.390  0.3549  0.3393 -0.0054
 6582WAT      O27033   1.767   3.740   2.995 -0.1282 -0.1684  0.4676
 6582WAT     H127034   1.711   3.766   2.933  0.5131  1.3052  0.4478
 6582WAT     H227035   1.831   3.701   2.950  0.0575  0.3900  0.2250
 6582WAT    EPW27036   1.768   3.738   2.979  0.0889 -0.1897 -0.2913
 6583WAT      O27037   6.011   4.869   2.022  0.1824  0.1925  0.3779
 6583WAT     H127038   6.048   4.794   1.997 -0.7783 -0.0217 -0.4246
 6583WAT     H227039   6.017   4.920   1.952 -1.8615 -0.1649 -0.1163
 6583WAT    EPW27040   6.017   4.866   2.008 -0.2167 -0.0815  0.1401
 6584WAT      O27041   6.122   0.544   2.906  0.8735  0.2058  0.2985
 6584WAT     H127042   6.068   0.560   2.972 -0.9011 -0.6161 -0.8524
 6584WAT     H227043   6.094   0.597   2.843  2.1951  0.6099  0.0204
 6584WAT    EPW27044   6.110   0.554   2.906  0.2915  0.0686  0.2187
 6585WAT      O27045   4.683   3.713   0.441 -0.1236  0.1984  0.1277
 6585WAT     H127046   4.682   3.799   0.427  0.1258  0.5783  2.1010
 6585WAT     H227047   4.610   3.684   0.403 -0.7066  1.4433  0.2675
 6585WAT    EPW27048   4.672   3.721   0.434  0.0051  0.4108  0.4377
 6586WAT      O27049   4.414   5.690   2.016 -0.2839  0.1695  0.6113
 6586WAT     H127050   4.435   5.774   2.013 -0.4401  0.1818 -1.5375
 6586WAT     H227051   4.443   5.659   1.939 -2.0212 -1.2794  0.4777
 6586WAT    EPW27052   4.422   5.697   2.004  0.0599 -0.2291  0.2922
 6587WAT      O27053   1.903   3.602   6.077 -0.0414 -0.1064  0.2662
 6587WAT     H127054   1.817   3.590   6.070 -0.9016  4.3087  0.0373
 6587WAT     H227055   1.917   3.604   6.163 -0.1837 -0.5913  0.3041
 6587WAT    EPW27056   1.893   3.601   6.088 -0.1543 -0.3266  0.0755
 6588WAT      O27057   4.499   7.625   0.022  0.7098 -0.6207  0.1983
 6588WAT     H127058   4.558   7.648   0.082  1.3693 -3.3833  0.7201
 6588WAT     H227059   4.546   7.617  -0.051  0.5524 -0.7288  0.1085
 6588WAT    EPW27060   4.515   7.627   0.020  0.0462 -0.5077 -0.3122
 6589WAT      O27061   2.606   6.564   2.291 -0.1919  0.4900 -0.0133
 6589WAT     H127062   2.682   6.520   2.290 -0.0752  0.6879  0.1534
 6589WAT     H227063   2.564   6.532   2.361  0.1397  1.0594  0.4508
 6589WAT    EPW27064   2.611   6.552   2.301 -0.3861  0.1590  0.2166
 6590WAT      O27065   2.977   3.635   1.313  0.1044 -0.3034 -0.0166
 6590WAT     H127066   2.925   3.704   1.323  1.8666  1.0256  0.4003
 6590WAT     H227067   2.921   3.568   1.310 -1.7513  1.1919 -1.4763
 6590WAT    EPW27068   2.961   3.635   1.314 -0.5726 -0.2988 -0.2785
 6591WAT      O27069   2.903   0.760   4.869  0.1543 -0.1331 -0.0694
 6591WAT     H127070   2.859   0.770   4.943 -2.7543  1.2730 -1.7968
 6591WAT     H227071   2.942   0.838   4.858  0.8210 -0.4356  0.0845
 6591WAT    EPW27072   2.903   0.773   4.878 -0.1718 -0.1614 -0.3020
 6592WAT      O27073   4.276   3.831   6.354 -0.0674 -0.7128  0.2773
 6592WAT     H127074   4.306   3.755   6.384 -2.2356 -1.2547  1.2701
 6592WAT     H227075   4.242   3.869   6.424 -1.6849 -0.2007 -0.7374
 6592WAT    EPW27076   4.276   3.826   6.369  0.2381 -0.4275  0.3939
 6593WAT      O27077   4.800   0.982   5.758  0.4376 -0.2420  0.3940
 6593WAT     H127078   4.715   0.971   5.771  0.3524  0.8725  0.9418
 6593WAT     H227079   4.813   1.066   5.778  2.0162 -0.8658  2.3928
 6593WAT    EPW27080   4.790   0.993   5.763  0.2205  0.1967  0.3899
 6594WAT      O27081   7.943   5.370   1.518  0.3127 -0.1977 -0.1367
 6594WAT     H127082   7.974   5.386   1.598 -0.3585  0.9253 -0.0827
 6594WAT     H227083   7.903   5.293   1.527 -2.0776  1.0910  1.3411
 6594WAT    EPW27084   7.941   5.361   1.531  0.4339  0.2597 -0.1187
 6595WAT      O27085   7.027   0.412   3.072 -0.5593 -0.5982 -0.0333
 6595WAT     H127086   7.021   0.334   3.112 -2.0512 -0.7292 -0.4460
 6595WAT     H227087   7.112   0.420   3.055 -0.5168 -2.7688 -1.2051
 6595WAT    EPW27088   7.038   0.401   3.076  0.1224  0.0665 -0.0640
 6596WAT      O27089   2.316   7.988   2.785  0.0969 -0.6058  0.4268
 6596WAT     H127090   2.343   8.048   2.843  0.4002 -0.1746 -0.1469
 6596WAT     H227091   2.318   7.913   2.829 -0.8543 -0.1222  1.3455
 6596WAT    EPW27092   2.320   7.986   2.800  0.9095 -0.0453  0.6270
 6597WAT      O27093   5.390   5.985   7.493  0.0656 -0.1058  0.0362
 6597WAT     H127094   5.344   5.995   7.567  0.4749 -0.9114  0.4109
 6597WAT     H227095   5.422   5.904   7.500  1.5768  0.4480 -0.1925
 6597WAT    EPW27096   5.388   5.975   7.505 -0.3328 -0.1630  0.3574
 6598WAT      O27097   5.006   2.523   3.042 -0.3216  0.1087 -0.2950
 6598WAT     H127098   5.039   2.442   3.039  0.4459  0.3780  0.5791
 6598WAT     H227099   4.941   2.520   2.984 -0.6498 -1.2936  0.0920
 6598WAT    EPW27100   5.001   2.511   3.033  0.6757 -0.3504 -1.0446
 6599WAT      O27101   4.332   7.759   4.935 -0.6240 -0.2999 -0.0099
 6599WAT     H127102   4.416   7.745   4.914 -0.8610 -0.2513 -1.0214
 6599WAT     H227103   4.309   7.685   4.974 -0.0222 -0.1898  0.5830
 6599WAT    EPW27104   4.341   7.746   4.938  0.5300  0.2332 -0.2490
 6600WAT      O27105   2.491   6.118   6.980 -0.3794  0.5965 -0.1097
 6600WAT     H127106   2.425   6.070   7.012 -0.0408  0.4218  0.3461
 6600WAT     H227107   2.556   6.061   6.972 -0.0859  0.8977  0.0783
 6600WAT    EPW27108   2.491   6.103   6.984  0.5191  0.2797 -0.3050
 6601WAT      O27109   4.824   2.793   1.562  0.1968 -0.3662 -0.2358
 6601WAT     H127110   4.905   2.780   1.592  0.8206  0.2148 -1.5818
 6601WAT     H227111   4.799   2.714   1.535  0.9625 -0.2560 -1.3089
 6601WAT    EPW27112   4.833   2.780   1.563 -0.2050  0.1973 -0.1932
 6602WAT      O27113   5.534   7.862   7.892  0.3357  0.0349 -0.4287
 6602WAT     H127114   5.571   7.940   7.880 -0.2524  0.2119 -1.1431
 6602WAT     H227115   5.543   7.823   7.814 -1.8285  0.4452 -0.9321
 6602WAT    EPW27116   5.541   7.868   7.879 -0.0250  0.4453 -0.0972
 6603WAT      O27117   6.419   7.477   2.229 -0.2059  0.5476  0.5080
 6603WAT     H127118   6.389   7.435   2.158 -1.0938 -1.4322  1.9572
 6603WAT     H227119   6.497   7.441   2.243 -0.0821  0.8516  0.6079
 6603WAT    EPW27120   6.426   7.466   2.220 -0.2958  0.1462 -0.2813
 6604WAT      O27121   4.143   3.837   5.731 -0.3898  0.3844  0.2423
 6604WAT     H127122   4.081   3.883   5.771 -0.8473 -0.7933  0.9441
 6604WAT     H227123   4.123   3.844   5.647 -0.3644  1.5617  0.3193
 6604WAT    EPW27124   4.131   3.845   5.725 -0.5197 -0.2139 -0.0365
 6605WAT      O27125   4.035   4.639   1.445 -0.2913 -0.0611 -0.4977
 6605WAT     H127126   3.960   4.604   1.418 -0.6221 -0.3040  0.6638
 6605WAT     H227127   4.042   4.712   1.398 -0.6224 -0.6650 -1.5011
 6605WAT    EPW27128   4.025   4.645   1.434 -0.3623 -0.4956  0.2512
 6606WAT      O27129   2.051   1.591   3.109 -0.3065  0.0029 -0.7533
 6606WAT     H127130   1.975   1.608   3.071 -0.8774 -1.8903 -0.5230
 6606WAT     H227131   2.069   1.665   3.153 -1.7652  0.6226 -1.1590
 6606WAT    EPW27132   2.043   1.605   3.110 -0.1172 -0.7437  0.4323
 6607WAT      O27133   3.039   6.611   4.270  0.3046  0.3677 -0.4175
 6607WAT     H127134   3.084   6.543   4.302  2.0130  1.2350 -0.8719
 6607WAT     H227135   3.092   6.643   4.208 -1.4323  0.7903 -1.7467
 6607WAT    EPW27136   3.054   6.605   4.266 -0.2029 -0.1297  0.1296
 6608WAT      O27137   0.738   2.804   0.786  0.0442 -0.1245  0.0116
 6608WAT     H127138   0.702   2.882   0.799  0.8574 -0.0203  2.0507
 6608WAT     H227139   0.764   2.780   0.866 -0.9941 -2.9130 -0.3977
 6608WAT    EPW27140   0.737   2.812   0.800  0.0188  0.6122 -0.0940
 6609WAT      O27141   4.828   0.521   6.936  0.6595  0.0090  0.2479
 6609WAT     H127142   4.909   0.550   6.953  0.6231  0.3802 -0.2078
 6609WAT     H227143   4.815   0.544   6.853  0.9267 -1.9919 -0.3978
 6609WAT    EPW27144   4.838   0.529   6.926 -0.0317 -0.2246 -0.9087
 6610WAT      O27145   4.877   4.615   2.674 -0.2461 -0.0053  0.1019
 6610WAT     H127146   4.931   4.683   2.684 -0.3305  0.0154  0.4206
 6610WAT     H227147   4.891   4.589   2.591  0.6045 -0.2962  0.3280
 6610WAT    EPW27148   4.887   4.621   2.663 -0.5465  0.0210  0.1456
 6611WAT      O27149   1.984   5.907   4.893 -0.2209 -0.4665  0.1064
 6611WAT     H127150   2.047   5.894   4.953 -0.4979 -1.3002  0.2237
 6611WAT     H227151   1.942   5.831   4.890  0.6503 -0.9581 -2.1701
 6611WAT    EPW27152   1.987   5.894   4.901  0.2444 -0.2592  0.2204
 6612WAT      O27153   2.156   6.723   3.701  0.4335  0.2288  0.0938
 6612WAT     H127154   2.164   6.636   3.699 -2.7741 -0.2035  0.1975
 6612WAT     H227155   2.207   6.747   3.767  2.6372 -1.3358 -0.9303
 6612WAT    EPW27156   2.165   6.714   3.710  0.1638  0.3174  0.0696
 6613WAT      O27157   2.119   6.305   2.596 -0.1733 -0.3204 -0.6400
 6613WAT     H127158   2.156   6.361   2.652  0.2031 -0.3201 -0.8790
 6613WAT     H227159   2.058   6.265   2.643 -0.0911 -0.0764 -0.3252
 6613WAT    EPW27160   2.116   6.307   2.611  0.0232 -0.2246  0.2301
 6614WAT      O27161   4.704   4.196   2.027 -0.1239 -0.2250  0.5475
 6614WAT     H127162   4.767   4.170   1.972 -0.3689 -1.4167  0.8186
 6614WAT     H227163   4.728   4.278   2.046 -0.5252  0.5793 -2.0114
 6614WAT    EPW27164   4.717   4.205   2.021  0.7577 -0.1749 -0.5167
 6615WAT      O27165   2.807   7.664   1.313 -0.0388  0.0067 -0.2922
 6615WAT     H127166   2.875   7.717   1.297  0.0095  0.1293  0.2958
 6615WAT     H227167   2.786   7.683   1.395 -0.8549  0.0492 -0.4999
 6615WAT    EPW27168   2.814   7.675   1.322  0.1303  0.0884  0.4420
 6616WAT      O27169   5.469   6.952   7.819 -0.4887 -0.3195 -0.0301
 6616WAT     H127170   5.553   6.950   7.842  0.3392  1.3976 -2.4716
 6616WAT     H227171   5.432   6.998   7.883  0.5290 -0.6666  0.8389
 6616WAT    EPW27172   5.476   6.959   7.832 -0.4053  0.1553 -0.2589
 6617WAT      O27173   3.340   6.112   3.684  0.1837 -0.5904  0.1024
 6617WAT     H127174   3.265   6.110   3.640  0.1896 -1.4580  0.1028
 6617WAT     H227175   3.400   6.125   3.622 -0.0524  1.3678  0.2522
 6617WAT    EPW27176   3.338   6.113   3.668  0.1090  0.1936 -0.3048
 6618WAT      O27177   5.182   4.057   0.892  0.2376 -0.4659 -0.3428
 6618WAT     H127178   5.105   4.025   0.865 -0.5245  1.2690 -0.3459
 6618WAT     H227179   5.163   4.094   0.969  0.4457  2.2412 -1.5024
 6618WAT    EPW27180   5.168   4.058   0.900 -0.0071  0.1816 -0.2613
 6619WAT      O27181   3.880   5.401   2.948 -0.0529 -0.0490 -0.1004
 6619WAT     H127182   3.845   5.477   2.924 -1.0372 -0.6872 -0.8192
 6619WAT     H227183   3.811   5.348   2.952  0.6192 -0.9134  0.3336
 6619WAT    EPW27184   3.865   5.404   2.945  0.3566  0.3529 -0.0999
 6620WAT      O27185   1.289   6.693   1.834 -0.1416  0.1780 -0.3046
 6620WAT     H127186   1.373   6.695   1.808  0.0789 -0.5644  0.2981
 6620WAT     H227187   1.278   6.610   1.858 -0.9796  0.3354 -0.1279
 6620WAT    EPW27188   1.300   6.681   1.834  0.0640  0.5852  0.3142
 6621WAT      O27189   4.005   7.713   4.918 -0.3630 -0.1432  0.2879
 6621WAT     H127190   3.984   7.796   4.935 -1.6248 -0.0451 -1.5297
 6621WAT     H227191   4.090   7.717   4.897 -0.6721  0.8806 -0.8623
 6621WAT    EPW27192   4.015   7.725   4.918 -0.2037 -0.1900 -0.4049
 6622WAT      O27193   3.422   0.019   4.455 -0.6404  0.2342  0.4116
 6622WAT     H127194   3.487   0.055   4.500 -1.3185  1.1251  0.7077
 6622WAT     H227195   3.372   0.087   4.433 -0.2533 -0.1170 -1.8635
 6622WAT    EPW27196   3.424   0.035   4.458  0.0295  0.0614 -0.0521
 6623WAT      O27197   2.832   4.073   2.075  0.1688 -0.0984  0.5734
 6623WAT     H127198   2.772   4.010   2.078  1.6369 -1.7017 -1.2092
 6623WAT     H227199   2.797   4.132   2.020  0.2083 -1.0309 -0.4805
 6623WAT    EPW27200   2.818   4.072   2.068  0.4657  0.5524 -0.2917
 6624WAT      O27201   2.629   2.834   3.119  0.3230 -0.0499 -0.2490
 6624WAT     H127202   2.574   2.890   3.081 -0.6645 -0.9715 -0.2039
 6624WAT     H227203   2.671   2.884   3.177 -0.2856  0.7266 -0.4493
 6624WAT    EPW27204   2.627   2.850   3.122  0.1390  0.3372  0.0578
 6625WAT      O27205   2.045   6.815   1.426  0.1236  0.2698 -0.1151
 6625WAT     H127206   2.029   6.739   1.467 -0.6087  1.4853  1.9957
 6625WAT     H227207   2.038   6.794   1.341 -1.6016 -1.6916  0.4248
 6625WAT    EPW27208   2.042   6.801   1.419  0.2955 -0.0606 -0.0843
 6626WAT      O27209   2.641   6.779   1.921  0.3130  0.1916 -0.1091
 6626WAT     H127210   2.645   6.693   1.905  1.7869 -0.0740  1.3315
 6626WAT     H227211   2.564   6.789   1.961 -0.5291 -0.1763 -1.5773
 6626WAT    EPW27212   2.630   6.768   1.925 -0.1521 -0.2535  0.0826
 6627WAT      O27213   3.249   7.143   3.378 -0.6380 -0.6265  0.0090
 6627WAT     H127214   3.285   7.204   3.429  0.3100 -0.6595 -0.5901
 6627WAT     H227215   3.212   7.189   3.314  0.0875 -0.6759 -0.4494
 6627WAT    EPW27216   3.249   7.159   3.376 -0.2929 -0.3549 -0.6908
 6628WAT      O27217   5.277   3.803   1.445  0.4887 -0.4872  0.5645
 6628WAT     H127218   5.304   3.748   1.383  1.2701 -0.9869  1.3250
 6628WAT     H227219   5.328   3.873   1.433 -0.2887 -0.0306 -0.2007
 6628WAT    EPW27220   5.288   3.805   1.434  0.1176  0.0379 -0.0599
 6629WAT      O27221   3.320   7.984   0.268 -0.4870  0.5173  0.3457
 6629WAT     H127222   3.288   7.926   0.324 -0.4039  0.8689  0.7624
 6629WAT     H227223   3.325   7.940   0.193  1.4630 -0.6331  1.0810
 6629WAT    EPW27224   3.316   7.969   0.265  0.0421  0.2893 -0.1089
 6630WAT      O27225   2.359   5.353   1.568 -0.3218 -0.0566  0.2264
 6630WAT     H127226   2.285   5.399   1.571  0.2784  1.1370 -1.4692
 6630WAT     H227227   2.352   5.309   1.493 -0.1583 -1.4856  1.0256
 6630WAT    EPW27228   2.347   5.353   1.557  0.0122  0.1066 -0.2219
 6631WAT      O27229   4.783   0.556   0.876 -0.7248 -0.1442 -0.2206
 6631WAT     H127230   4.728   0.523   0.817 -0.5597 -0.0617 -0.4204
 6631WAT     H227231   4.813   0.485   0.918 -1.6927 -0.1372  0.5302
 6631WAT    EPW27232   4.779   0.540   0.874 -0.0355 -0.4880  0.0406
 6632WAT      O27233   5.466   6.638   2.221 -0.0499  0.1137  0.0632
 6632WAT     H127234   5.482   6.646   2.307  2.0178  2.2198 -0.4293
 6632WAT     H227235   5.395   6.687   2.209 -2.5295 -2.9360  0.9990
 6632WAT    EPW27236   5.458   6.646   2.232 -0.1031  0.0320  0.2868
 6633WAT      O27237   1.572   4.756   7.529  0.0611  0.0897 -0.3954
 6633WAT     H127238   1.489   4.783   7.529  0.1225  0.6493  2.3722
 6633WAT     H227239   1.618   4.830   7.530  0.3995 -0.0715  1.7726
 6633WAT    EPW27240   1.567   4.771   7.529  0.3762 -0.0162 -0.2552
 6634WAT      O27241   2.727   4.682   5.173  0.0100  0.8439 -0.3148
 6634WAT     H127242   2.793   4.709   5.123 -0.2613  3.1665  0.4530
 6634WAT     H227243   2.767   4.647   5.243  0.3824 -2.0925 -1.8526
 6634WAT    EPW27244   2.743   4.680   5.176 -0.1433 -0.0090 -0.5411
 6635WAT      O27245   1.889   2.953   6.084 -0.2819 -0.1265  0.4489
 6635WAT     H127246   1.968   2.953   6.122 -0.2362  3.0387  0.6002
 6635WAT     H227247   1.907   2.976   6.001 -1.0744  1.6958  0.7431
 6635WAT    EPW27248   1.904   2.956   6.077  0.2480  0.5018  0.3161
 6636WAT      O27249   3.224   0.607   5.460 -0.3817  0.2012 -0.2401
 6636WAT     H127250   3.154   0.574   5.500  0.5721 -1.0610  0.4248
 6636WAT     H227251   3.268   0.536   5.433  0.5108  0.9804 -0.9024
 6636WAT    EPW27252   3.220   0.592   5.462  0.5236  0.3240 -0.6992
 6637WAT      O27253   1.978   6.002   4.642 -0.1991  0.4495  0.5885
 6637WAT     H127254   1.974   5.991   4.729  0.1121  1.2569  0.7218
 6637WAT     H227255   2.056   6.041   4.631 -0.5093  0.9198  0.0233
 6637WAT    EPW27256   1.989   6.006   4.653  0.2751 -0.3879 -1.0700
 6638WAT      O27257   1.438   3.289   2.534 -0.0624 -0.3163 -0.2298
 6638WAT     H127258   1.461   3.208   2.559  0.0603 -0.2873 -0.2480
 6638WAT     H227259   1.508   3.317   2.489 -0.7683 -0.8749 -1.7471
 6638WAT    EPW27260   1.452   3.281   2.531  0.2735  0.0195  0.5626
 6639WAT      O27261   5.385   8.031   2.675  0.3438  0.2355 -0.7017
 6639WAT     H127262   5.371   8.083   2.606 -0.4580  1.0978  0.0905
 6639WAT     H227263   5.429   7.964   2.641  0.7290  1.0606 -1.8943
 6639WAT    EPW27264   5.389   8.029   2.660  0.5442  0.1007 -0.2059
 6640WAT      O27265   0.797   7.936   1.107 -0.1851 -0.0640  0.3884
 6640WAT     H127266   0.843   7.991   1.157 -1.2969  0.8432  0.4553
 6640WAT     H227267   0.791   7.864   1.156  1.3777 -0.3188  0.2605
 6640WAT    EPW27268   0.803   7.934   1.122 -0.0923  0.4237  0.0022
 6641WAT      O27269   4.522   4.357   2.955 -0.3509 -0.3152 -0.2753
 6641WAT     H127270   4.476   4.421   2.992 -4.3618 -2.8198 -0.3397
 6641WAT     H227271   4.550   4.310   3.023  0.4512  0.0879 -0.3065
 6641WAT    EPW27272   4.520   4.360   2.971 -0.8556  0.0537  0.2435
 6642WAT      O27273   5.479   6.160   1.211  0.2054  0.4146 -0.3510
 6642WAT     H127274   5.424   6.107   1.254 -0.8490  1.0377 -0.8964
 6642WAT     H227275   5.495   6.224   1.269 -2.5785  2.1866 -1.3104
 6642WAT    EPW27276   5.473   6.162   1.226  0.0526  0.1286 -0.2338
 6643WAT      O27277   2.430   7.502   4.290 -0.2385 -0.7018  0.1250
 6643WAT     H127278   2.463   7.582   4.286  2.0132 -1.5947 -1.3491
 6643WAT     H227279   2.354   7.508   4.247  1.1573  0.1695 -2.4353
 6643WAT    EPW27280   2.424   7.515   4.283 -1.1372  0.3581  0.6412
 6644WAT      O27281   3.156   6.424   4.475  0.4142 -0.3699  0.3170
 6644WAT     H127282   3.241   6.421   4.457  0.2615 -2.5470 -0.4005
 6644WAT     H227283   3.129   6.342   4.459 -1.7137  0.1215  1.0249
 6644WAT    EPW27284   3.164   6.411   4.470  0.3054 -0.0301 -0.8624
 6645WAT      O27285   4.748   5.505   2.553  0.7020 -0.2604  0.2910
 6645WAT     H127286   4.736   5.423   2.581 -0.3282 -0.3138 -0.2803
 6645WAT     H227287   4.791   5.495   2.477  0.7086 -0.2540  0.2938
 6645WAT    EPW27288   4.753   5.491   2.546  0.4777  0.5883 -0.7423
 6646WAT      O27289   2.166   1.985   7.546  0.1670  0.2860  0.5064
 6646WAT     H127290   2.218   1.924   7.581  0.4119  0.3084  0.1864
 6646WAT     H227291   2.221   2.032   7.497  0.3252  1.8210  2.0787
 6646WAT    EPW27292   2.182   1.983   7.544  0.0733  0.1236 -0.0010
 6647WAT      O27293   3.296   6.288   3.357  1.3382  0.4797  0.1272
 6647WAT     H127294   3.335   6.236   3.414  1.6541  0.7702  0.1840
 6647WAT     H227295   3.224   6.314   3.398  0.6229 -0.7344 -0.3032
 6647WAT    EPW27296   3.291   6.284   3.371  0.8065  0.2097  0.0349
 6648WAT      O27297   3.592   5.327   5.712  0.3490  0.0634 -0.6519
 6648WAT     H127298   3.621   5.403   5.680 -0.1828  0.4292 -0.2972
 6648WAT     H227299   3.551   5.290   5.645  3.6867 -1.6506 -1.9472
 6648WAT    EPW27300   3.590   5.333   5.698 -0.0150  0.3743 -0.5366
 6649WAT      O27301   4.917   4.568   1.832 -0.4493  0.0062 -0.4491
 6649WAT     H127302   5.002   4.551   1.839 -0.7919 -1.1758  3.1758
 6649WAT     H227303   4.893   4.525   1.760  1.6072 -1.7267 -0.2079
 6649WAT    EPW27304   4.926   4.559   1.822  0.1223 -0.3644 -0.2265
 6650WAT      O27305   4.196   4.778   1.179  0.3151  0.1234  0.3987
 6650WAT     H127306   4.202   4.809   1.098 -0.2491 -0.3775  0.1602
 6650WAT     H227307   4.266   4.726   1.186 -1.4899 -2.7743 -1.0912
 6650WAT    EPW27308   4.207   4.775   1.168 -0.4672  0.1160  0.2363
 6651WAT      O27309   5.846   4.060   2.286  0.0292 -0.7897  0.2454
 6651WAT     H127310   5.785   4.027   2.339 -2.3738  1.9102 -0.5740
 6651WAT     H227311   5.814   4.139   2.265  2.8037 -0.1110 -2.0144
 6651WAT    EPW27312   5.832   4.067   2.291 -0.0497  0.0189 -0.7808
 6652WAT      O27313   4.934   7.226   3.999 -0.3321 -0.2912  0.2230
 6652WAT     H127314   4.990   7.266   3.945  0.8977 -0.3684  1.3575
 6652WAT     H227315   4.876   7.288   4.018  0.0725  0.1762 -0.0431
 6652WAT    EPW27316   4.934   7.241   3.994  0.0482  0.6506 -0.2900
 6653WAT      O27317   4.278   5.221   5.191  0.0417 -0.2329 -0.2156
 6653WAT     H127318   4.198   5.190   5.175 -0.2212 -0.5630  1.5795
 6653WAT     H227319   4.307   5.169   5.255  0.4111  1.9190  1.4398
 6653WAT    EPW27320   4.271   5.208   5.198 -0.3425  0.7128 -0.0970
 6654WAT      O27321   6.574   1.343   4.722  0.2216 -0.4993  0.0035
 6654WAT     H127322   6.625   1.383   4.663  0.2418 -0.3072  0.1495
 6654WAT     H227323   6.631   1.316   4.782  0.0484  0.7537  0.7713
 6654WAT    EPW27324   6.590   1.345   4.722  0.5796 -0.2553  0.1052
 6655WAT      O27325   1.325   5.182   2.600  0.0447 -0.5378 -0.0868
 6655WAT     H127326   1.306   5.149   2.678  1.1192  1.0301  0.8981
 6655WAT     H227327   1.406   5.154   2.584  0.6892  0.9109  0.4316
 6655WAT    EPW27328   1.334   5.173   2.609 -0.1099 -0.4532 -0.3213
 6656WAT      O27329   4.053   5.974   7.931 -0.5138  0.1225 -0.4001
 6656WAT     H127330   3.983   5.943   7.972 -0.1334 -0.1208  0.0694
 6656WAT     H227331   4.027   5.979   7.848 -0.8235 -0.7546 -0.3707
 6656WAT    EPW27332   4.039   5.970   7.925  0.2328  0.7564  0.1314
 6657WAT      O27333   2.394   6.274   6.787 -0.1720 -0.3274 -0.3162
 6657WAT     H127334   2.408   6.218   6.853 -1.8378 -0.4740 -0.0338
 6657WAT     H227335   2.352   6.340   6.824 -0.8846 -0.2803 -1.1577
 6657WAT    EPW27336   2.390   6.275   6.802 -0.2654 -0.4871  0.3366
 6658WAT      O27337   4.357   0.621   0.828 -0.3540 -0.1918  0.0682
 6658WAT     H127338   4.300   0.687   0.826  0.4620  0.5142 -2.1924
 6658WAT     H227339   4.313   0.554   0.794  0.3431  0.5819 -2.5250
 6658WAT    EPW27340   4.342   0.621   0.823 -0.2112 -0.0835 -0.1376
 6659WAT      O27341   2.646   4.174   0.466 -0.2081 -0.4133  0.3195
 6659WAT     H127342   2.727   4.206   0.465  0.2883 -1.5534  1.1476
 6659WAT     H227343   2.613   4.202   0.542 -0.8865  0.6575 -0.3351
 6659WAT    EPW27344   2.653   4.183   0.477 -0.0805 -0.3689  0.3206
 6660WAT      O27345   1.848   4.591   3.037 -0.2924  0.4874  0.1367
 6660WAT     H127346   1.865   4.661   3.087  1.9705  0.0643  0.0624
 6660WAT     H227347   1.830   4.528   3.095 -0.6600  0.7080  0.2677
 6660WAT    EPW27348   1.848   4.592   3.053 -0.7625 -0.5066 -0.0620
 6661WAT      O27349   4.944   7.632   7.024  0.3018 -0.1369 -0.0598
 6661WAT     H127350   5.014   7.659   7.068  1.0128 -1.1989 -0.4946
 6661WAT     H227351   4.879   7.639   7.082  1.2395 -1.7035  1.2812
 6661WAT    EPW27352   4.945   7.637   7.039 -0.1135  0.9456 -0.2470
 6662WAT      O27353   2.381   6.750   5.372  0.4135 -0.5470 -0.3776
 6662WAT     H127354   2.436   6.772   5.436 -1.3337 -0.0650  1.0505
 6662WAT     H227355   2.426   6.691   5.326  2.4364  0.4658  0.1501
 6662WAT    EPW27356   2.396   6.744   5.374  0.0003 -0.2508  0.2894
 6663WAT      O27357   7.746   3.675   1.303 -0.0413 -0.4143  0.2311
 6663WAT     H127358   7.828   3.645   1.308 -0.2295 -0.8723  0.6548
 6663WAT     H227359   7.746   3.720   1.228  0.0170 -2.2479 -0.9457
 6663WAT    EPW27360   7.758   3.677   1.293 -0.0846  0.9970 -0.5253
 6664WAT      O27361   4.224   6.049   5.069  0.1090  0.5098 -0.0358
 6664WAT     H127362   4.190   6.064   4.990  0.2102  1.1821  0.0407
 6664WAT     H227363   4.194   6.116   5.117  0.9331  0.7131  0.2144
 6664WAT    EPW27364   4.215   6.061   5.064 -0.0117 -0.2352 -0.6055
 6665WAT      O27365   4.595   7.504   0.379 -0.1380 -0.0927  0.1241
 6665WAT     H127366   4.598   7.438   0.323 -3.3131  0.2357 -0.6135
 6665WAT     H227367   4.608   7.574   0.329  1.4007  0.0088  0.6066
 6665WAT    EPW27368   4.597   7.505   0.364  0.6648  0.3170 -0.8923
 6666WAT      O27369   5.646   3.994   3.955  0.0344  0.1925  0.0863
 6666WAT     H127370   5.559   3.999   3.962 -0.0246 -1.9823  1.7566
 6666WAT     H227371   5.674   4.032   4.028  0.5856  1.5868 -0.8019
 6666WAT    EPW27372   5.637   4.001   3.967 -0.4366  0.3633 -0.1265
 6667WAT      O27373   4.520   0.357   5.091  0.5073  0.2013  0.0100
 6667WAT     H127374   4.569   0.414   5.046  0.6317 -0.5240 -0.8049
 6667WAT     H227375   4.555   0.359   5.171  0.3830  1.4011  0.0534
 6667WAT    EPW27376   4.533   0.366   5.096 -0.5324 -0.0188 -0.1197
 6668WAT      O27377   0.785   0.141   0.828  0.5526 -0.3040  0.2155
 6668WAT     H127378   0.757   0.068   0.865  0.9540  0.5622  2.3662
 6668WAT     H227379   0.872   0.131   0.826  0.5282 -0.4339 -0.7657
 6668WAT    EPW27380   0.794   0.129   0.833 -0.5806 -0.2902 -0.3758
 6669WAT      O27381   4.104   4.142   2.359  0.6230  0.2606  0.0475
 6669WAT     H127382   4.170   4.197   2.370  0.4266  0.3287  0.9411
 6669WAT     H227383   4.116   4.082   2.422 -1.2408  1.3462  1.5401
 6669WAT    EPW27384   4.115   4.141   2.370 -0.0857 -0.3148 -0.5028
 6670WAT      O27385   6.085   7.667   3.096  0.5934 -0.1611 -0.1044
 6670WAT     H127386   6.125   7.634   3.026  0.9171 -0.3000  0.1403
 6670WAT     H227387   6.090   7.753   3.084  0.7993 -0.1814 -0.1682
 6670WAT    EPW27388   6.092   7.675   3.084  0.6928 -0.0128 -0.3058
 6671WAT      O27389   3.829   3.772   1.706 -0.2121 -0.3193 -0.5584
 6671WAT     H127390   3.792   3.761   1.784  1.0677 -0.3329  0.0856
 6671WAT     H227391   3.843   3.858   1.701  0.5764 -0.4306 -0.3436
 6671WAT    EPW27392   3.826   3.783   1.717 -0.4030  0.4065 -0.2639
 6672WAT      O27393   0.410   2.296   4.979  0.2938  0.1054  0.0593
 6672WAT     H127394   0.340   2.318   4.931 -0.5797 -1.3674  0.6081
 6672WAT     H227395   0.467   2.360   4.961 -0.6816  0.6164 -1.4635
 6672WAT    EPW27396   0.408   2.309   4.969  0.1038 -0.0394 -0.0155
 6673WAT      O27397   0.314   7.281   2.729  0.4633  0.3496 -0.2620
 6673WAT     H127398   0.343   7.308   2.651 -0.5859 -0.2862 -0.8981
 6673WAT     H227399   0.330   7.196   2.729 -1.8019 -0.1572 -0.8931
 6673WAT    EPW27400   0.320   7.273   2.718 -0.1925 -0.4741 -0.4798
 6674WAT      O27401   1.587   3.093   4.625 -0.0730  0.3083  0.6101
 6674WAT     H127402   1.599   3.008   4.641  0.6883  0.3077  0.1016
 6674WAT     H227403   1.658   3.131   4.658  0.6712  0.4883 -1.0509
 6674WAT    EPW27404   1.599   3.086   4.632 -0.0719  0.4011  0.1744
 6675WAT      O27405   4.749   5.249   2.628  0.0142  0.1923 -0.0030
 6675WAT     H127406   4.689   5.220   2.572  0.9284 -0.7454 -0.5432
 6675WAT     H227407   4.801   5.180   2.640 -0.0279  0.4259  1.8587
 6675WAT    EPW27408   4.748   5.234   2.621 -0.3780 -0.4650  0.0643
 6676WAT      O27409   1.391   7.326   2.017 -1.0466 -0.0793  0.3368
 6676WAT     H127410   1.430   7.360   2.087 -1.8431  0.3082  0.5994
 6676WAT     H227411   1.443   7.350   1.951 -0.4677 -0.1696  0.7542
 6676WAT    EPW27412   1.405   7.334   2.017 -0.1693 -0.0047  0.1332
 6677WAT      O27413   4.239   4.983   0.030  0.0086  0.3036  0.4436
 6677WAT     H127414   4.221   5.015  -0.048  1.0772  0.1871  0.1256
 6677WAT     H227415   4.263   5.053   0.076 -0.6937  0.3828  0.6948
 6677WAT    EPW27416   4.240   4.998   0.026  0.1552 -0.1961 -0.9174
 6678WAT      O27417   8.099   6.915   0.906 -0.1129  0.1119  0.1807
 6678WAT     H127418   8.059   6.877   0.974 -0.4477 -2.2125 -1.2052
 6678WAT     H227419   8.037   6.919   0.845  1.0969 -1.6201 -1.3019
 6678WAT    EPW27420   8.084   6.910   0.907  0.1723  0.1708  0.0971
 6679WAT      O27421   2.354   5.079   1.676 -0.0429  0.2800  0.4692
 6679WAT     H127422   2.366   5.153   1.630 -0.0226  0.8114  1.2978
 6679WAT     H227423   2.277   5.050   1.648 -0.5404  1.1762  0.8554
 6679WAT    EPW27424   2.344   5.086   1.665  0.0053 -0.8162 -0.7686
 6680WAT      O27425   1.672   7.576   7.476 -0.2351 -0.0603 -0.0202
 6680WAT     H127426   1.624   7.586   7.404  1.6635 -0.6068 -1.4266
 6680WAT     H227427   1.640   7.503   7.512 -0.3384 -0.5270 -1.0295
 6680WAT    EPW27428   1.660   7.567   7.471 -0.4354 -0.5054  0.1610
 6681WAT      O27429   0.083   3.609   1.803  0.2090  0.3445 -0.2971
 6681WAT     H127430   0.107   3.636   1.883 -1.8076  0.6901  0.2461
 6681WAT     H227431   0.044   3.532   1.819 -0.0174  0.3105 -0.9846
 6681WAT    EPW27432   0.081   3.602   1.818  0.2376  0.0661 -0.2916
 6682WAT      O27433   3.975   4.664   7.387  0.6009 -0.0110 -0.1208
 6682WAT     H127434   3.956   4.728   7.332  1.8131  0.5212  0.0408
 6682WAT     H227435   4.035   4.617   7.344  0.9467 -0.0667  0.3999
 6682WAT    EPW27436   3.981   4.666   7.373 -0.0343  0.1196 -0.2573
 6683WAT      O27437   2.639   5.583   3.055  0.3166  0.2633  0.6002
 6683WAT     H127438   2.609   5.502   3.047  0.2678  0.3209  0.1706
 6683WAT     H227439   2.719   5.572   3.088  0.2388  0.0486  0.7147
 6683WAT    EPW27440   2.647   5.569   3.058  0.1527 -0.4477  0.5113
 6684WAT      O27441   4.422   7.012   1.800  0.3747 -0.2772  0.1939
 6684WAT     H127442   4.374   6.977   1.864  0.5516 -0.5298  0.1860
 6684WAT     H227443   4.402   7.097   1.805 -2.0412 -0.6410 -1.4359
 6684WAT    EPW27444   4.412   7.020   1.810 -0.5364 -0.2033  0.0396
 6685WAT      O27445   5.737   5.278   5.551  0.2074  0.2078  0.7110
 6685WAT     H127446   5.728   5.191   5.545  0.6050  0.2048  0.0994
 6685WAT     H227447   5.655   5.306   5.565 -0.0526 -0.2054  0.0957
 6685WAT    EPW27448   5.723   5.269   5.552 -0.3563 -0.1301  0.4984
 6686WAT      O27449   1.382   7.781   1.721  0.0921  0.1265 -0.0503
 6686WAT     H127450   1.331   7.851   1.733  1.5713  1.3988 -0.8367
 6686WAT     H227451   1.448   7.794   1.776  0.7166 -0.3154 -0.6819
 6686WAT    EPW27452   1.384   7.793   1.731  0.3820  0.1453  0.5083
 6687WAT      O27453   5.833   3.554   1.631 -0.5349  0.2414 -0.2830
 6687WAT     H127454   5.831   3.541   1.545  0.7441  1.6784 -0.5888
 6687WAT     H227455   5.807   3.637   1.639 -1.5365 -0.1523  0.8315
 6687WAT    EPW27456   5.829   3.564   1.619  0.2014 -0.2338 -0.5658
 6688WAT      O27457   8.013   7.098   2.018  0.8793  0.9084  0.1574
 6688WAT     H127458   8.052   7.169   1.986  3.6134 -0.4586  0.0932
 6688WAT     H227459   7.989   7.054   1.947  2.5087  0.1493  0.0265
 6688WAT    EPW27460   8.016   7.102   2.003  0.4365 -0.4259 -0.2386
 6689WAT      O27461   5.302   5.615   2.044 -0.4922  0.0932 -0.0917
 6689WAT     H127462   5.322   5.672   2.107 -1.0275 -0.1380  0.2930
 6689WAT     H227463   5.349   5.545   2.065  2.2375  1.1743 -1.9911
 6689WAT    EPW27464   5.312   5.613   2.057 -0.3377 -0.6501  0.1538
 6690WAT      O27465   0.999   6.512   2.926  0.9749 -0.5720  0.1343
 6690WAT     H127466   0.934   6.512   2.868  0.5214  1.9237  0.5471
 6690WAT     H227467   1.068   6.485   2.879 -0.2167 -3.0702 -0.3507
 6690WAT    EPW27468   1.000   6.508   2.910  0.3769  0.4359 -0.0756
 6691WAT      O27469   7.312   0.403   0.614  0.5862 -0.0112  0.4837
 6691WAT     H127470   7.358   0.414   0.687  1.8300 -0.0371 -0.2743
 6691WAT     H227471   7.372   0.387   0.553 -0.3398  1.0205 -0.7651
 6691WAT    EPW27472   7.328   0.402   0.615 -0.2360  0.4028 -0.1748
 6692WAT      O27473   2.112   7.663   8.003  0.1264 -0.3030  0.1757
 6692WAT     H127474   2.039   7.615   8.003  1.2165 -2.1379 -2.0703
 6692WAT     H227475   2.099   7.720   7.939  0.3674 -0.1059  0.3018
 6692WAT    EPW27476   2.099   7.664   7.994  0.3486 -0.1162  0.3831
 6693WAT      O27477   0.920   4.791   1.441 -0.2579 -0.3005  0.3068
 6693WAT     H127478   0.943   4.793   1.357  0.6773  2.0374  0.5352
 6693WAT     H227479   0.961   4.720   1.472 -0.5587 -1.1481 -1.1666
 6693WAT    EPW27480   0.930   4.781   1.433  1.0863  0.2131  0.0175
 6694WAT      O27481   3.762   7.398   1.037  0.0588  0.6119  0.2394
 6694WAT     H127482   3.764   7.345   0.968  0.9660 -0.4297  1.0305
 6694WAT     H227483   3.777   7.477   1.003  2.3559 -0.1107 -0.5767
 6694WAT    EPW27484   3.764   7.402   1.022  0.0616  0.3556  0.4990
 6695WAT      O27485   3.683   3.579   0.819  0.2500  0.3612  0.1852
 6695WAT     H127486   3.627   3.607   0.880  0.3358  3.1172 -0.8444
 6695WAT     H227487   3.757   3.622   0.837  1.4343 -1.5930  0.2472
 6695WAT    EPW27488   3.686   3.590   0.831  0.3337  0.1472  0.2811
 6696WAT      O27489   4.505   1.696   2.195 -0.4857  0.8787  0.2109
 6696WAT     H127490   4.544   1.726   2.123  0.7364 -1.4347 -0.1908
 6696WAT     H227491   4.427   1.671   2.167  0.5416 -1.5249 -0.8121
 6696WAT    EPW27492   4.499   1.697   2.181 -0.3401  0.0529  0.0158
 6697WAT      O27493   3.805   6.083   6.094 -0.3233 -0.1106  0.5151
 6697WAT     H127494   3.882   6.067   6.058  0.2034 -0.0461  1.5645
 6697WAT     H227495   3.769   6.141   6.041  0.8362  0.7282  0.6163
 6697WAT    EPW27496   3.811   6.089   6.081 -0.2025 -0.7436  0.3836
 6698WAT      O27497   2.687   1.410   7.995  0.4148 -0.6601  0.5084
 6698WAT     H127498   2.682   1.348   8.056 -1.6071 -0.9785  0.0978
 6698WAT     H227499   2.638   1.475   8.028 -0.0788 -0.5386 -0.4178
 6698WAT    EPW27500   2.679   1.410   8.009 -0.3191 -0.5613 -0.1516
 6699WAT      O27501   6.133   7.018   4.093  0.0180  0.3164 -0.1431
 6699WAT     H127502   6.197   7.041   4.038  1.2420 -0.7501  0.7685
 6699WAT     H227503   6.175   6.982   4.160 -1.4959  0.5861  1.0172
 6699WAT    EPW27504   6.148   7.016   4.094 -0.3151  0.1608 -0.3263
 6700WAT      O27505   4.643   4.283   0.822  0.5373  0.5385  1.0004
 6700WAT     H127506   4.672   4.227   0.762 -2.5073  1.7186 -1.8980
 6700WAT     H227507   4.678   4.359   0.798  0.6321  0.7672  1.8145
 6700WAT    EPW27508   4.652   4.286   0.810  0.4224  0.0054 -0.0929
 6701WAT      O27509   2.094   6.199   7.433 -0.0206  0.0841  0.3043
 6701WAT     H127510   2.163   6.213   7.381 -1.2240 -0.5481 -1.5960
 6701WAT     H227511   2.090   6.112   7.438 -0.6503  0.1144  0.3982
 6701WAT    EPW27512   2.104   6.188   7.426  0.3395  0.0712  0.0103
 6702WAT      O27513   0.590   3.279   1.744  0.4625 -0.2718 -0.0397
 6702WAT     H127514   0.613   3.201   1.712  0.4323 -0.1225 -0.4314
 6702WAT     H227515   0.650   3.333   1.712 -0.6756  0.2063 -1.4714
 6702WAT    EPW27516   0.602   3.275   1.735  0.2641  0.0745  0.8506
 6703WAT      O27517   0.864   7.913   7.946  0.1975  0.3927  0.0474
 6703WAT     H127518   0.851   7.965   7.877  0.3220  0.8328  0.3511
 6703WAT     H227519   0.819   7.952   8.010  0.5527  0.3098  0.3548
 6703WAT    EPW27520   0.856   7.927   7.945 -0.6581 -0.0889  0.5057
 6704WAT      O27521   3.250   2.280   3.145  0.5940  0.0685 -0.6253
 6704WAT     H127522   3.179   2.324   3.172  0.5274 -0.2646 -0.2609
 6704WAT     H227523   3.315   2.337   3.159  0.4258  0.3081 -0.7933
 6704WAT    EPW27524   3.249   2.295   3.151 -0.3419  0.8018  0.1283
 6705WAT      O27525   3.400   4.856   2.440 -0.9094 -0.5195 -0.1970
 6705WAT     H127526   3.330   4.891   2.401 -0.3634  1.2454  0.3018
 6705WAT     H227527   3.367   4.816   2.510 -1.7195 -2.3514 -1.5683
 6705WAT    EPW27528   3.385   4.856   2.445  0.0808  0.2190  0.6323
 6706WAT      O27529   2.764   4.857   3.141 -0.0968 -0.4762  0.2701
 6706WAT     H127530   2.766   4.807   3.069 -1.7447  1.9261 -1.5868
 6706WAT     H227531   2.796   4.804   3.203  3.3081 -2.0878 -2.4925
 6706WAT    EPW27532   2.769   4.842   3.140 -0.1932 -0.1077  0.5853
 6707WAT      O27533   2.018   0.178   7.653  0.2029  0.9690  0.8489
 6707WAT     H127534   2.081   0.154   7.709  0.1680 -1.2036  0.0378
 6707WAT     H227535   1.947   0.137   7.683  0.3197 -0.7622 -1.0832
 6707WAT    EPW27536   2.017   0.169   7.666 -0.3217 -0.3209 -0.6597
 6708WAT      O27537   4.392   4.210   0.070  0.0756 -0.0101 -0.0985
 6708WAT     H127538   4.386   4.268   0.005  0.0254 -0.9494 -0.9563
 6708WAT     H227539   4.372   4.134   0.032 -0.6669 -0.4850  1.1830
 6708WAT    EPW27540   4.388   4.207   0.055  0.2519  0.2440  0.3976
 6709WAT      O27541   5.108   6.123   4.266 -0.1501 -0.2490 -0.3186
 6709WAT     H127542   5.124   6.208   4.263 -1.2749  0.0759  1.4001
 6709WAT     H227543   5.180   6.089   4.302 -0.8137  0.4212  1.8102
 6709WAT    EPW27544   5.121   6.130   4.271 -0.6204 -0.0846  0.4849
 6710WAT      O27545   0.206   2.435   1.035 -0.2637 -0.3678  0.7843
 6710WAT     H127546   0.193   2.432   0.949  1.1647  1.0625  0.4708
 6710WAT     H227547   0.248   2.360   1.052  0.1520 -0.3014  0.0878
 6710WAT    EPW27548   0.210   2.424   1.025 -0.3755 -0.1440  0.2537
 6711WAT      O27549   1.861   6.024   7.761 -0.2600 -0.0711 -0.2508
 6711WAT     H127550   1.828   6.089   7.808 -2.8464 -3.1822  2.7401
 6711WAT     H227551   1.939   6.010   7.798  0.6786  1.6760 -1.4437
 6711WAT    EPW27552   1.868   6.032   7.773 -0.0074  0.4823  0.2004
 6712WAT      O27553   5.124   6.086   1.374 -0.7234 -0.7355  0.1432
 6712WAT     H127554   5.182   6.021   1.382 -0.2448 -0.1995  1.3275
 6712WAT     H227555   5.073   6.060   1.308  0.1225 -1.7923 -0.1295
 6712WAT    EPW27556   5.125   6.072   1.365  0.3299 -0.0396  0.4991
 6713WAT      O27557   4.245   5.535   3.271  0.5333  0.4327 -0.5378
 6713WAT     H127558   4.164   5.512   3.246 -0.2722  2.6991 -0.2448
 6713WAT     H227559   4.255   5.615   3.238  2.0921  0.7998  0.6918
 6713WAT    EPW27560   4.234   5.543   3.263 -0.6026  0.0959  0.5177
 6714WAT      O27561   1.944   0.221   1.515 -0.4109 -0.3312 -0.2312
 6714WAT     H127562   1.900   0.280   1.562  1.6632  1.2424 -0.1656
 6714WAT     H227563   1.893   0.150   1.519 -2.9949  1.3874 -0.2898
 6714WAT    EPW27564   1.930   0.219   1.522 -0.3856 -0.0755 -0.0449
 6715WAT      O27565   3.733   4.461   7.292 -0.6678 -0.2641 -0.1386
 6715WAT     H127566   3.682   4.530   7.309 -0.7975 -0.2001 -0.7671
 6715WAT     H227567   3.812   4.496   7.280 -0.2855 -0.4323  1.5846
 6715WAT    EPW27568   3.737   4.476   7.293  0.3972 -0.1315  0.1204
 6716WAT      O27569   1.775   6.268   1.569 -0.1646 -0.0798 -0.0110
 6716WAT     H127570   1.814   6.291   1.644 -0.2396 -1.9957  0.6584
 6716WAT     H227571   1.691   6.288   1.582 -0.1602 -0.3121  0.3585
 6716WAT    EPW27572   1.768   6.275   1.582 -0.2486 -0.6834 -0.0353
 6717WAT      O27573   1.225   0.478   3.170  0.4176  0.4532 -0.0466
 6717WAT     H127574   1.162   0.490   3.111  1.0449 -1.9230 -1.3335
 6717WAT     H227575   1.183   0.482   3.247 -0.5117  3.0473 -0.5893
 6717WAT    EPW27576   1.209   0.480   3.173  0.4424 -0.3176 -0.2989
 6718WAT      O27577   5.491   7.169   3.355  0.5520 -0.2518 -0.0983
 6718WAT     H127578   5.496   7.177   3.268 -0.6474 -2.3769 -0.4363
 6718WAT     H227579   5.513   7.086   3.369 -2.8073 -1.0916  1.1787
 6718WAT    EPW27580   5.495   7.158   3.344  0.2562 -0.2681  0.1110
 6719WAT      O27581   2.209   6.099   1.804 -0.2541  0.3492  0.1834
 6719WAT     H127582   2.259   6.077   1.736 -2.0764  3.2813 -2.3610
 6719WAT     H227583   2.262   6.147   1.854  0.5601 -0.0855 -0.2503
 6719WAT    EPW27584   2.224   6.103   1.801  0.5354 -0.3455  0.8305
 6720WAT      O27585   4.180   5.003   1.682  0.0855  0.7776  0.0932
 6720WAT     H127586   4.110   5.053   1.665 -0.1525  0.4202  0.0195
 6720WAT     H227587   4.190   4.957   1.609 -0.2329  0.0807  0.4769
 6720WAT    EPW27588   4.171   5.004   1.669  0.1820  0.1688 -0.1189
 6721WAT      O27589   7.231   6.011   4.260 -0.3116 -0.3607  0.3421
 6721WAT     H127590   7.187   6.083   4.239  0.7681  0.3209  0.3157
 6721WAT     H227591   7.182   5.947   4.228 -1.1613  0.3768  0.1299
 6721WAT    EPW27592   7.217   6.012   4.252 -0.5137 -0.5514 -0.0353
 6722WAT      O27593   4.384   0.795   0.380  0.7666 -0.0097 -0.3916
 6722WAT     H127594   4.461   0.787   0.420  0.0843 -0.9982  0.8562
 6722WAT     H227595   4.349   0.866   0.416  0.4640 -0.4759  0.2761
 6722WAT    EPW27596   4.390   0.804   0.391 -0.2316 -0.2094  0.0526
 6723WAT      O27597   6.736   4.191   0.223 -0.1588 -0.0265  0.2824
 6723WAT     H127598   6.758   4.275   0.230  0.9079 -0.1941 -0.8056
 6723WAT     H227599   6.664   4.192   0.173  0.3919  0.1824 -0.5106
 6723WAT    EPW27600   6.728   4.203   0.217  0.4365  0.4103  0.5277
 6724WAT      O27601   3.600   0.821   3.118  0.0203  0.0800  0.5978
 6724WAT     H127602   3.528   0.804   3.071  0.2007  0.3517  0.2207
 6724WAT     H227603   3.589   0.772   3.190  0.0144 -0.7983  0.0214
 6724WAT    EPW27604   3.587   0.811   3.122  0.1487  0.2501  0.1096
 6725WAT      O27605   1.532   7.404   2.244 -0.1113  0.3804 -0.5130
 6725WAT     H127606   1.610   7.442   2.243  0.0049  0.1425 -0.6234
 6725WAT     H227607   1.551   7.319   2.250 -0.3878  0.4122  1.3388
 6725WAT    EPW27608   1.546   7.397   2.244  0.2338 -0.0666 -0.3003
 6726WAT      O27609   3.016   5.176   1.384  0.1977 -0.0660 -0.0067
 6726WAT     H127610   3.062   5.222   1.443 -2.7998  1.0426  1.7060
 6726WAT     H227611   2.980   5.112   1.431  0.0617 -0.9850 -1.2967
 6726WAT    EPW27612   3.017   5.174   1.400 -0.2076  0.0303 -0.1152
 6727WAT      O27613   7.954   5.046   2.124  0.5809  0.2562 -0.0743
 6727WAT     H127614   7.910   4.987   2.171 -1.9363  1.0005 -1.2986
 6727WAT     H227615   7.985   4.999   2.057  2.0785 -0.3326  0.9515
 6727WAT    EPW27616   7.952   5.030   2.121 -0.0932 -0.4901  0.4279
 6728WAT      O27617   3.473   5.650   5.467  0.5592 -0.1703  0.2241
 6728WAT     H127618   3.506   5.672   5.389 -1.1467 -1.0656 -0.8304
 6728WAT     H227619   3.435   5.572   5.452  0.2445 -0.4004  1.9766
 6728WAT    EPW27620   3.472   5.642   5.453 -0.5534  0.2151 -0.3747
 6729WAT      O27621   4.526   5.620   1.776 -0.0790  0.1337  0.0098
 6729WAT     H127622   4.613   5.616   1.785 -0.0682  0.6033  0.1147
 6729WAT     H227623   4.515   5.671   1.706 -0.2757  0.3203  0.1760
 6729WAT    EPW27624   4.537   5.627   1.767 -0.1159  0.5867 -0.0594
 6730WAT      O27625   6.612   7.115   2.275  0.2628 -0.2978  0.0807
 6730WAT     H127626   6.635   7.129   2.192 -0.3497  1.8738  0.2199
 6730WAT     H227627   6.527   7.100   2.271 -0.0456  1.1740  0.3825
 6730WAT    EPW27628   6.603   7.115   2.263 -0.2099  0.3718 -0.0088
 6731WAT      O27629   3.621   0.150   3.357  0.0750  0.4320 -0.1570
 6731WAT     H127630   3.670   0.110   3.297 -0.3476  1.6876 -1.3970
 6731WAT     H227631   3.637   0.235   3.344 -1.4082  0.8147  0.2720
 6731WAT    EPW27632   3.631   0.157   3.346  0.5983  0.4672  1.2197
 6732WAT      O27633   1.416   6.698   2.612 -0.3443  0.4722  0.0822
 6732WAT     H127634   1.450   6.687   2.692 -1.1639 -2.0275  0.1597
 6732WAT     H227635   1.446   6.629   2.568  0.0117  1.7503 -1.8020
 6732WAT    EPW27636   1.426   6.686   2.617 -0.0115 -0.3263  0.2889
 6733WAT      O27637   2.159   0.195   6.396  0.4077  0.4604  0.1052
 6733WAT     H127638   2.201   0.169   6.324  2.7117  1.3383  1.0405
 6733WAT     H227639   2.114   0.265   6.370  2.6151  1.8686 -0.2059
 6733WAT    EPW27640   2.159   0.201   6.382  0.0048  0.0020 -0.1076
 6734WAT      O27641   3.527   5.958   7.006 -0.1199 -0.3082 -0.4362
 6734WAT     H127642   3.610   5.932   7.016 -0.1434 -0.5494 -0.8555
 6734WAT     H227643   3.524   5.987   6.924  0.0200  1.4886  0.1456
 6734WAT    EPW27644   3.539   5.958   6.995 -0.2445  1.0063 -0.2121
 6735WAT      O27645   4.923   1.621   6.345  0.0075 -0.2920 -0.3897
 6735WAT     H127646   4.959   1.588   6.273 -1.5243 -1.6826 -0.5968
 6735WAT     H227647   4.858   1.565   6.363 -0.7265  0.9420  1.1039
 6735WAT    EPW27648   4.918   1.608   6.337  0.0433  0.6688 -0.6150
 6736WAT      O27649   3.878   7.596   0.260  0.1147  0.0963  0.2718
 6736WAT     H127650   3.920   7.590   0.337 -0.7486  1.0554  0.8426
 6736WAT     H227651   3.923   7.656   0.216  0.3221 -0.0947  0.2247
 6736WAT    EPW27652   3.891   7.604   0.265 -0.4118 -0.5377  0.0357
 6737WAT      O27653   2.446   1.807   0.058  0.1306 -0.3455  0.0907
 6737WAT     H127654   2.423   1.729   0.088 -0.2581  0.0722  0.9312
 6737WAT     H227655   2.370   1.845   0.039  0.1384  0.5375  1.5851
 6737WAT    EPW27656   2.431   1.801   0.060  0.4339 -0.2142 -0.2037
 6738WAT      O27657   1.522   4.225   4.867  0.4178  0.0104 -0.5120
 6738WAT     H127658   1.525   4.147   4.830  1.6592  0.3540 -1.2125
 6738WAT     H227659   1.437   4.241   4.877  0.0555 -0.3200 -2.7286
 6738WAT    EPW27660   1.510   4.216   4.863 -0.7261  0.3672 -0.0572
 6739WAT      O27661   5.250   1.426   7.818  0.1926  0.8823  0.3017
 6739WAT     H127662   5.198   1.360   7.841 -1.3051  2.3669  1.3620
 6739WAT     H227663   5.254   1.420   7.731  0.8415 -1.1011  0.4184
 6739WAT    EPW27664   5.243   1.415   7.808  0.3055  0.4219  0.8911
 6740WAT      O27665   4.272   7.298   2.478  0.1766  0.0379  0.0397
 6740WAT     H127666   4.357   7.315   2.464 -0.0400  0.1459 -1.3491
 6740WAT     H227667   4.258   7.326   2.559  0.5686  3.8397 -0.9826
 6740WAT    EPW27668   4.283   7.305   2.488  0.0207  0.0095 -0.0506
 6741WAT      O27669   2.375   4.408   5.624  0.0310  0.4255  0.2393
 6741WAT     H127670   2.409   4.467   5.570 -0.5973  1.3115  0.7813
 6741WAT     H227671   2.384   4.444   5.703  0.4883 -0.6326  0.6954
 6741WAT    EPW27672   2.381   4.422   5.628  0.3697 -0.2820  0.3449
 6742WAT      O27673   2.706   0.824   4.670  0.0529  0.4743 -0.3154
 6742WAT     H127674   2.684   0.748   4.635  1.7466  0.8422 -2.3371
 6742WAT     H227675   2.778   0.806   4.716  0.7264  0.8828 -1.1722
 6742WAT    EPW27676   2.713   0.810   4.672 -0.5371 -0.1745 -0.1768
 6743WAT      O27677   2.484   6.487   2.040 -0.4071 -0.2783  0.4915
 6743WAT     H127678   2.522   6.499   2.117  1.6536  1.0137 -0.6446
 6743WAT     H227679   2.439   6.561   2.027  0.9610  0.4359 -0.4118
 6743WAT    EPW27680   2.483   6.500   2.049 -0.2130 -0.0058 -0.3692
 6744WAT      O27681   5.624   5.340   7.599 -0.1033 -0.4651 -0.1923
 6744WAT     H127682   5.619   5.285   7.666  1.4840 -1.2030 -0.6391
 6744WAT     H227683   5.702   5.378   7.610 -0.3106  0.2231 -1.0161
 6744WAT    EPW27684   5.635   5.338   7.611  0.6751  0.8762 -0.7510
 6745WAT      O27685   5.890   0.650   4.656  0.0555  0.2025  0.6915
 6745WAT     H127686   5.869   0.649   4.571  1.5063  0.8979  0.2802
 6745WAT     H227687   5.973   0.622   4.656  0.7474  2.0989  1.6225
 6745WAT    EPW27688   5.899   0.646   4.643 -0.0229  0.2721  0.3790
 6746WAT      O27689   3.636   2.194   3.032  0.1585  0.3211  0.0757
 6746WAT     H127690   3.672   2.246   2.971 -1.3111  2.2410  0.7654
 6746WAT     H227691   3.578   2.245   3.071  0.2192 -1.2151  2.3415
 6746WAT    EPW27692   3.633   2.209   3.029 -0.9823  0.1829 -0.2741
 6747WAT      O27693   3.842   3.214   2.298 -0.4383  0.0828 -0.5209
 6747WAT     H127694   3.798   3.289   2.292 -1.3702 -0.4227 -0.2684
 6747WAT     H227695   3.926   3.238   2.292 -0.7587  1.0399 -1.3591
 6747WAT    EPW27696   3.848   3.229   2.296 -0.2088  0.4366 -0.1681
 6748WAT      O27697   7.006   5.289   4.826 -0.1547 -0.6678  0.0016
 6748WAT     H127698   7.030   5.240   4.758  0.7722 -0.2949  0.0439
 6748WAT     H227699   7.012   5.371   4.795  0.7784 -0.4671  0.6649
 6748WAT    EPW27700   7.011   5.294   4.811 -0.0402  0.3843  0.6616
 6749WAT      O27701   5.642   6.819   1.286 -0.1164 -0.3899 -0.0206
 6749WAT     H127702   5.727   6.834   1.295  0.4904 -2.3629 -1.7563
 6749WAT     H227703   5.623   6.768   1.354 -0.1606  0.7540  0.8590
 6749WAT    EPW27704   5.652   6.814   1.297 -0.4021 -0.2412 -0.1507
 6750WAT      O27705   3.738   2.819   0.120 -0.3815 -0.0847  0.3121
 6750WAT     H127706   3.793   2.844   0.057  0.1119 -1.2600  0.2481
 6750WAT     H227707   3.669   2.870   0.108 -0.9176 -1.2636 -2.1552
 6750WAT    EPW27708   3.736   2.830   0.109  0.0616  0.0329  0.2351
 6751WAT      O27709   4.038   2.987   5.611  0.2544 -0.6380 -0.0637
 6751WAT     H127710   4.033   3.071   5.588 -0.9330 -0.3138  1.2366
 6751WAT     H227711   3.961   2.972   5.649  1.0622 -1.8652  1.1596
 6751WAT    EPW27712   4.026   2.998   5.613  0.0476 -0.3141 -0.3749
 6752WAT      O27713   5.497   6.577   7.676 -0.5763 -0.0783  0.2702
 6752WAT     H127714   5.480   6.623   7.604  0.1444  0.8268  0.6563
 6752WAT     H227715   5.436   6.602   7.732 -1.3171 -1.0007 -0.0949
 6752WAT    EPW27716   5.486   6.587   7.674 -0.3863 -0.2494  0.0034
 6753WAT      O27717   2.817   3.692   6.626 -0.0801  0.2129  0.2390
 6753WAT     H127718   2.797   3.648   6.698  2.1545 -0.3560  0.6016
 6753WAT     H227719   2.775   3.768   6.635 -0.7691 -0.2988  1.5544
 6753WAT    EPW27720   2.808   3.697   6.638 -0.0637 -0.2241 -0.1253
 6754WAT      O27721   3.826   6.162   0.182 -0.2247  0.2986  0.0292
 6754WAT     H127722   3.824   6.147   0.096  0.3208 -1.4117  0.2735
 6754WAT     H227723   3.765   6.223   0.194 -1.9767 -1.1004 -1.2831
 6754WAT    EPW27724   3.817   6.169   0.171 -0.3894  0.0848 -0.3191
 6755WAT      O27725   5.811   3.850   1.650  0.5222 -0.0243 -0.6879
 6755WAT     H127726   5.892   3.883   1.647  0.2640  0.8283  0.8827
 6755WAT     H227727   5.776   3.875   1.574  1.6452 -0.2360 -1.3089
 6755WAT    EPW27728   5.818   3.858   1.638  0.2229  0.2927  0.3677
 6756WAT      O27729   4.778   4.859   1.331  0.2167 -0.3610  0.5782
 6756WAT     H127730   4.762   4.869   1.416 -1.1459 -3.3134  0.8020
 6756WAT     H227731   4.700   4.872   1.294 -0.1949 -3.0341  0.3142
 6756WAT    EPW27732   4.764   4.862   1.338 -0.3184 -0.1232 -0.1025
 6757WAT      O27733   4.699   2.138   7.242  0.4317  0.3205 -0.0499
 6757WAT     H127734   4.674   2.054   7.236  1.9171 -0.0594 -2.7743
 6757WAT     H227735   4.626   2.183   7.231 -0.3571 -0.5997  1.2068
 6757WAT    EPW27736   4.685   2.132   7.239 -0.3030  0.1287  0.1489
 6758WAT      O27737   5.426   1.506   2.297  0.8358 -0.4454 -0.1707
 6758WAT     H127738   5.357   1.454   2.308  0.2922  0.1086 -0.8117
 6758WAT     H227739   5.474   1.493   2.368 -1.0318  0.8344  1.4076
 6758WAT    EPW27740   5.423   1.496   2.309  0.4534 -0.0132  0.8059
 6759WAT      O27741   1.237   1.686   7.711  0.1743 -0.3959 -0.2335
 6759WAT     H127742   1.284   1.697   7.784  3.5135  0.0498 -2.2111
 6759WAT     H227743   1.235   1.599   7.702  0.1447 -0.4368  0.1344
 6759WAT    EPW27744   1.244   1.675   7.720 -0.0964  0.3681  0.3402
 6760WAT      O27745   3.325   6.340   5.703  0.6052 -0.0242  0.1539
 6760WAT     H127746   3.400   6.363   5.664  0.6564 -1.1685 -0.4663
 6760WAT     H227747   3.319   6.255   5.687 -0.3466 -0.1395  1.0452
 6760WAT    EPW27748   3.335   6.331   5.695 -0.4418 -0.2739  0.2796
 6761WAT      O27749   0.691   5.800   1.362  0.0957 -0.0183  0.0604
 6761WAT     H127750   0.738   5.729   1.382  0.8114  0.8233  1.5356
 6761WAT     H227751   0.610   5.769   1.353  0.4330 -1.0653  0.4794
 6761WAT    EPW27752   0.686   5.785   1.364  0.6795  0.2198  0.5201
 6762WAT      O27753   3.279   5.682   1.711 -0.1565  0.3270  0.5982
 6762WAT     H127754   3.213   5.731   1.682  1.2707  2.1151  0.1805
 6762WAT     H227755   3.343   5.698   1.654  0.7084 -1.2336  1.0692
 6762WAT    EPW27756   3.279   5.692   1.698  0.0396  0.3886 -0.1832
 6763WAT      O27757   6.073   1.612   0.643 -0.1889 -0.4953 -0.2558
 6763WAT     H127758   6.034   1.680   0.683  0.0475  0.1450 -1.0708
 6763WAT     H227759   6.052   1.623   0.559  1.9950  0.0872 -0.8053
 6763WAT    EPW27760   6.064   1.624   0.636 -0.3114  0.1764 -0.5689
 6764WAT      O27761   3.416   0.354   0.446 -0.5884 -0.8223 -0.6410
 6764WAT     H127762   3.380   0.369   0.524  0.9899 -0.7631  0.1240
 6764WAT     H227763   3.469   0.286   0.460  0.0943 -0.5007 -1.5401
 6764WAT    EPW27764   3.419   0.346   0.459 -0.5513 -0.0621  0.1881
 6765WAT      O27765   3.525   5.136   0.110 -0.7332 -0.2536  0.1345
 6765WAT     H127766   3.546   5.197   0.169 -0.5541  1.1949 -1.3555
 6765WAT     H227767   3.596   5.085   0.108 -0.0104  0.7145 -0.0494
 6765WAT    EPW27768   3.539   5.137   0.119  0.6836  0.5803 -0.7549
 6766WAT      O27769   5.302   1.938   7.154 -0.6349 -0.0887  0.5443
 6766WAT     H127770   5.314   1.889   7.225  1.9014  0.6585  0.7428
 6766WAT     H227771   5.379   1.978   7.144 -0.2537 -1.4348 -3.5818
 6766WAT    EPW27772   5.315   1.937   7.163  1.0612 -0.3238 -0.5543
 6767WAT      O27773   4.944   3.623   4.767 -0.5195 -0.5532  0.1900
 6767WAT     H127774   4.860   3.636   4.749 -0.1551 -0.3650 -1.5297
 6767WAT     H227775   4.978   3.598   4.691  0.9126 -1.0495  0.9469
 6767WAT    EPW27776   4.937   3.621   4.753  1.1291  0.5247  0.4274
 6768WAT      O27777   7.526   3.909   2.183  0.1141  0.9913 -0.3215
 6768WAT     H127778   7.460   3.950   2.223  0.3168  0.2157  0.8291
 6768WAT     H227779   7.497   3.828   2.172  0.2745  1.0521 -1.2740
 6768WAT    EPW27780   7.512   3.903   2.187  0.1920  0.0188 -0.4859
 6769WAT      O27781   0.250   6.800   0.813  0.3201 -0.0781 -0.1235
 6769WAT     H127782   0.232   6.722   0.777 -0.4076 -0.2094  0.4810
 6769WAT     H227783   0.174   6.823   0.849  0.8760  0.3007  0.8453
 6769WAT    EPW27784   0.236   6.792   0.813  0.3377 -0.2115  0.3622
 6770WAT      O27785   3.458   4.395   1.359 -0.5501 -0.4495  0.2046
 6770WAT     H127786   3.449   4.372   1.442  1.5544  0.1425  0.6519
 6770WAT     H227787   3.381   4.431   1.339 -1.7864 -2.3891  1.2525
 6770WAT    EPW27788   3.445   4.397   1.368 -0.0177  0.3627  0.1794
 6771WAT      O27789   2.137   4.777   6.581  0.0176  0.1475 -0.0348
 6771WAT     H127790   2.083   4.845   6.580 -0.8702 -0.5326  0.3943
 6771WAT     H227791   2.216   4.813   6.577 -0.3550  1.3082  1.7956
 6771WAT    EPW27792   2.141   4.792   6.580  0.2100  0.3114  0.2266
 6772WAT      O27793   6.346   6.115   4.083 -0.6551 -0.1985  0.3099
 6772WAT     H127794   6.399   6.178   4.053 -1.0168  0.6334  1.3427
 6772WAT     H227795   6.299   6.092   4.013 -0.8566  1.0496  0.0134
 6772WAT    EPW27796   6.347   6.121   4.068 -0.4176 -0.2547  0.1989
 6773WAT      O27797   6.012   7.556   1.649  0.6227  0.4248 -0.1525
 6773WAT     H127798   5.982   7.605   1.714 -0.9535  0.8981 -1.1783
 6773WAT     H227799   5.990   7.475   1.672 -2.0286  0.7791 -1.0485
 6773WAT    EPW27800   6.004   7.551   1.662  0.1059 -0.0047 -0.5082
 6774WAT      O27801   4.856   6.327   3.624 -0.1734 -0.0574  0.2422
 6774WAT     H127802   4.936   6.291   3.629 -0.8656 -1.8676 -1.0665
 6774WAT     H227803   4.849   6.351   3.541 -0.9666  0.2246  0.3811
 6774WAT    EPW27804   4.867   6.325   3.613 -0.2575  0.5175 -0.2645
 6775WAT      O27805   0.217   7.467   1.591  0.1404 -0.5559  0.3967
 6775WAT     H127806   0.208   7.510   1.516 -0.5905 -0.2566  0.6456
 6775WAT     H227807   0.187   7.387   1.572 -1.3653 -0.1068  0.7029
 6775WAT    EPW27808   0.211   7.462   1.577 -0.1698 -0.0371  0.5402
 6776WAT      O27809   5.648   4.555   7.687 -0.1983  0.3376 -0.4985
 6776WAT     H127810   5.728   4.533   7.712  0.3731  0.7069 -1.9289
 6776WAT     H227811   5.597   4.498   7.729  0.8010  0.0427  0.3539
 6776WAT    EPW27812   5.652   4.543   7.697 -0.0101 -0.6149 -0.6131
 6777WAT      O27813   0.468   7.102   1.042  0.3705  0.5011  0.2688
 6777WAT     H127814   0.403   7.143   1.001  0.4012  1.3110  0.9981
 6777WAT     H227815   0.469   7.023   1.005  0.3039  1.1411 -1.1818
 6777WAT    EPW27816   0.459   7.097   1.031  0.4747 -0.5320 -0.3893
 6778WAT      O27817   6.277   3.501   3.861  0.2075  0.2439  0.1150
 6778WAT     H127818   6.208   3.517   3.810 -1.8624  1.1111  2.9433
 6778WAT     H227819   6.317   3.578   3.867 -0.1503  0.3940  0.6035
 6778WAT    EPW27820   6.273   3.515   3.855 -0.9517 -0.1626  0.4765
 6779WAT      O27821   2.259   6.097   4.576  0.0828  0.3211 -0.1727
 6779WAT     H127822   2.271   6.184   4.581  0.8707  0.1396  1.5508
 6779WAT     H227823   2.300   6.076   4.502  1.8726  1.1416  0.5180
 6779WAT    EPW27824   2.267   6.107   4.566 -0.2656 -0.0589 -0.6710
 6780WAT      O27825   6.560   4.491   2.528  0.2572  0.5810 -0.4029
 6780WAT     H127826   6.528   4.442   2.463 -0.1209  0.4265 -0.1049
 6780WAT     H227827   6.503   4.478   2.593  0.6410  0.7206 -0.0364
 6780WAT    EPW27828   6.547   4.482   2.528  0.4901  0.5780  0.0800
 6781WAT      O27829   5.915   1.668   6.431  0.7417  0.0661  0.0496
 6781WAT     H127830   5.902   1.658   6.345 -1.2421 -1.1718  0.4398
 6781WAT     H227831   5.937   1.588   6.458  0.5509  0.2636  0.8103
 6781WAT    EPW27832   5.917   1.655   6.422 -0.2483 -0.4990 -0.1761
 6782WAT      O27833   3.505   0.358   7.474 -0.1064 -0.1290  0.1954
 6782WAT     H127834   3.589   0.335   7.470  0.0172  0.4560 -1.3859
 6782WAT     H227835   3.462   0.285   7.453  0.1573  0.2240 -1.7603
 6782WAT    EPW27836   3.511   0.344   7.470  0.0528 -0.3687  0.1530
 6783WAT      O27837   2.497   6.595   4.415 -0.0452 -0.4863 -0.4773
 6783WAT     H127838   2.505   6.613   4.500 -1.3761 -0.4731 -0.3358
 6783WAT     H227839   2.573   6.557   4.395  0.6832  0.4288  0.4691
 6783WAT    EPW27840   2.509   6.592   4.425 -0.2756  0.2686  0.3553
 6784WAT      O27841   4.515   5.368   6.166  0.0526  0.4851  0.8940
 6784WAT     H127842   4.543   5.425   6.106 -1.2885 -0.1130 -0.3491
 6784WAT     H227843   4.477   5.418   6.227 -2.7582  0.9313 -1.0649
 6784WAT    EPW27844   4.514   5.384   6.166  0.1651  0.1133  0.2992
 6785WAT      O27845   0.335   6.951   3.527  0.0605 -0.2825 -0.1459
 6785WAT     H127846   0.363   6.983   3.450  0.1923 -1.1124 -0.4562
 6785WAT     H227847   0.382   6.878   3.536 -1.0764 -1.0134 -0.0388
 6785WAT    EPW27848   0.346   6.945   3.517  0.1158 -0.1492  0.3045
 6786WAT      O27849   5.023   5.678   4.054 -0.2424  0.0558  0.4320
 6786WAT     H127850   5.053   5.759   4.043  0.9286 -0.1144  1.9798
 6786WAT     H227851   5.006   5.675   4.140  0.3736 -1.5428  0.5168
 6786WAT    EPW27852   5.025   5.690   4.065 -0.0809 -0.2948  0.2389
 6787WAT      O27853   4.533   3.107   7.477  0.6303 -0.2914 -0.6108
 6787WAT     H127854   4.452   3.136   7.464 -0.0603 -1.4261  0.8822
 6787WAT     H227855   4.572   3.172   7.520 -0.0154 -0.4101  0.1662
 6787WAT    EPW27856   4.527   3.121   7.482 -0.9871  0.4415 -0.2654
 6788WAT      O27857   3.617   6.305   6.597 -0.4058  0.8374  0.1710
 6788WAT     H127858   3.698   6.308   6.629  0.4273 -0.6361 -1.6494
 6788WAT     H227859   3.601   6.389   6.577  1.0457  1.0200 -0.3462
 6788WAT    EPW27860   3.627   6.318   6.599 -0.0159 -0.0905  0.0534
 6789WAT      O27861   3.511   2.661   1.943  1.0153 -0.4537  0.0405
 6789WAT     H127862   3.548   2.613   2.005  1.7178 -0.4746 -0.3838
 6789WAT     H227863   3.426   2.645   1.953  1.2157 -1.6608  0.0113
 6789WAT    EPW27864   3.504   2.652   1.953  0.3816  1.1074 -0.7916
 6790WAT      O27865   3.777   5.853   7.084  0.2443  0.0209  0.0190
 6790WAT     H127866   3.842   5.910   7.099  0.0831 -0.1139  1.3946
 6790WAT     H227867   3.807   5.804   7.019  1.3051  0.3020  0.2756
 6790WAT    EPW27868   3.791   5.854   7.077  0.4545 -0.1280  0.1804
 6791WAT      O27869   5.416   7.964   5.834  0.2438 -1.0931  0.0222
 6791WAT     H127870   5.460   8.031   5.798 -0.9918 -0.2093  0.0692
 6791WAT     H227871   5.398   7.913   5.766 -1.1164  0.0069 -0.5027
 6791WAT    EPW27872   5.420   7.966   5.819 -0.5782  0.2490 -0.5578
 6792WAT      O27873   5.875   4.568   7.835 -0.6240  0.3039  0.1070
 6792WAT     H127874   5.828   4.633   7.869 -2.6098 -1.8912  1.8686
 6792WAT     H227875   5.864   4.502   7.892  2.8035 -1.0772 -0.5727
 6792WAT    EPW27876   5.867   4.568   7.849 -0.4563 -0.7312 -0.1739
 6793WAT      O27877   4.494   6.351   1.928 -0.4120  0.3219 -0.0714
 6793WAT     H127878   4.474   6.433   1.951 -0.8681 -0.0861  1.0457
 6793WAT     H227879   4.577   6.342   1.956 -1.0925 -0.3031  1.9146
 6793WAT    EPW27880   4.503   6.362   1.936  0.4504 -0.3323  0.1512
 6794WAT      O27881   5.962   7.769   2.500  0.5284 -0.3061 -0.5313
 6794WAT     H127882   6.041   7.754   2.535 -0.2088  0.3100  1.5467
 6794WAT     H227883   5.965   7.854   2.480  0.4586 -0.3209 -0.6024
 6794WAT    EPW27884   5.974   7.780   2.502 -0.1470 -0.0240 -0.2851
 6795WAT      O27885   2.195   2.713   3.384 -0.2476  0.3168 -0.5852
 6795WAT     H127886   2.244   2.739   3.451 -0.6673 -0.7472  0.1653
 6795WAT     H227887   2.251   2.710   3.317 -0.2165  3.2544 -0.7903
 6795WAT    EPW27888   2.211   2.716   3.384  0.2910 -0.2797 -0.4980
 6796WAT      O27889   2.207   2.429   5.010 -0.2848  0.1315 -0.6372
 6796WAT     H127890   2.272   2.487   5.016  0.9388 -1.2139 -0.4176
 6796WAT     H227891   2.144   2.464   5.060  1.2830  0.1625  1.4307
 6796WAT    EPW27892   2.207   2.443   5.018  0.6796 -0.2631 -0.1701
 6797WAT      O27893   3.236   5.445   4.802  0.0690  0.1549  0.2016
 6797WAT     H127894   3.297   5.395   4.840 -1.6695 -2.9092 -0.6011
 6797WAT     H227895   3.184   5.467   4.869  0.1759 -0.2402  0.4210
 6797WAT    EPW27896   3.237   5.441   4.818  0.0882  0.0763 -0.2677
 6798WAT      O27897   4.243   7.643   0.808  0.7529 -0.3972  0.1144
 6798WAT     H127898   4.315   7.594   0.820  0.3136 -0.9192  0.6859
 6798WAT     H227899   4.181   7.584   0.791  0.4149  0.0413 -0.1914
 6798WAT    EPW27900   4.245   7.627   0.807  0.2829  0.0972 -0.5190
 6799WAT      O27901   6.417   1.736   2.395  0.3115  0.0664 -0.1164
 6799WAT     H127902   6.487   1.686   2.409  0.9907  1.7062  4.1142
 6799WAT     H227903   6.449   1.817   2.401 -1.6526  0.8770  0.2292
 6799WAT    EPW27904   6.432   1.741   2.398 -0.3081  0.1342 -0.1441
 6800WAT      O27905   5.839   4.907   4.948  0.1456  0.0727 -0.7253
 6800WAT     H127906   5.788   4.922   5.017  0.0858  0.2994 -0.8168
 6800WAT     H227907   5.877   4.831   4.967 -0.3062 -0.1515 -0.7079
 6800WAT    EPW27908   5.837   4.898   4.961 -0.0315  1.5269  0.2156
 6801WAT      O27909   3.449   1.944   1.340 -0.1634  0.1953 -0.4811
 6801WAT     H127910   3.527   1.915   1.367 -1.0326 -1.1634  0.6887
 6801WAT     H227911   3.394   1.882   1.366 -1.5220  0.5253 -2.3678
 6801WAT    EPW27912   3.452   1.930   1.348  0.2369 -0.2358 -0.4602
 6802WAT      O27913   4.205   0.687   6.491 -0.2958 -0.1102 -0.3520
 6802WAT     H127914   4.193   0.762   6.534  1.6402 -0.1036  0.2812
 6802WAT     H227915   4.149   0.632   6.529  0.5206  0.2148  1.4125
 6802WAT    EPW27916   4.195   0.690   6.503  0.0833 -0.0966 -0.0859
 6803WAT      O27917   1.388   4.011   1.812  0.4933  0.5366 -0.9426
 6803WAT     H127918   1.443   3.969   1.865  0.8941  1.3528 -0.6841
 6803WAT     H227919   1.356   3.948   1.762  0.6039 -0.1641 -0.1645
 6803WAT    EPW27920   1.392   3.996   1.813  0.6258 -0.1216  0.0035
 6804WAT      O27921   1.912   7.484   5.273  0.1735 -0.2291 -0.0313
 6804WAT     H127922   1.883   7.495   5.191  1.2833  1.2460 -0.2639
 6804WAT     H227923   1.839   7.468   5.318 -0.3899 -1.7634 -1.3828
 6804WAT    EPW27924   1.897   7.483   5.267 -0.3582 -0.4575  0.5053
 6805WAT      O27925   2.241   5.138   0.566  0.2878 -0.0034  0.1395
 6805WAT     H127926   2.289   5.075   0.529 -1.1266 -0.2418 -1.3885
 6805WAT     H227927   2.219   5.104   0.643  0.1446 -1.0911 -0.3653
 6805WAT    EPW27928   2.245   5.124   0.572  0.4551  0.5223 -0.0645
 6806WAT      O27929   1.225   5.634   3.619  0.0502 -0.9502  0.0659
 6806WAT     H127930   1.259   5.694   3.566  1.6230 -2.6938 -0.9941
 6806WAT     H227931   1.160   5.599   3.573 -0.3096 -0.6744  0.3518
 6806WAT    EPW27932   1.221   5.638   3.605 -0.2990 -0.5353 -0.2472
 6807WAT      O27933   2.662   5.738   0.404 -0.5330  0.6680 -0.0088
 6807WAT     H127934   2.721   5.715   0.343 -1.0551  0.8741 -0.5928
 6807WAT     H227935   2.609   5.669   0.408 -1.3438  1.2225 -0.8337
 6807WAT    EPW27936   2.663   5.724   0.395  0.2739 -0.0363 -0.1125
 6808WAT      O27937   4.393   0.167   6.755  0.6636 -0.0922 -0.2946
 6808WAT     H127938   4.349   0.148   6.682  0.0821  2.2076 -0.6345
 6808WAT     H227939   4.476   0.152   6.733  0.2546 -3.9759  0.1820
 6808WAT    EPW27940   4.398   0.162   6.741  0.1125  0.0355 -0.2560
 6809WAT      O27941   3.712   6.280   5.921  0.0588 -0.4728  0.5095
 6809WAT     H127942   3.758   6.265   5.849 -0.2722 -0.1357  0.2216
 6809WAT     H227943   3.727   6.364   5.938  0.1005 -0.5388  0.8128
 6809WAT    EPW27944   3.721   6.290   5.913  0.0641  0.6175  0.1488
 6810WAT      O27945   3.274   4.253   2.646  0.6702 -0.2971  0.4832
 6810WAT     H127946   3.257   4.199   2.712  0.9006 -0.5426  0.3430
 6810WAT     H227947   3.213   4.316   2.655  1.0908  0.0142  1.3028
 6810WAT    EPW27948   3.262   4.255   2.657 -0.2007  0.1840 -0.5431
 6811WAT      O27949   3.812   2.143   5.715 -0.3063 -0.2105 -0.4557
 6811WAT     H127950   3.888   2.170   5.681  0.8950 -0.6858  1.6441
 6811WAT     H227951   3.809   2.059   5.694 -0.2327 -0.1908 -0.5453
 6811WAT    EPW27952   3.823   2.135   5.707 -0.4026  0.1771 -0.4269
 6812WAT      O27953   3.581   6.201   4.750 -0.1287 -0.3590  0.0957
 6812WAT     H127954   3.663   6.223   4.769  0.0266  0.0099 -0.9695
 6812WAT     H227955   3.585   6.114   4.742  0.2826 -0.2866 -0.5218
 6812WAT    EPW27956   3.594   6.191   4.752 -0.8186 -0.2136  0.3115
 6813WAT      O27957   1.103   2.166   1.546  0.0421 -0.2612 -0.1746
 6813WAT     H127958   1.169   2.191   1.597  0.9968 -0.7690 -1.1229
 6813WAT     H227959   1.046   2.232   1.552  0.7117  0.2641  0.5192
 6813WAT    EPW27960   1.104   2.179   1.555 -0.3115  0.3292  0.3534
 6814WAT      O27961   2.426   8.020   0.119 -0.0901  0.2777 -0.5312
 6814WAT     H127962   2.357   8.065   0.090  0.0203  0.1826 -0.9596
 6814WAT     H227963   2.398   7.985   0.194 -0.0729  1.3181 -0.0308
 6814WAT    EPW27964   2.412   8.021   0.125  0.8754 -0.6603 -0.2525
 6815WAT      O27965   3.981   7.121   0.551 -0.1087  0.2555  0.2572
 6815WAT     H127966   3.926   7.053   0.551 -0.7112  0.7326  0.5931
 6815WAT     H227967   3.937   7.183   0.509  0.4438  0.4379 -0.0599
 6815WAT    EPW27968   3.967   7.120   0.545 -0.3321  0.1675  0.1164
 6816WAT      O27969   6.749   4.242   2.896 -0.4785 -0.4353 -0.1834
 6816WAT     H127970   6.665   4.223   2.883 -0.7967 -0.0196  1.1705
 6816WAT     H227971   6.762   4.311   2.844 -1.1374 -0.1488  0.0121
 6816WAT    EPW27972   6.738   4.249   2.886 -0.0381  0.2817 -0.0213
 6817WAT      O27973   5.107   1.908   1.459 -0.1787  0.0359  0.2411
 6817WAT     H127974   5.115   1.823   1.440 -1.7720 -0.2063  0.4644
 6817WAT     H227975   5.128   1.948   1.384  0.4501 -0.5576  0.0927
 6817WAT    EPW27976   5.111   1.901   1.445 -0.4761  0.0412 -0.0984
 6818WAT      O27977   6.138   5.172   7.485 -0.2035 -0.0587 -0.4294
 6818WAT     H127978   6.200   5.176   7.424 -0.4188  1.7698 -0.6002
 6818WAT     H227979   6.069   5.140   7.443 -0.0043  0.0379 -0.8320
 6818WAT    EPW27980   6.137   5.168   7.470  1.0005  0.3172  0.1559
 6819WAT      O27981   0.908   2.364   1.530 -0.1477 -0.0348 -0.0668
 6819WAT     H127982   0.936   2.447   1.533  1.0105 -0.1203 -3.5714
 6819WAT     H227983   0.844   2.366   1.471 -1.6444 -1.3632  1.4069
 6819WAT    EPW27984   0.903   2.376   1.521  0.1726 -0.0445 -0.2588
 6820WAT      O27985   4.604   5.110   0.152 -0.1709  0.0322  0.5074
 6820WAT     H127986   4.650   5.053   0.200 -0.3796 -0.6059 -0.0261
 6820WAT     H227987   4.575   5.061   0.086 -2.5626  0.0974  1.3855
 6820WAT    EPW27988   4.607   5.094   0.149  0.3421  0.2730 -0.1361
 6821WAT      O27989   5.271   7.465   5.912 -0.1352 -0.0961  0.1686
 6821WAT     H127990   5.226   7.504   5.849 -1.4764 -0.0526  1.1216
 6821WAT     H227991   5.210   7.423   5.959  1.0499 -1.8164  0.2633
 6821WAT    EPW27992   5.256   7.465   5.910 -0.6568  0.5201  0.3558
 6822WAT      O27993   3.772   7.938   4.122 -0.0461  0.6287  0.6124
 6822WAT     H127994   3.739   7.904   4.049  0.0931 -1.7935  1.5837
 6822WAT     H227995   3.702   7.947   4.174  0.2671 -1.1767  1.4264
 6822WAT    EPW27996   3.757   7.934   4.119  0.0816  0.0885 -0.1188
 6823WAT      O27997   4.207   4.260   5.650  0.1391  0.5924  0.5076
 6823WAT     H127998   4.252   4.206   5.597  0.0454  1.1579 -0.1749
 6823WAT     H227999   4.143   4.210   5.682  0.3952  0.1526  0.3416
 6823WAT    EPW28000   4.204   4.245   5.647  0.3963  0.4551 -0.0580
 6824WAT      O28001   3.697   1.386   7.226 -0.2032 -0.0138 -0.2714
 6824WAT     H128002   3.664   1.307   7.208 -0.9302  0.5913 -1.8918
 6824WAT     H228003   3.742   1.406   7.154  0.6077  0.7432  0.4223
 6824WAT    EPW28004   3.698   1.377   7.212  0.6069 -0.2295 -0.7445
 6825WAT      O28005   3.368   4.217   0.184  0.0794  0.4583  0.0421
 6825WAT     H128006   3.345   4.252   0.107 -2.8578 -0.4313  0.4002
 6825WAT     H228007   3.370   4.131   0.168  0.2537  0.3187  0.7686
 6825WAT    EPW28008   3.365   4.209   0.170  0.2825  0.4258  0.4061
 6826WAT      O28009   5.532   0.852   5.561  0.3445 -0.2084 -0.4113
 6826WAT     H128010   5.607   0.824   5.596  0.3647 -0.3569 -0.5742
 6826WAT     H228011   5.530   0.814   5.483 -0.6294 -1.4866  0.1874
 6826WAT    EPW28012   5.543   0.842   5.555 -0.0717  0.5962 -0.0429
 6827WAT      O28013   3.367   1.910   0.617  0.1347 -0.0303  0.3712
 6827WAT     H128014   3.397   1.920   0.535  0.8785 -0.0314  0.6276
 6827WAT     H228015   3.307   1.973   0.625 -0.2952 -0.3388 -0.3284
 6827WAT    EPW28016   3.363   1.921   0.606 -0.2039  0.4503  0.3339
 6828WAT      O28017   0.028   3.509   2.431  0.9046  0.0663 -0.1629
 6828WAT     H128018  -0.054   3.501   2.402  1.5598 -1.0965 -1.8721
 6828WAT     H228019   0.019   3.512   2.517 -0.8504 -2.0759 -0.1722
 6828WAT    EPW28020   0.015   3.508   2.439  0.5004  0.2614 -0.0055
 6829WAT      O28021   7.750   5.592   2.304  0.0657 -0.0096 -0.3604
 6829WAT     H128022   7.782   5.583   2.223 -0.2846  0.3595 -0.5434
 6829WAT     H228023   7.665   5.581   2.293  0.2018 -2.3709  0.3267
 6829WAT    EPW28024   7.742   5.589   2.290  0.1491  0.5605  0.4311
 6830WAT      O28025   5.563   6.331   1.448  0.5905 -0.0215  0.4103
 6830WAT     H128026   5.495   6.386   1.450 -1.0386 -1.8385 -1.1880
 6830WAT     H228027   5.552   6.281   1.518  0.4347 -0.1343  0.3055
 6830WAT    EPW28028   5.551   6.332   1.458 -0.5514  0.7995  0.5306
 6831WAT      O28029   1.789   0.337   1.291 -0.0668 -0.2711  0.3193
 6831WAT     H128030   1.810   0.282   1.227 -1.4046  0.6442 -0.9570
 6831WAT     H228031   1.833   0.306   1.360  0.7772 -1.7461 -0.8323
 6831WAT    EPW28032   1.799   0.324   1.292  0.5502  0.4219 -0.3197
 6832WAT      O28033   5.540   2.768   4.870 -0.6230  0.4409  0.2441
 6832WAT     H128034   5.556   2.854   4.875 -0.6133  0.4231  0.5003
 6832WAT     H228035   5.465   2.765   4.825 -2.6255  0.7805  3.2874
 6832WAT    EPW28036   5.532   2.781   4.864  0.1721  0.1608  0.6817
 6833WAT      O28037   2.819   6.858   1.128 -0.0871 -0.5297 -0.2630
 6833WAT     H128038   2.751   6.903   1.158  0.8345  0.5132  0.3477
 6833WAT     H228039   2.819   6.786   1.178  0.2299  0.2540  0.9146
 6833WAT    EPW28040   2.809   6.854   1.140 -0.4469  0.5173  0.2470
 6834WAT      O28041   1.907   6.322   0.808 -0.0402  0.2624 -0.4671
 6834WAT     H128042   1.838   6.272   0.826 -0.3914  0.6205 -0.7949
 6834WAT     H228043   1.872   6.393   0.771  0.5051  0.4340 -0.6658
 6834WAT    EPW28044   1.892   6.325   0.805 -0.8876 -0.2680 -0.0363
 6835WAT      O28045   2.434   3.872   5.403 -0.2349 -0.1104  0.4722
 6835WAT     H128046   2.493   3.808   5.398 -0.8682 -0.7816  1.2714
 6835WAT     H228047   2.475   3.935   5.447  0.4393  0.0887 -0.4349
 6835WAT    EPW28048   2.449   3.872   5.409  0.0590  0.4350 -0.3371
 6836WAT      O28049   4.961   0.989   3.804 -0.1899 -0.6334  0.3852
 6836WAT     H128050   5.035   0.959   3.840  0.4595  1.0437  0.5206
 6836WAT     H228051   4.942   0.927   3.745  0.9058 -1.4715  0.8480
 6836WAT    EPW28052   4.969   0.975   3.801 -0.2251 -0.1038 -0.3733
 6837WAT      O28053   2.239   5.782   6.859 -0.0358 -0.2170 -0.8323
 6837WAT     H128054   2.304   5.746   6.813  0.5076  1.7580 -1.7147
 6837WAT     H228055   2.198   5.832   6.801 -0.4745  0.9171  0.3982
 6837WAT    EPW28056   2.243   5.784   6.844  0.4497 -0.3449  0.5236
 6838WAT      O28057   2.381   7.667   7.186 -0.2006  0.1299 -0.1872
 6838WAT     H128058   2.427   7.721   7.136 -0.1003  0.5073  0.3064
 6838WAT     H228059   2.352   7.607   7.130 -0.7019  0.9444 -0.8260
 6838WAT    EPW28060   2.383   7.666   7.170  0.3291  0.3255  0.1473
 6839WAT      O28061   7.368   2.721   4.773 -0.1487  0.0277  0.0506
 6839WAT     H128062   7.286   2.694   4.766 -0.4041  0.8835 -0.3439
 6839WAT     H228063   7.361   2.796   4.817  0.5076 -0.3201  0.7845
 6839WAT    EPW28064   7.355   2.728   4.779  0.9442  0.3249  0.5928
 6840WAT      O28065   3.918   3.544   7.434  0.2130  0.1230 -0.3475
 6840WAT     H128066   3.952   3.583   7.504  0.8165 -2.1176  0.6774
 6840WAT     H228067   3.832   3.552   7.446  0.1985 -2.2587  1.9920
 6840WAT    EPW28068   3.910   3.551   7.446  0.8467 -0.2911  0.3317
 6841WAT      O28069   8.074   3.048   2.473 -0.3801 -0.6489  0.0312
 6841WAT     H128070   8.087   2.978   2.524  0.2469 -0.6292 -0.0923
 6841WAT     H228071   7.993   3.073   2.492 -0.1596 -0.6475  1.0205
 6841WAT    EPW28072   8.064   3.041   2.484 -0.3601 -0.2397 -0.0178
 6842WAT      O28073   5.230   2.781   1.242 -0.1075 -0.3475  0.5557
 6842WAT     H128074   5.202   2.750   1.166  1.8383  0.7363 -0.6982
 6842WAT     H228075   5.192   2.859   1.248  0.1834 -0.1931  0.4043
 6842WAT    EPW28076   5.220   2.788   1.232 -0.6118  0.4408 -0.5938
 6843WAT      O28077   4.849   2.582   4.399  0.1962  0.1058  0.1161
 6843WAT     H128078   4.776   2.617   4.431 -1.3522 -1.6656 -1.2664
 6843WAT     H228079   4.837   2.586   4.313  1.6938 -0.3581 -0.1424
 6843WAT    EPW28080   4.836   2.588   4.391 -0.0130  0.1095  0.3461
 6844WAT      O28081   2.869   4.114   3.422  0.5029  0.2003 -0.0384
 6844WAT     H128082   2.892   4.167   3.487 -0.8218  1.1247 -0.2765
 6844WAT     H228083   2.944   4.100   3.379  1.3615 -0.2450  1.5034
 6844WAT    EPW28084   2.884   4.119   3.425 -0.0269  0.0559  0.1313
 6845WAT      O28085   4.311   2.279   3.708  0.0408  0.0230  0.1552
 6845WAT     H128086   4.379   2.286   3.654  1.4266 -1.4390  1.6193
 6845WAT     H228087   4.286   2.196   3.699  0.8445 -0.5267  2.2808
 6845WAT    EPW28088   4.317   2.268   3.699 -0.0320 -0.0850 -0.5541
 6846WAT      O28089   3.480   2.106   1.117 -0.2784  0.4220 -0.0672
 6846WAT     H128090   3.461   2.051   1.182  0.7522  0.8099  0.5881
 6846WAT     H228091   3.426   2.082   1.053  1.3681 -2.5736 -0.4954
 6846WAT    EPW28092   3.469   2.095   1.118 -0.2364 -0.0029 -0.4047
 6847WAT      O28093   0.905   5.128   1.251 -0.5744  0.9195 -0.2868
 6847WAT     H128094   0.958   5.071   1.290 -1.0574  1.0076  0.5149
 6847WAT     H228095   0.840   5.138   1.308 -1.1209  1.3277 -0.9603
 6847WAT    EPW28096   0.903   5.121   1.265 -0.1342  0.4394 -0.0064
 6848WAT      O28097   6.013   7.505   2.062 -0.7949 -0.7226  0.3877
 6848WAT     H128098   6.080   7.556   2.039 -1.1330 -0.3105  0.3160
 6848WAT     H228099   6.004   7.521   2.148 -1.5137  0.0719  0.1798
 6848WAT    EPW28100   6.022   7.515   2.071  0.3030  0.3550  0.0255
 6849WAT      O28101   2.865   2.848   6.546  0.0283  0.1915 -0.6641
 6849WAT     H128102   2.890   2.866   6.628 -1.5556  0.8044 -0.2684
 6849WAT     H228103   2.796   2.796   6.557 -0.1276  0.1884 -1.6145
 6849WAT    EPW28104   2.858   2.843   6.560 -0.3977  0.4325 -0.6009
 6850WAT      O28105   4.838   2.068   6.326 -0.0264 -0.2732 -0.6462
 6850WAT     H128106   4.772   2.111   6.362 -0.1996 -0.3772 -0.8371
 6850WAT     H228107   4.806   1.988   6.313 -0.0759 -0.1477 -1.3322
 6850WAT    EPW28108   4.824   2.062   6.329  0.3111 -0.2769  0.5665
 6851WAT      O28109   4.866   5.725   5.502  0.7756  0.6792  0.1087
 6851WAT     H128110   4.831   5.659   5.547  0.4211 -0.2540 -1.4221
 6851WAT     H228111   4.942   5.739   5.541  1.1769 -1.1406  0.0968
 6851WAT    EPW28112   4.872   5.717   5.514  0.1803  0.0064 -0.0352
 6852WAT      O28113   2.157   5.172   6.801 -0.1164 -1.1742 -0.0286
 6852WAT     H128114   2.236   5.175   6.764 -0.2964 -0.4712 -0.3806
 6852WAT     H228115   2.113   5.116   6.750  0.5230 -2.6235  0.9492
 6852WAT    EPW28116   2.162   5.164   6.788  0.1794 -0.2716  0.5925
 6853WAT      O28117   0.912   4.331   3.363  0.3653  0.1726  0.3706
 6853WAT     H128118   0.918   4.245   3.348  0.4173  0.3959 -1.0897
 6853WAT     H228119   0.896   4.337   3.448 -2.6034 -1.4122  0.0566
 6853WAT    EPW28120   0.911   4.319   3.373 -0.0806  0.6108  0.0634
 6854WAT      O28121   6.194   3.064   2.988 -0.0333 -0.6097  0.3472
 6854WAT     H128122   6.196   3.143   3.025 -1.1984  0.1515 -1.1306
 6854WAT     H228123   6.237   3.014   3.046  1.6124  1.2641  0.8837
 6854WAT    EPW28124   6.201   3.069   3.002 -0.7856  0.6519 -0.0284
 6855WAT      O28125   3.519   2.230   2.579  0.4437 -0.4294 -0.4630
 6855WAT     H128126   3.483   2.297   2.623 -0.5094 -0.9972 -0.3567
 6855WAT     H228127   3.597   2.222   2.615  0.9411  1.1972 -1.0663
 6855WAT    EPW28128   3.525   2.239   2.590  0.3311  0.6438 -0.5095
 6856WAT      O28129   5.586   4.618   5.724 -0.0236 -0.2656 -0.0893
 6856WAT     H128130   5.553   4.655   5.796  0.1617  0.3297 -0.3022
 6856WAT     H228131   5.585   4.533   5.742 -0.9204 -0.2057  0.2285
 6856WAT    EPW28132   5.581   4.611   5.737  0.3415  0.4405  0.1714
 6857WAT      O28133   3.861   2.301   5.952 -0.4510  0.4695 -0.5806
 6857WAT     H128134   3.812   2.371   5.966 -1.3114 -0.1838 -0.2319
 6857WAT     H228135   3.816   2.256   5.892 -2.1312 -1.8051  2.1171
 6857WAT    EPW28136   3.847   2.305   5.945 -0.4280 -0.4247  0.2891
 6858WAT      O28137   2.260   3.614   1.217  0.2636 -0.2523  0.0978
 6858WAT     H128138   2.247   3.535   1.182 -0.3079 -0.3428  0.5004
 6858WAT     H228139   2.184   3.655   1.204  0.1514 -0.1818  0.9483
 6858WAT    EPW28140   2.247   3.608   1.210  0.1255 -0.6438 -0.7096
 6859WAT      O28141   2.752   7.009   6.583 -0.0682 -0.7504  0.5910
 6859WAT     H128142   2.669   7.006   6.609 -0.0732 -0.9452  0.5497
 6859WAT     H228143   2.746   7.021   6.496 -0.0801 -3.0720  0.2174
 6859WAT    EPW28144   2.739   7.011   6.574 -0.3919 -0.2001 -0.1147
 6860WAT      O28145   1.716   1.567   4.878 -0.5722  0.1233 -0.3371
 6860WAT     H128146   1.634   1.543   4.893 -0.1494 -0.7176  0.8411
 6860WAT     H228147   1.709   1.648   4.849 -1.7696  0.4563  0.7821
 6860WAT    EPW28148   1.703   1.575   4.876 -0.5284  0.1058 -0.5355
 6861WAT      O28149   7.172   4.817   1.517  0.2103 -1.2906 -0.1748
 6861WAT     H128150   7.141   4.792   1.439 -3.3508 -2.9629  1.5380
 6861WAT     H228151   7.167   4.744   1.564  0.3492  0.1442  2.1749
 6861WAT    EPW28152   7.167   4.802   1.512  0.7604  0.7526 -0.4809
 6862WAT      O28153   1.072   2.588   2.077 -0.1641 -0.0472  0.1086
 6862WAT     H128154   1.008   2.573   2.134 -0.2584  0.7000  0.2138
 6862WAT     H228155   1.074   2.675   2.071  0.0062 -0.1099 -0.8506
 6862WAT    EPW28156   1.063   2.599   2.085 -0.1406  0.1285 -0.0592
 6863WAT      O28157   0.489   4.580   3.153  0.2958 -0.1996 -0.2699
 6863WAT     H128158   0.479   4.526   3.221 -1.5762  0.1648 -0.2075
 6863WAT     H228159   0.487   4.527   3.084  0.6828 -0.4251 -0.1076
 6863WAT    EPW28160   0.487   4.564   3.153 -0.7329 -0.1460  0.2315
 6864WAT      O28161   1.666   0.798   3.047 -0.8074 -0.4400 -0.3014
 6864WAT     H128162   1.678   0.717   3.017  0.5116 -0.4465  0.1916
 6864WAT     H228163   1.746   0.833   3.045 -1.0075  0.2169  1.2624
 6864WAT    EPW28164   1.680   0.791   3.042 -0.2925  0.0806 -0.0306
 6865WAT      O28165   3.834   6.221   5.692  0.2233 -0.1772  0.2570
 6865WAT     H128166   3.807   6.139   5.676 -0.4134 -0.1313  1.0093
 6865WAT     H228167   3.920   6.217   5.680  0.1362 -0.8435 -0.1926
 6865WAT    EPW28168   3.842   6.208   5.688  0.0717 -0.4258 -0.0552
 6866WAT      O28169   4.659   5.427   7.388  0.3271 -0.2484 -0.8088
 6866WAT     H128170   4.744   5.410   7.401  0.4146  1.2685  0.8813
 6866WAT     H228171   4.623   5.348   7.384  1.4381 -0.9380  1.4158
 6866WAT    EPW28172   4.666   5.413   7.389  0.4314  0.1411  0.0364
 6867WAT      O28173   1.041   4.198   1.857 -0.5395 -0.0106 -0.5487
 6867WAT     H128174   1.120   4.179   1.826 -0.4222 -0.5871  0.0809
 6867WAT     H228175   1.033   4.145   1.926 -1.0073  0.8491  0.0714
 6867WAT    EPW28176   1.051   4.188   1.863 -0.2551 -0.2013 -0.5402
 6868WAT      O28177   2.734   4.949   6.603  0.5427 -0.5681 -0.1457
 6868WAT     H128178   2.671   4.965   6.662  0.9746  2.6357 -0.3754
 6868WAT     H228179   2.805   4.986   6.637  1.7813 -2.0284 -0.9876
 6868WAT    EPW28180   2.735   4.957   6.616  0.4901 -0.1223  0.2558
 6869WAT      O28181   5.714   3.944   0.300  0.0856  0.2704  0.1822
 6869WAT     H128182   5.764   4.003   0.259 -0.9737 -0.9243 -3.2005
 6869WAT     H228183   5.727   3.871   0.253 -4.8844 -0.0782 -1.1348
 6869WAT    EPW28184   5.723   3.942   0.287  0.1732 -0.9123  0.2360
 6870WAT      O28185   5.400   3.360   0.456 -0.0639 -0.2227 -0.4680
 6870WAT     H128186   5.485   3.356   0.439  0.1281 -0.9321  0.5452
 6870WAT     H228187   5.395   3.343   0.542 -1.2370 -0.3541 -0.5361
 6870WAT    EPW28188   5.412   3.357   0.466 -0.5661  0.0086 -0.1486
 6871WAT      O28189   3.399   2.999   5.369  0.0595  0.6397  0.3705
 6871WAT     H128190   3.330   2.972   5.324 -0.3064  0.4808  1.0125
 6871WAT     H228191   3.457   2.935   5.360 -0.4742  0.0287  1.1439
 6871WAT    EPW28192   3.397   2.986   5.361  0.1863  0.6760 -0.4194
 6872WAT      O28193   1.577   5.916   6.976 -0.2423 -0.6051 -0.3033
 6872WAT     H128194   1.616   5.994   6.968 -2.1692  0.4123 -0.4294
 6872WAT     H228195   1.584   5.898   7.061 -0.6869  0.2323 -0.0772
 6872WAT    EPW28196   1.584   5.925   6.987 -0.5328  0.9312  0.0085
 6873WAT      O28197   3.115   2.316   6.115 -0.3511  0.3038 -0.0923
 6873WAT     H128198   3.167   2.298   6.047  3.5023  1.5801  2.1919
 6873WAT     H228199   3.128   2.402   6.128 -0.0384 -0.0995  2.8580
 6873WAT    EPW28200   3.124   2.326   6.107 -0.3075 -0.3206 -0.2182
 6874WAT      O28201   4.154   5.255   6.261  0.0308 -0.0312  0.5085
 6874WAT     H128202   4.144   5.177   6.297 -0.8481  0.4322  1.3004
 6874WAT     H228203   4.154   5.310   6.329 -0.0985  0.7265 -0.0837
 6874WAT    EPW28204   4.153   5.252   6.276  0.0487  0.0071 -0.2037
 6875WAT      O28205   4.067   3.882   5.017  0.2097 -0.2938  0.2165
 6875WAT     H128206   4.024   3.937   4.964 -0.7496 -2.2664 -1.1939
 6875WAT     H228207   4.027   3.891   5.094 -2.4417 -1.5762 -0.8943
 6875WAT    EPW28208   4.055   3.892   5.020 -0.1352 -0.1314 -0.1241
 6876WAT      O28209   1.886   3.912   1.848  0.2818 -0.7029  0.1550
 6876WAT     H128210   1.896   3.999   1.845  0.9274 -0.7186  1.4060
 6876WAT     H228211   1.968   3.882   1.846  0.1419 -1.2032  1.3460
 6876WAT    EPW28212   1.900   3.921   1.847  0.1676 -0.2273  0.1104
 6877WAT      O28213   1.940   1.013   4.103  0.1762  0.4950 -0.4679
 6877WAT     H128214   1.879   1.071   4.079  0.6971  0.9683 -0.6715
 6877WAT     H228215   1.927   0.946   4.049 -0.2093  0.5612 -0.4618
 6877WAT    EPW28216   1.929   1.012   4.092 -0.4279 -0.1329  0.5716
 6878WAT      O28217   7.167   2.912   4.361  0.0206 -0.6693 -0.0433
 6878WAT     H128218   7.208   2.978   4.320 -1.2858  0.6543  0.6991
 6878WAT     H228219   7.127   2.869   4.296 -0.1329  0.0200 -0.4115
 6878WAT    EPW28220   7.167   2.915   4.345 -0.0513 -0.0922  0.4010
 6879WAT      O28221   1.506   7.581   8.013 -0.2248  0.0671  0.0486
 6879WAT     H128222   1.543   7.539   8.080  0.4793 -0.9738 -0.9613
 6879WAT     H228223   1.456   7.520   7.976  1.7637 -0.3648 -2.1849
 6879WAT    EPW28224   1.504   7.566   8.017 -0.5854 -0.9136  0.0489
 6880WAT      O28225   7.032   2.002   2.355 -0.8055  0.1550 -0.2483
 6880WAT     H128226   7.060   1.937   2.407 -1.4883 -2.0028 -2.3773
 6880WAT     H228227   6.946   2.001   2.367 -0.7593  1.2875  0.3006
 6880WAT    EPW28228   7.024   1.992   2.365 -0.4862  0.5443  0.1342
 6881WAT      O28229   6.265   2.303   4.403 -0.2184  0.2824  0.3918
 6881WAT     H128230   6.238   2.245   4.344 -0.4392 -0.2604  1.0025
 6881WAT     H228231   6.228   2.275   4.477 -0.0930  1.0448  0.7554
 6881WAT    EPW28232   6.255   2.290   4.406  0.1902 -0.0090  0.0918
 6882WAT      O28233   3.831   7.943   0.133 -0.7110 -0.6161 -0.0645
 6882WAT     H128234   3.911   7.914   0.151 -0.9383 -0.2950  1.6811
 6882WAT     H228235   3.846   8.019   0.092 -0.1015 -0.5783  0.2021
 6882WAT    EPW28236   3.845   7.950   0.130  0.3858  0.4205 -0.0958
 6883WAT      O28237   2.850   6.332   7.503  0.1907  0.2390  0.5785
 6883WAT     H128238   2.902   6.298   7.441 -0.3882 -0.7825  0.6276
 6883WAT     H228239   2.830   6.411   7.472  0.5605  0.0514 -0.1625
 6883WAT    EPW28240   2.855   6.339   7.489 -0.2694  1.1542 -0.4335
 6884WAT      O28241   5.080   5.838   6.330  0.1123 -0.0009  0.0152
 6884WAT     H128242   5.102   5.904   6.381  0.9307 -0.4471  0.2504
 6884WAT     H228243   5.145   5.834   6.271  0.6924 -1.2977  0.6906
 6884WAT    EPW28244   5.093   5.847   6.329 -0.3944 -0.3704 -0.2683
 6885WAT      O28245   2.703  -0.014   1.207  0.0449  0.4042  0.1245
 6885WAT     H128246   2.728   0.001   1.289 -1.3744  0.4191  0.5954
 6885WAT     H228247   2.638   0.043   1.195  0.2183  0.3837 -1.0097
 6885WAT    EPW28248   2.697  -0.004   1.217 -0.0919  0.2578  0.2505
 6886WAT      O28249   3.582   4.316   0.303 -0.0675  0.3286 -0.6374
 6886WAT     H128250   3.615   4.378   0.251  1.8666 -1.3954 -1.6075
 6886WAT     H228251   3.511   4.288   0.261  0.1533  0.5718 -1.1779
 6886WAT    EPW28252   3.577   4.321   0.289  0.6976  0.0480 -0.1297
 6887WAT      O28253   6.003   6.518   5.346 -0.5082 -0.0596 -0.0784
 6887WAT     H128254   5.999   6.448   5.398 -0.9682 -1.9464 -2.4680
 6887WAT     H228255   5.940   6.503   5.287 -1.8107  3.2675  0.2442
 6887WAT    EPW28256   5.993   6.505   5.345 -0.5516 -1.0456 -0.3925
 6888WAT      O28257   1.958   3.984   2.137 -0.4369 -0.1720 -0.0521
 6888WAT     H128258   1.966   3.976   2.050 -0.1946  0.3412 -0.0816
 6888WAT     H228259   2.037   3.961   2.166 -0.5707 -0.5124  0.0477
 6888WAT    EPW28260   1.971   3.979   2.128 -0.2977  0.4266 -0.1227
 6889WAT      O28261   4.586   2.644   4.392 -0.0826  0.8247 -0.4273
 6889WAT     H128262   4.560   2.701   4.454  0.4422  1.2991 -0.6394
 6889WAT     H228263   4.564   2.684   4.318 -0.3180  0.4432 -0.5640
 6889WAT    EPW28264   4.579   2.658   4.390 -0.7596 -0.6412  0.1475
 6890WAT      O28265   5.702   5.883   6.731  0.1609 -0.4542  0.1971
 6890WAT     H128266   5.730   5.938   6.793  0.8689 -0.4259 -0.1369
 6890WAT     H228267   5.702   5.806   6.770 -1.1240 -0.1932  0.7612
 6890WAT    EPW28268   5.706   5.880   6.746  0.3611  0.3382  0.3880
 6891WAT      O28269   6.120   2.435   1.106 -0.1657  0.6047 -0.1895
 6891WAT     H128270   6.048   2.386   1.101 -2.0016  2.9970  0.7528
 6891WAT     H228271   6.103   2.489   1.172  3.2858  0.1924  1.2948
 6891WAT    EPW28272   6.107   2.436   1.115 -0.5448  0.3157 -0.4056
 6892WAT      O28273   3.282   2.695   7.898  0.1603  0.0163  0.3708
 6892WAT     H128274   3.198   2.716   7.887 -0.1606 -1.8293 -1.1106
 6892WAT     H228275   3.289   2.688   7.985 -2.3882 -3.9341  0.4956
 6892WAT    EPW28276   3.270   2.697   7.909  0.0856 -0.0532  0.5301
 6893WAT      O28277   3.176   7.720   5.233 -0.4247  0.4088  0.0681
 6893WAT     H128278   3.235   7.763   5.280  0.4762 -1.3818  0.6403
 6893WAT     H228279   3.145   7.660   5.287 -2.2194  0.7764 -0.4778
 6893WAT    EPW28280   3.180   7.718   5.248  0.2406  0.2558 -0.0101
 6894WAT      O28281   4.240   5.378   6.006 -0.3537  0.7505 -0.6386
 6894WAT     H128282   4.191   5.349   6.072  0.6715 -0.0553 -0.1871
 6894WAT     H228283   4.182   5.401   5.945 -1.2823 -1.4393 -0.6795
 6894WAT    EPW28284   4.224   5.377   6.007  0.0311  0.3278 -0.5741
 6895WAT      O28285   1.928   5.390   6.903 -0.0680 -0.1024 -0.5577
 6895WAT     H128286   1.883   5.320   6.877  0.2961 -0.3589 -0.5067
 6895WAT     H228287   1.974   5.412   6.832  2.3821 -1.9385  0.3184
 6895WAT    EPW28288   1.928   5.383   6.888  0.2288 -0.2862 -0.0984
 6896WAT      O28289   3.309   5.983   0.216  0.0927  0.1303  0.8873
 6896WAT     H128290   3.305   5.897   0.200  1.7269 -0.0072  0.9633
 6896WAT     H228291   3.384   5.991   0.261 -0.3557  1.5222  1.4212
 6896WAT    EPW28292   3.320   5.972   0.220  0.0456 -0.0332 -0.0226
 6897WAT      O28293   1.571   0.161   7.449 -0.5310 -0.2584 -0.6078
 6897WAT     H128294   1.577   0.217   7.382  0.7518 -0.7200 -0.9073
 6897WAT     H228295   1.645   0.116   7.445 -0.8987 -1.0125  0.5058
 6897WAT    EPW28296   1.582   0.163   7.438  0.5447  0.1526 -0.7125
 6898WAT      O28297   3.465   1.173   0.634 -0.0298  0.1170 -0.2889
 6898WAT     H128298   3.503   1.223   0.573  1.4301  0.8297  1.1176
 6898WAT     H228299   3.512   1.100   0.634  0.3272  0.3412  0.3488
 6898WAT    EPW28300   3.477   1.170   0.625  0.5194  0.0411  0.4931
 6899WAT      O28301   4.097   5.021   0.451  0.0382  0.1909 -0.0911
 6899WAT     H128302   4.070   5.021   0.368 -0.4543 -0.8059  0.0618
 6899WAT     H228303   4.177   5.057   0.447  0.1826 -0.2298 -1.0483
 6899WAT    EPW28304   4.105   5.026   0.438 -0.7197  0.8038  0.8136
 6900WAT      O28305   3.076   7.530   5.440 -0.1418  0.2262 -0.4278
 6900WAT     H128306   3.071   7.457   5.488  2.6386 -0.3487 -0.8066
 6900WAT     H228307   3.063   7.593   5.499  0.9337 -0.5311  0.6930
 6900WAT    EPW28308   3.073   7.528   5.456 -0.0121 -0.3079  0.5453
 6901WAT      O28309   4.145   2.186   7.435  0.0231 -0.3472  0.2148
 6901WAT     H128310   4.174   2.196   7.353 -1.3100 -0.0891 -0.2544
 6901WAT     H228311   4.136   2.267   7.464  0.1884 -0.4333  0.5153
 6901WAT    EPW28312   4.148   2.199   7.427  0.3560  0.3510 -0.1488
 6902WAT      O28313   3.631   2.695   0.617 -0.2587 -0.3503  0.1559
 6902WAT     H128314   3.663   2.670   0.694  0.4443 -2.0125 -0.6341
 6902WAT     H228315   3.546   2.677   0.624 -0.3448  0.2181  0.7789
 6902WAT    EPW28316   3.623   2.689   0.630  0.1564 -0.1928  0.2800
 6903WAT      O28317   5.909   4.770   7.228 -0.1098  0.2927  0.5300
 6903WAT     H128318   5.824   4.752   7.221  0.0091 -0.1998  0.2931
 6903WAT     H228319   5.935   4.724   7.297 -0.0646  0.5590  0.6922
 6903WAT    EPW28320   5.900   4.761   7.237 -0.1769  0.2302 -1.0526
 6904WAT      O28321   2.883   2.692   2.736  0.1352  0.0637  0.2333
 6904WAT     H128322   2.883   2.612   2.702 -0.1492  0.4867 -0.7989
 6904WAT     H228323   2.965   2.721   2.723 -0.5056  1.0112 -2.0735
 6904WAT    EPW28324   2.895   2.685   2.729  0.1787  0.2873 -0.3595
 6905WAT      O28325   7.167   2.627   1.854 -0.1508 -0.5929  0.1752
 6905WAT     H128326   7.201   2.655   1.779 -1.4038  0.1270 -0.1515
 6905WAT     H228327   7.226   2.651   1.914  1.4487 -2.2135 -0.6505
 6905WAT    EPW28328   7.181   2.635   1.852 -0.3710 -0.5731 -0.6071
 6906WAT      O28329   5.475   3.501   7.632 -0.1923 -0.5583  0.6278
 6906WAT     H128330   5.490   3.456   7.558  0.8038  1.7071 -0.6391
 6906WAT     H228331   5.399   3.540   7.617  1.0353  1.6784 -0.2392
 6906WAT    EPW28332   5.466   3.500   7.619 -0.1535  0.3660  0.7352
 6907WAT      O28333   1.640   3.108   3.774 -0.1252 -0.2684 -0.3864
 6907WAT     H128334   1.654   3.059   3.845  0.7297  0.8242  0.2339
 6907WAT     H228335   1.713   3.097   3.727 -0.0632  0.1547 -0.3919
 6907WAT    EPW28336   1.653   3.099   3.778 -0.4707 -0.8944  0.2471
 6908WAT      O28337   2.214   0.828   6.620  0.0957 -0.0294  0.1386
 6908WAT     H128338   2.212   0.879   6.691  1.7461 -0.3437  0.4686
 6908WAT     H228339   2.148   0.773   6.632  0.0787  0.2013  1.2220
 6908WAT    EPW28340   2.204   0.828   6.633  0.5465 -0.1933 -0.6904
 6909WAT      O28341   6.320   1.347   0.781 -0.1892  0.5945 -0.4531
 6909WAT     H128342   6.371   1.277   0.776  1.2435  1.1571  3.1087
 6909WAT     H228343   6.248   1.316   0.821 -0.5481  0.7395 -0.9806
 6909WAT    EPW28344   6.317   1.332   0.786  0.0582  0.2618 -0.0491
 6910WAT      O28345   3.187   4.062   0.041 -0.1714 -0.2451 -0.0070
 6910WAT     H128346   3.104   4.037   0.055 -0.2072 -0.9860 -1.3401
 6910WAT     H228347   3.232   3.988   0.049  0.4401  0.2121  1.0527
 6910WAT    EPW28348   3.181   4.047   0.045 -0.5836 -0.0874  0.5843
 6911WAT      O28349   2.483   2.451   2.786 -0.0174 -0.1537  0.2183
 6911WAT     H128350   2.531   2.449   2.713  1.3106  1.3219  1.0012
 6911WAT     H228351   2.407   2.483   2.760  0.4953  0.5057 -0.5095
 6911WAT    EPW28352   2.479   2.455   2.771  0.3792  0.4910 -0.3436
 6912WAT      O28353   3.466   1.327   6.329  0.2130  0.1459  0.2933
 6912WAT     H128354   3.502   1.360   6.257 -0.3820 -1.0012 -0.5558
 6912WAT     H228355   3.420   1.394   6.361  2.5430  1.4835  1.1010
 6912WAT    EPW28356   3.465   1.342   6.323 -0.3096 -0.5065 -0.2620
 6913WAT      O28357   1.616   7.353   0.381  0.1261 -0.1704 -0.0182
 6913WAT     H128358   1.610   7.266   0.389 -0.4323 -0.1764 -0.4632
 6913WAT     H228359   1.557   7.383   0.438  0.0474 -0.0905 -0.1430
 6913WAT    EPW28360   1.607   7.344   0.391  0.0667  0.3555 -0.2519
 6914WAT      O28361   4.419   1.416   7.887  0.4939 -0.1588  0.4032
 6914WAT     H128362   4.350   1.393   7.840  0.8414  0.3363 -0.3785
 6914WAT     H228363   4.385   1.462   7.953  0.0628 -0.1209  0.1589
 6914WAT    EPW28364   4.404   1.420   7.889  0.2603 -0.5135  0.0944
 6915WAT      O28365   4.007   4.083   5.753 -0.5405  0.2200  0.3909
 6915WAT     H128366   3.963   4.128   5.814 -0.1353 -0.1527  0.9628
 6915WAT     H228367   3.944   4.055   5.699 -0.7468  2.1497 -0.4549
 6915WAT    EPW28368   3.991   4.086   5.754  0.4258 -0.4736 -0.7463
 6916WAT      O28369   4.778   5.047   1.802 -0.1358 -0.1076 -0.6207
 6916WAT     H128370   4.813   4.983   1.849 -1.3686 -0.3662 -0.0116
 6916WAT     H228371   4.760   5.008   1.725  0.5087 -0.0794 -0.7889
 6916WAT    EPW28372   4.781   5.031   1.797 -0.4298 -0.2721  0.1153
 6917WAT      O28373   3.789   3.924   5.071 -0.2368  0.1350  0.3092
 6917WAT     H128374   3.812   3.949   5.151 -0.9746  0.7196  0.3509
 6917WAT     H228375   3.736   3.988   5.044  1.1199  0.6918 -1.2082
 6917WAT    EPW28376   3.784   3.937   5.079 -0.5039 -0.1243  0.3307
 6918WAT      O28377   2.040   5.527   5.013 -0.0555  0.2290  0.3448
 6918WAT     H128378   1.986   5.464   5.039  0.9873 -0.1081  1.8189
 6918WAT     H228379   2.060   5.568   5.087 -0.5051  2.1662 -0.5455
 6918WAT    EPW28380   2.035   5.524   5.028 -0.4019  0.3362  0.1598
 6919WAT      O28381   4.021   2.695   5.483 -0.3761 -0.2641 -0.5082
 6919WAT     H128382   4.097   2.713   5.444 -0.3118  0.8715  0.1009
 6919WAT     H228383   3.968   2.758   5.453 -0.9226 -0.6981 -0.4627
 6919WAT    EPW28384   4.024   2.707   5.473 -0.0307  0.2525 -0.1216
 6920WAT      O28385   3.126   0.722   1.321  0.2362  0.0967 -0.1041
 6920WAT     H128386   3.153   0.646   1.354  2.0412 -0.4996 -2.6185
 6920WAT     H228387   3.184   0.738   1.257 -0.8925  2.9011 -0.5748
 6920WAT    EPW28388   3.139   0.713   1.316 -0.1974  0.2711  0.0672
 6921WAT      O28389   0.710   6.071   4.904  0.0234  0.3021 -0.5199
 6921WAT     H128390   0.632   6.033   4.907 -0.6492  1.6141  2.4290
 6921WAT     H228391   0.711   6.112   4.827 -2.1859  0.1887 -0.6561
 6921WAT    EPW28392   0.699   6.072   4.893 -0.3294  0.1347  0.0709
 6922WAT      O28393   7.257   0.364   1.837 -0.8507 -0.3188 -0.3750
 6922WAT     H128394   7.188   0.370   1.889 -0.8518  0.6086 -0.4723
 6922WAT     H228395   7.296   0.441   1.844 -0.2314 -0.5674 -0.8925
 6922WAT    EPW28396   7.252   0.376   1.845 -0.3047  0.1852 -0.0248
 6923WAT      O28397   1.751   6.124   7.322  0.2702  0.1613  0.0868
 6923WAT     H128398   1.749   6.204   7.287 -0.0832 -0.0897 -0.4832
 6923WAT     H228399   1.834   6.100   7.312  0.6471  0.8728  1.2551
 6923WAT    EPW28400   1.763   6.133   7.315  0.3407  0.2194 -0.3454
 6924WAT      O28401   2.616   3.312   3.693 -0.2864 -0.2665  0.5006
 6924WAT     H128402   2.654   3.355   3.628  0.5053 -0.4181  0.8535
 6924WAT     H228403   2.661   3.237   3.697 -0.3147 -0.2516  1.2239
 6924WAT    EPW28404   2.628   3.307   3.684  0.2168 -0.1508 -0.0289
 6925WAT      O28405   1.146   0.610   4.021 -0.5187 -0.2509  0.3510
 6925WAT     H128406   1.128   0.687   3.986 -2.4910 -0.3010  1.1530
 6925WAT     H228407   1.202   0.629   4.086  0.4335  0.2453 -0.5975
 6925WAT    EPW28408   1.152   0.624   4.026 -0.5465 -0.3064  0.4340
 6926WAT      O28409   4.111   4.591   5.044 -0.0895  0.9672 -0.0138
 6926WAT     H128410   4.132   4.547   4.972 -0.3292 -0.1832  0.5955
 6926WAT     H228411   4.077   4.530   5.096 -2.3023  2.2042  0.1104
 6926WAT    EPW28412   4.109   4.575   5.041  0.0990 -0.3029  0.2099
 6927WAT      O28413   3.127   0.524   7.977  0.2131  0.0956  0.2553
 6927WAT     H128414   3.165   0.457   8.018 -1.0397 -0.2702  0.8730
 6927WAT     H228415   3.179   0.591   7.994  1.7859 -0.7937 -0.8064
 6927WAT    EPW28416   3.140   0.524   7.985 -0.4969 -0.2509 -0.0275
 6928WAT      O28417   5.048   4.409   0.671 -0.1757 -0.2796 -0.2295
 6928WAT     H128418   5.107   4.432   0.731 -1.6210 -0.8967  1.5321
 6928WAT     H228419   5.065   4.462   0.604  0.7177  1.3451  1.1940
 6928WAT    EPW28420   5.059   4.420   0.670  0.4943 -0.1482 -0.5115
 6929WAT      O28421   5.454   4.389   1.527  0.2452  0.7622  0.0957
 6929WAT     H128422   5.375   4.359   1.507 -0.1299  1.4224  0.5579
 6929WAT     H228423   5.494   4.397   1.450 -0.8404  2.3337 -0.3489
 6929WAT    EPW28424   5.449   4.386   1.513  0.0203 -0.1640 -0.5001
 6930WAT      O28425   5.494   4.736   4.381 -0.2603 -0.4331 -0.5669
 6930WAT     H128426   5.543   4.800   4.346 -0.6669 -0.3933 -1.0682
 6930WAT     H228427   5.475   4.685   4.314  0.4988 -1.3885 -0.0782
 6930WAT    EPW28428   5.498   4.738   4.366 -0.0623  0.4281  0.6130
 6931WAT      O28429   3.789   1.856   5.864 -0.1922 -0.3845 -0.4672
 6931WAT     H128430   3.716   1.873   5.907 -0.1674 -0.4366 -0.4032
 6931WAT     H228431   3.849   1.847   5.927  0.7350  3.4021 -0.5884
 6931WAT    EPW28432   3.787   1.857   5.879  0.5205 -0.1946 -0.6196
 6932WAT      O28433   4.070   2.404   6.221  0.1357 -0.2735 -0.3581
 6932WAT     H128434   4.049   2.370   6.143 -1.4582  0.0851 -0.1061
 6932WAT     H228435   3.996   2.441   6.248  0.8553  0.1992  1.0357
 6932WAT    EPW28436   4.056   2.404   6.213 -0.0972 -0.1105  0.2112
 6933WAT      O28437   1.579   2.391   3.181 -0.1983  0.0493  0.1531
 6933WAT     H128438   1.586   2.447   3.114  1.4762 -1.2789 -0.8590
 6933WAT     H228439   1.661   2.372   3.201 -0.6421  0.4897  2.7340
 6933WAT    EPW28440   1.592   2.396   3.174 -0.2258  0.3680  0.5357
 6934WAT      O28441   3.634   4.122   4.961 -0.1927  0.5588  0.4686
 6934WAT     H128442   3.657   4.198   4.998 -1.9524  0.5512  1.6805
 6934WAT     H228443   3.585   4.147   4.893 -1.2737  0.5446  1.2155
 6934WAT    EPW28444   3.630   4.137   4.956  0.5112 -0.1214  0.2103
 6935WAT      O28445   3.473   6.192   7.140 -0.4036  0.2100 -0.1313
 6935WAT     H128446   3.426   6.221   7.073 -0.7282  1.0071  0.4255
 6935WAT     H228447   3.503   6.115   7.112  0.3082  0.9577 -1.5958
 6935WAT    EPW28448   3.471   6.185   7.126  0.1544 -0.2135  1.2473
 6936WAT      O28449   1.607   3.784   6.280  0.2123  0.1934  0.7266
 6936WAT     H128450   1.548   3.848   6.271  1.0103  0.7773 -0.7192
 6936WAT     H228451   1.675   3.824   6.316  1.1548  0.4979 -1.2677
 6936WAT    EPW28452   1.608   3.799   6.284  0.6155 -0.7152  0.3470
 6937WAT      O28453   3.207   7.415   7.141 -0.2864 -0.0072  0.2557
 6937WAT     H128454   3.162   7.401   7.214  0.1448  0.4113  0.6033
 6937WAT     H228455   3.285   7.380   7.157 -0.5810 -1.1050 -0.4976
 6937WAT    EPW28456   3.212   7.408   7.154  1.0915 -0.4873 -0.0596
 6938WAT      O28457   3.721   1.874   2.636 -0.0143 -0.3361 -0.7248
 6938WAT     H128458   3.805   1.896   2.637  0.5406 -2.0491  1.9215
 6938WAT     H228459   3.697   1.881   2.720 -3.0377  1.6322 -1.5679
 6938WAT    EPW28460   3.730   1.878   2.649  0.2406  0.1099  0.2594
 6939WAT      O28461   3.688   7.595   6.143  0.1568  0.1858 -0.5652
 6939WAT     H128462   3.714   7.656   6.086  1.0354 -0.9764 -1.4668
 6939WAT     H228463   3.603   7.613   6.155  0.5136  1.8829 -0.3849
 6939WAT    EPW28464   3.679   7.607   6.136  0.5374  0.4290  0.3649
 6940WAT      O28465   3.835   3.883   4.772 -0.6292  0.2697 -0.5708
 6940WAT     H128466   3.892   3.949   4.774  0.5311 -0.6879 -0.9010
 6940WAT     H228467   3.811   3.874   4.855 -0.4012  0.7712 -0.4475
 6940WAT    EPW28468   3.840   3.892   4.785  0.2009  0.1323  0.0955
 6941WAT      O28469   5.176   2.006   0.578  0.1462 -0.4013  0.2130
 6941WAT     H128470   5.134   2.069   0.622 -1.9784 -2.6619  1.6870
 6941WAT     H228471   5.112   1.968   0.532  1.6250 -0.6417 -1.7934
 6941WAT    EPW28472   5.160   2.010   0.578  0.0098 -0.3382  0.2935
 6942WAT      O28473   3.912   2.116   3.095  0.3019 -0.3247 -0.0996
 6942WAT     H128474   3.894   2.201   3.091 -0.9723 -0.5101  1.1255
 6942WAT     H228475   3.997   2.115   3.115  0.6704  0.6225 -1.4826
 6942WAT    EPW28476   3.922   2.128   3.097  0.6265 -0.1402  0.5261
 6943WAT      O28477   4.713   3.057   4.683 -0.2781 -0.2057  0.5967
 6943WAT     H128478   4.661   3.053   4.613  0.3168 -1.3315  0.1819
 6943WAT     H228479   4.672   3.006   4.742 -0.2344 -0.1420  0.6827
 6943WAT    EPW28480   4.699   3.049   4.682  0.4696  0.1663  0.2694
 6944WAT      O28481   4.186   4.444   5.342  0.0613  0.1694 -0.1283
 6944WAT     H128482   4.110   4.426   5.304 -1.0852  1.5191  1.3725
 6944WAT     H228483   4.164   4.464   5.424  2.0060  0.8530  0.2900
 6944WAT    EPW28484   4.172   4.444   5.348 -0.0063 -0.7548  0.5098
 6945WAT      O28485   3.588   6.472   5.654 -0.2514 -0.0251  0.4759
 6945WAT     H128486   3.596   6.537   5.713  2.3551  1.4079 -1.2224
 6945WAT     H228487   3.661   6.425   5.667 -0.8019 -1.0473 -0.0812
 6945WAT    EPW28488   3.600   6.475   5.665  0.1158  0.5787 -0.2565
 6946WAT      O28489   3.445   6.959   3.872  0.2821  0.4380 -0.7356
 6946WAT     H128490   3.413   7.040   3.881  1.2369  0.6970  0.7245
 6946WAT     H228491   3.476   6.941   3.952  0.1592 -1.3486 -1.0660
 6946WAT    EPW28492   3.445   6.969   3.885  0.0572 -0.5078  0.0716
 6947WAT      O28493   1.830   6.116   4.405  0.5709  0.3122  0.3007
 6947WAT     H128494   1.889   6.128   4.342  0.4503 -0.9838 -0.0832
 6947WAT     H228495   1.874   6.071   4.466  0.2978  0.3469  0.5279
 6947WAT    EPW28496   1.845   6.111   4.405  0.2796 -0.5100  0.1601
 6948WAT      O28497   6.180   3.534   5.627  0.2175  0.3509  0.6565
 6948WAT     H128498   6.226   3.542   5.700 -0.8770  0.0370  1.4174
 6948WAT     H228499   6.183   3.614   5.591  0.6042  0.5568  1.1405
 6948WAT    EPW28500   6.187   3.547   5.632 -0.9305  0.0402 -0.1102
 6949WAT      O28501   5.821   6.297   1.051 -0.6045 -0.4331  0.4915
 6949WAT     H128502   5.851   6.302   1.133 -1.6372 -1.3577  0.9479
 6949WAT     H228503   5.758   6.358   1.049 -0.6296 -0.4618  0.3993
 6949WAT    EPW28504   5.816   6.307   1.063  0.4364  0.0716 -0.2913
 6950WAT      O28505   7.288   3.085   2.413  0.2041 -0.3575 -0.5978
 6950WAT     H128506   7.270   3.113   2.493 -0.4779 -1.6845 -0.2518
 6950WAT     H228507   7.374   3.069   2.415  0.6128  1.6087 -0.8141
 6950WAT    EPW28508   7.298   3.087   2.425 -0.1936 -0.5137  0.3737
 6951WAT      O28509   3.874   4.923   7.543 -0.4429 -0.4211  0.3662
 6951WAT     H128510   3.817   4.877   7.496 -0.4550 -0.8519  0.7964
 6951WAT     H228511   3.911   4.976   7.484 -0.1558 -1.2410 -0.2073
 6951WAT    EPW28512   3.871   4.924   7.527  0.8883  0.5443 -0.6875
 6952WAT      O28513   5.927   1.065   7.233 -0.2510  0.9600 -0.5568
 6952WAT     H128514   5.976   1.089   7.301  0.2658  1.5050 -1.1092
 6952WAT     H228515   5.978   1.082   7.164 -0.6463  0.1337 -1.0727
 6952WAT    EPW28516   5.942   1.071   7.232 -0.9133 -0.2957  0.1473
 6953WAT      O28517   6.478   4.067   5.056 -0.4326  0.5260  0.2450
 6953WAT     H128518   6.452   4.123   4.995 -1.9973  0.3177  0.6653
 6953WAT     H228519   6.565   4.070   5.052 -0.4997  1.8100 -0.7901
 6953WAT    EPW28520   6.487   4.076   5.047  0.6249 -0.5197 -0.2788
 6954WAT      O28521   2.676   6.219   4.358  0.4861 -0.2399 -0.5610
 6954WAT     H128522   2.671   6.136   4.385 -1.8612  0.1449  0.3702
 6954WAT     H228523   2.747   6.219   4.306  1.4785 -2.4276  0.6616
 6954WAT    EPW28524   2.686   6.207   4.354 -0.4300 -0.0272  0.3731
 6955WAT      O28525   4.787   2.056   5.090  0.2046 -0.3431 -0.1306
 6955WAT     H128526   4.811   2.029   5.011  0.0829 -1.2745  0.1423
 6955WAT     H228527   4.702   2.076   5.080 -0.2421 -1.9417  0.1007
 6955WAT    EPW28528   4.778   2.055   5.077  0.1134  0.2772  0.3117
 6956WAT      O28529   4.232   3.289   6.485  0.6410  0.4917 -0.4630
 6956WAT     H128530   4.221   3.236   6.416  0.2397  1.6403 -1.2973
 6956WAT     H228531   4.299   3.339   6.461  1.4735 -0.0600  0.6144
 6956WAT    EPW28532   4.241   3.288   6.471 -0.0754  0.2379  0.6709
 6957WAT      O28533   6.016   5.158   7.056  0.1414  0.3728 -0.2560
 6957WAT     H128534   6.002   5.109   7.126 -0.0788  1.7372  0.6968
 6957WAT     H228535   5.949   5.214   7.057  1.5416  2.1157 -0.0129
 6957WAT    EPW28536   6.004   5.159   7.066  0.1901  0.2147  0.3200
 6958WAT      O28537   6.135   1.121   4.813  0.0380 -0.2813 -0.4401
 6958WAT     H128538   6.182   1.169   4.757 -0.3078  0.0021 -0.4891
 6958WAT     H228539   6.083   1.075   4.760  1.1936 -1.6233 -0.4706
 6958WAT    EPW28540   6.134   1.121   4.797 -0.4243 -0.0561  0.0392
 6959WAT      O28541   5.487   1.834   4.613 -0.8156 -0.4368  0.2402
 6959WAT     H128542   5.550   1.781   4.641 -0.8810  0.3102  1.8896
 6959WAT     H228543   5.434   1.781   4.568  1.7383 -0.8192 -2.6039
 6959WAT    EPW28544   5.488   1.818   4.610 -0.7053  0.0388 -0.2311
 6960WAT      O28545   4.199   0.107   4.896  0.0510  0.1392 -1.1868
 6960WAT     H128546   4.272   0.088   4.941  0.2509 -0.4511 -1.7435
 6960WAT     H228547   4.209   0.191   4.875  1.1344 -0.2301 -2.2475
 6960WAT    EPW28548   4.211   0.116   4.900  0.5161 -0.5012 -0.4451
 6961WAT      O28549   3.378   5.742   7.121 -0.2004 -0.0903 -0.1707
 6961WAT     H128550   3.293   5.754   7.106 -0.4727 -2.5095 -0.9561
 6961WAT     H228551   3.416   5.809   7.080 -1.6433  0.2922 -0.9350
 6961WAT    EPW28552   3.371   5.754   7.113  0.2196 -0.3507  0.2794
 6962WAT      O28553   0.410   2.736   4.288 -0.0128  0.0851 -0.0052
 6962WAT     H128554   0.389   2.821   4.290  0.0474  0.0940  0.2018
 6962WAT     H228555   0.477   2.734   4.232  1.6244  0.5295  1.8377
 6962WAT    EPW28556   0.417   2.749   4.280 -0.1356 -0.4943 -0.5777
 6963WAT      O28557   1.758   6.296   7.983  0.0437 -0.2623  0.4737
 6963WAT     H128558   1.797   6.274   8.058  1.3626 -2.1027 -0.6500
 6963WAT     H228559   1.822   6.334   7.937 -0.4331 -0.1906 -0.1451
 6963WAT    EPW28560   1.773   6.298   7.987 -0.1117  0.0202 -0.5299
 6964WAT      O28561   1.825   4.277   6.795 -0.6548  0.1202  0.3767
 6964WAT     H128562   1.881   4.343   6.807  0.1950 -0.6679  0.9104
 6964WAT     H228563   1.837   4.255   6.712  1.8430 -1.7567  1.1211
 6964WAT    EPW28564   1.835   4.284   6.785  0.2649 -0.1766 -0.5685
 6965WAT      O28565   4.922   5.889   5.280  0.3930 -0.3205  0.2732
 6965WAT     H128566   5.009   5.891   5.272  0.4243 -0.3188  0.6077
 6965WAT     H228567   4.909   5.831   5.344  0.0912 -1.2638 -0.6339
 6965WAT    EPW28568   4.933   5.881   5.288 -0.3731  0.3096 -0.4173
 6966WAT      O28569   2.637   2.115   2.199  0.2289  0.2981 -0.2932
 6966WAT     H128570   2.699   2.101   2.259 -1.0710 -1.3173  0.7370
 6966WAT     H228571   2.581   2.167   2.240 -0.5599 -0.6464 -0.1396
 6966WAT    EPW28572   2.638   2.121   2.214 -0.6236  0.0029  0.8907
 6967WAT      O28573   2.667   0.084   4.062 -0.1508  0.0461  0.3279
 6967WAT     H128574   2.705   0.020   4.109 -0.6622  0.6021  1.5416
 6967WAT     H228575   2.735   0.133   4.037  0.2944 -1.1588 -0.9730
 6967WAT    EPW28576   2.683   0.082   4.065 -0.1894 -0.3168  0.2258
 6968WAT      O28577   4.667   3.328   7.606 -0.2135 -0.0513  0.2851
 6968WAT     H128578   4.656   3.348   7.690 -0.5815 -1.1391  0.5044
 6968WAT     H228579   4.753   3.330   7.595 -0.2043  1.0772  0.4298
 6968WAT    EPW28580   4.678   3.331   7.617 -0.2281  0.1279  0.1914
 6969WAT      O28581   7.682   1.571   1.823  0.3861  0.4189  0.4187
 6969WAT     H128582   7.695   1.525   1.749 -1.0450 -0.1149  0.4800
 6969WAT     H228583   7.654   1.511   1.880  0.3363  1.0472  1.0665
 6969WAT    EPW28584   7.680   1.555   1.820  0.4612 -0.5208  0.3905
 6970WAT      O28585   6.257   1.241   5.207 -0.0866 -0.0691 -0.1434
 6970WAT     H128586   6.222   1.309   5.165  1.5338  1.5641  0.9887
 6970WAT     H228587   6.201   1.226   5.272 -0.9675 -0.5361 -0.9719
 6970WAT    EPW28588   6.243   1.248   5.210 -0.2588 -0.2408 -0.2766
 6971WAT      O28589   2.543   0.527   5.979 -0.1347  0.7269  0.3533
 6971WAT     H128590   2.554   0.610   6.006  1.0124  0.7100 -0.0272
 6971WAT     H228591   2.624   0.495   5.979 -0.7768 -1.1646  2.8759
 6971WAT    EPW28592   2.557   0.535   5.983 -0.2177 -0.6097  0.3028
 6972WAT      O28593   3.276   5.959   6.680 -0.3567  0.0442 -0.6755
 6972WAT     H128594   3.357   5.988   6.697 -0.0972 -0.7104 -0.5859
 6972WAT     H228595   3.286   5.873   6.673 -1.0189  0.0217 -1.4858
 6972WAT    EPW28596   3.290   5.951   6.682 -0.0613  0.1825  0.1179
 6973WAT      O28597   4.918   7.011   6.571 -0.3997 -0.3565 -0.4861
 6973WAT     H128598   4.930   6.982   6.653 -0.0018 -0.5501 -0.6068
 6973WAT     H228599   4.902   6.938   6.526 -0.3540 -0.2797 -0.6262
 6973WAT    EPW28600   4.918   6.996   6.577 -0.4895 -0.4474  0.3819
 6974WAT      O28601   5.557   0.082   4.597 -0.1493 -0.4022  0.6280
 6974WAT     H128602   5.611   0.139   4.634 -1.5431  2.8070 -1.8308
 6974WAT     H228603   5.479   0.101   4.632 -1.2743  1.8887 -2.6511
 6974WAT    EPW28604   5.554   0.093   4.608 -0.3224  0.0894 -0.0593
 6975WAT      O28605   0.893   1.499   0.021 -0.1982  0.2929  0.3839
 6975WAT     H128606   0.888   1.572  -0.027 -2.4364 -0.6036 -0.9118
 6975WAT     H228607   0.975   1.473   0.011  0.2429  1.8386 -0.3267
 6975WAT    EPW28608   0.905   1.506   0.013 -0.2930  0.6023 -0.0697
 6976WAT      O28609   4.676   3.879   7.338  0.0739  0.0868  0.5741
 6976WAT     H128610   4.688   3.951   7.386 -2.1681  1.4440 -0.7217
 6976WAT     H228611   4.596   3.853   7.359  0.1993 -1.0298 -0.2253
 6976WAT    EPW28612   4.666   3.886   7.348  0.8240  0.4798  0.5619
 6977WAT      O28613   5.454   0.334   5.889 -0.4745  0.2176 -0.0899
 6977WAT     H128614   5.479   0.389   5.827  1.3027  0.6168  0.9194
 6977WAT     H228615   5.461   0.255   5.852  1.4055  0.3904 -0.1592
 6977WAT    EPW28616   5.459   0.330   5.875  0.3117 -0.1223  0.4440
 6978WAT      O28617   2.838   5.539   6.312  0.2236 -0.1220 -0.1886
 6978WAT     H128618   2.848   5.584   6.386 -0.6127 -0.5861  0.2265
 6978WAT     H228619   2.766   5.574   6.277 -0.8565 -1.5461  0.4904
 6978WAT    EPW28620   2.829   5.551   6.318  0.1077 -0.0753  0.0763
 6979WAT      O28621   5.490   6.752   6.285 -0.2963 -0.3441 -0.1199
 6979WAT     H128622   5.427   6.810   6.302 -0.4669 -0.6322  0.2452
 6979WAT     H228623   5.533   6.746   6.360 -0.5610 -1.0348 -0.0240
 6979WAT    EPW28624   5.487   6.760   6.298  0.3622  0.1393  0.2716
 6980WAT      O28625   4.182   7.197   0.387 -0.1219 -0.0567  0.6545
 6980WAT     H128626   4.112   7.184   0.437 -1.8912  1.0023 -1.3839
 6980WAT     H228627   4.214   7.273   0.415 -1.0176  0.4546  0.3430
 6980WAT    EPW28628   4.177   7.206   0.398 -0.5237 -0.5824 -0.5624
 6981WAT      O28629   5.141   4.994   4.268 -0.3495 -0.6227 -0.1514
 6981WAT     H128630   5.113   5.057   4.320 -1.5358 -1.4852  0.3000
 6981WAT     H228631   5.092   4.925   4.290 -0.4645 -1.1946 -1.9699
 6981WAT    EPW28632   5.130   4.993   4.279  0.1259 -0.2771  0.5412
 6982WAT      O28633   5.239   0.716   0.163 -0.7070  0.2567  0.4581
 6982WAT     H128634   5.242   0.771   0.231 -1.1246 -0.5170  1.1189
 6982WAT     H228635   5.162   0.677   0.171 -0.4403 -0.3959 -0.0251
 6982WAT    EPW28636   5.228   0.719   0.174  0.2333  0.1925 -0.4199
 6983WAT      O28637   6.138   5.158   6.525  0.0338 -0.3924  0.2096
 6983WAT     H128638   6.060   5.147   6.488 -1.0222  2.3868  1.3552
 6983WAT     H228639   6.191   5.111   6.475 -1.9332 -0.2148 -2.2415
 6983WAT    EPW28640   6.134   5.149   6.512 -0.2726  0.2559 -0.0010
 6984WAT      O28641   7.124   3.421   2.422  0.5429  0.1078 -0.1806
 6984WAT     H128642   7.121   3.348   2.375 -0.4622  0.4731 -0.7313
 6984WAT     H228643   7.131   3.484   2.361 -0.1880  0.5556  0.1817
 6984WAT    EPW28644   7.125   3.420   2.406 -0.5819  0.5811  0.1232
 6985WAT      O28645   1.835   3.956   6.336  0.4109 -0.6373  0.2924
 6985WAT     H128646   1.919   3.946   6.315  0.5033  0.5144  0.0657
 6985WAT     H228647   1.803   4.002   6.269  0.0873  0.7288  1.3512
 6985WAT    EPW28648   1.843   3.961   6.323  0.0354  0.1914 -0.5349
 6986WAT      O28649   1.867   0.999   0.521 -0.1189 -0.2187 -0.5392
 6986WAT     H128650   1.851   0.934   0.576 -0.1442 -1.7999 -2.3393
 6986WAT     H228651   1.790   1.040   0.513  0.4992  2.0391  2.8737
 6986WAT    EPW28652   1.854   0.996   0.528 -0.0343  0.1716  0.1301
 6987WAT      O28653   5.068   6.772   1.526 -0.3242 -0.0120  0.4556
 6987WAT     H128654   5.059   6.687   1.507  0.7441  0.1759 -1.1482
 6987WAT     H228655   4.988   6.804   1.515 -0.0129 -0.0714 -3.4536
 6987WAT    EPW28656   5.055   6.764   1.522  0.4434 -0.2508  0.2780
 6988WAT      O28657   4.832   4.404   5.220 -0.0578 -0.0036 -0.5152
 6988WAT     H128658   4.863   4.485   5.205 -3.2244  1.4817 -0.0087
 6988WAT     H228659   4.818   4.372   5.140  5.1986 -2.0735 -0.9797
 6988WAT    EPW28660   4.835   4.412   5.206  0.0490 -0.0041 -0.3060
 6989WAT      O28661   2.563   3.588   0.744  0.0655 -0.4412 -0.0746
 6989WAT     H128662   2.621   3.604   0.807 -0.5206 -0.2763  0.4282
 6989WAT     H228663   2.603   3.528   0.694 -0.0640 -1.7491  1.3263
 6989WAT    EPW28664   2.578   3.581   0.746 -0.0434  0.1657  0.3094
 6990WAT      O28665   3.272   4.952   7.716  0.0336 -0.2730 -0.0253
 6990WAT     H128666   3.186   4.943   7.709 -0.0092  0.0659  0.0243
 6990WAT     H228667   3.287   4.947   7.802 -0.0107  0.2429  0.0190
 6990WAT    EPW28668   3.262   4.950   7.728 -0.5655  0.3783 -0.1761
 6991WAT      O28669   3.332   4.179   6.159  0.2104  0.2144  0.1871
 6991WAT     H128670   3.376   4.133   6.099  0.6793  0.2007  0.5426
 6991WAT     H228671   3.392   4.198   6.219 -0.5972 -1.2385  1.5299
 6991WAT    EPW28672   3.347   4.175   6.159 -0.2811  0.2806  0.0816
 6992WAT      O28673   6.246   4.289   4.628  0.4230 -0.1926  0.0902
 6992WAT     H128674   6.238   4.375   4.641  0.2968 -0.2012  0.0669
 6992WAT     H228675   6.299   4.264   4.693  0.9449 -0.0019 -0.2537
 6992WAT    EPW28676   6.253   4.298   4.639  1.2299  0.8860  0.3799
 6993WAT      O28677   5.470   3.677   5.422 -0.1959 -0.6700  0.0308
 6993WAT     H128678   5.423   3.731   5.472  3.1143  0.0849  2.7890
 6993WAT     H228679   5.510   3.730   5.366  0.7381 -0.6039  0.7283
 6993WAT    EPW28680   5.469   3.693   5.421 -0.3362  0.1603  0.5302
 6994WAT      O28681   3.478   0.501   6.305  0.1598  0.1888 -0.4200
 6994WAT     H128682   3.555   0.481   6.269 -0.5259 -0.2579 -1.7050
 6994WAT     H228683   3.442   0.556   6.248 -0.1276  1.0806  0.5953
 6994WAT    EPW28684   3.484   0.506   6.291  0.4235  0.4370  0.1304
 6995WAT      O28685   1.517   7.336   4.637 -0.2804 -0.0971  0.1971
 6995WAT     H128686   1.494   7.348   4.554  1.4826 -0.1373 -0.3309
 6995WAT     H228687   1.441   7.341   4.680 -1.3735 -1.1017 -1.4983
 6995WAT    EPW28688   1.502   7.338   4.631  0.0787 -0.0428 -0.1908
 6996WAT      O28689   4.839   3.086   7.768  0.3909  0.2796 -0.5557
 6996WAT     H128690   4.870   3.167   7.782 -1.0867  0.6565  0.8662
 6996WAT     H228691   4.852   3.046   7.844 -1.3903  0.0648 -0.3261
 6996WAT    EPW28692   4.846   3.092   7.781  0.3804 -0.1087 -0.0245
 6997WAT      O28693   3.729   6.854   6.563  0.2665 -0.2497  0.1449
 6997WAT     H128694   3.803   6.897   6.551  0.6446 -0.6840  0.8374
 6997WAT     H228695   3.712   6.820   6.485 -0.9551  2.4932 -0.8931
 6997WAT    EPW28696   3.737   6.855   6.550  0.5478 -0.3076 -0.2660
 6998WAT      O28697   3.178   4.629   6.087  0.3237  0.3574 -0.3261
 6998WAT     H128698   3.243   4.582   6.123  0.7769  0.2980 -1.2023
 6998WAT     H228699   3.215   4.666   6.018  0.1696  2.6234  0.7368
 6998WAT    EPW28700   3.193   4.627   6.082 -0.1427  0.4094  0.4299
 6999WAT      O28701   5.716   4.950   5.825  0.0586  0.1461 -0.1868
 6999WAT     H128702   5.795   4.928   5.855 -0.6207 -0.1059  1.5709
 6999WAT     H228703   5.724   4.943   5.739  1.5226 -1.3505  0.0101
 6999WAT    EPW28704   5.729   4.946   5.817  0.3163 -0.4007  0.4233
 7000WAT      O28705   3.684   1.592   0.367  0.4950 -0.0742  0.4492
 7000WAT     H128706   3.612   1.633   0.338  0.5081  0.1679  0.7554
 7000WAT     H228707   3.736   1.590   0.297 -0.7651 -2.5251 -0.5708
 7000WAT    EPW28708   3.681   1.598   0.352 -0.1001  0.0480  0.3279
 7001WAT      O28709   2.001   7.141   5.548 -0.1060  0.0054  0.1524
 7001WAT     H128710   1.937   7.082   5.541 -0.2945  0.0610  1.3023
 7001WAT     H228711   2.014   7.167   5.465 -0.1301 -1.5121 -0.3440
 7001WAT    EPW28712   1.994   7.136   5.535  0.4613  0.5511 -0.7294
 7002WAT      O28713   3.117   6.646   1.168 -0.1198  0.3576  0.3648
 7002WAT     H128714   3.184   6.597   1.142 -0.7347 -1.5416  2.0404
 7002WAT     H228715   3.154   6.719   1.196  0.8678  0.8469 -2.0266
 7002WAT    EPW28716   3.132   6.649   1.168  0.6220 -0.5455  0.2307
 7003WAT      O28717   5.162   1.702   7.810 -0.2954  0.3140  0.1635
 7003WAT     H128718   5.188   1.619   7.821 -0.6580  0.3301  1.2788
 7003WAT     H228719   5.215   1.732   7.749 -0.1071 -0.7297 -0.2126
 7003WAT    EPW28720   5.174   1.694   7.803  0.8588 -0.0317 -0.6071
 7004WAT      O28721   6.112   2.163   4.605  0.1833 -0.2662 -0.0733
 7004WAT     H128722   6.025   2.160   4.605 -0.0865  2.8426  2.2341
 7004WAT     H228723   6.133   2.177   4.689  2.7945  0.4805 -0.7271
 7004WAT    EPW28724   6.103   2.165   4.618 -0.4572  0.5325 -0.0945
 7005WAT      O28725   6.046   3.883   6.039  0.0097  0.4999  0.1166
 7005WAT     H128726   5.981   3.885   5.981 -0.0636 -0.4471  0.1444
 7005WAT     H228727   6.088   3.808   6.020  0.2884  0.4312  0.9512
 7005WAT    EPW28728   6.042   3.872   6.027  0.2372 -0.0727 -0.0922
 7006WAT      O28729   5.204   7.130   6.146 -0.5285  0.2085 -0.0095
 7006WAT     H128730   5.170   7.132   6.226 -1.5850  0.2742 -0.4336
 7006WAT     H228731   5.139   7.161   6.096  0.0582  0.0327 -0.9027
 7006WAT    EPW28732   5.189   7.135   6.150  0.4140  0.3602 -0.3489
 7007WAT      O28733   3.834   4.769   6.081 -0.0378  0.2943  0.4292
 7007WAT     H128734   3.902   4.737   6.038  0.2916  0.1438  1.0496
 7007WAT     H228735   3.850   4.855   6.085 -2.0378  1.0810 -3.2869
 7007WAT    EPW28736   3.846   4.777   6.075  0.2042  0.3133 -0.2809
 7008WAT      O28737   2.718   3.683   2.991  0.3677  0.3144 -0.5203
 7008WAT     H128738   2.735   3.680   3.076  1.4290 -0.9927 -0.7366
 7008WAT     H228739   2.757   3.756   2.965 -0.0489  0.7746  0.1214
 7008WAT    EPW28740   2.726   3.693   3.000  0.5466 -0.2611 -0.2513
 7009WAT      O28741   4.614   5.364   5.148  0.0224  0.4473  0.4168
 7009WAT     H128742   4.547   5.398   5.104 -0.2414 -0.7131 -0.1155
 7009WAT     H228743   4.652   5.434   5.185  0.4473  1.5121 -1.8801
 7009WAT    EPW28744   4.610   5.380   5.147  0.2806  0.2172 -0.4754
 7010WAT      O28745   3.758   7.253   1.271  0.2337 -0.2982  0.1528
 7010WAT     H128746   3.824   7.201   1.246  0.7487  0.5918 -0.4026
 7010WAT     H228747   3.727   7.284   1.195  0.3118  0.6348  0.4853
 7010WAT    EPW28748   3.763   7.250   1.256 -0.1393  0.1810  0.0744
 7011WAT      O28749   7.816   6.890   0.474  0.0710 -0.5571  0.3656
 7011WAT     H128750   7.786   6.874   0.554  1.7021 -1.2394  0.8687
 7011WAT     H228751   7.763   6.843   0.423  0.4148 -1.9425  1.2415
 7011WAT    EPW28752   7.803   6.881   0.478 -0.3252  0.1266 -0.9028
 7012WAT      O28753   4.173   3.347   5.140  0.2275 -0.0208  0.2576
 7012WAT     H128754   4.122   3.291   5.097  1.5960 -1.9473  1.0258
 7012WAT     H228755   4.129   3.362   5.214 -0.3957  0.4017 -0.1808
 7012WAT    EPW28756   4.159   3.341   5.145 -0.1475  0.0418 -0.2641
 7013WAT      O28757   5.323   3.801   5.611  0.1731  0.4427  0.1562
 7013WAT     H128758   5.263   3.857   5.582 -0.1127  0.3932  0.6497
 7013WAT     H228759   5.296   3.780   5.691  1.3064  1.0806  0.7444
 7013WAT    EPW28760   5.310   3.806   5.618 -0.0286  0.1653  0.5517
 7014WAT      O28761   5.464   5.584   6.142  0.7127  0.1640 -0.0235
 7014WAT     H128762   5.438   5.521   6.197  0.5433  0.7614  0.6086
 7014WAT     H228763   5.482   5.542   6.068  1.3135 -0.7250  0.6027
 7014WAT    EPW28764   5.463   5.568   6.139 -0.0898 -0.2201 -0.1240
 7015WAT      O28765   5.139   2.424   5.918  0.0578 -0.4487 -0.6274
 7015WAT     H128766   5.117   2.508   5.911  0.7238 -0.1516  0.6169
 7015WAT     H228767   5.176   2.418   5.997 -0.8974 -2.1228 -0.2552
 7015WAT    EPW28768   5.141   2.435   5.929 -0.0703 -0.2508  0.5398
 7016WAT      O28769   6.510   5.485   2.413  0.3451  0.0380  0.1255
 7016WAT     H128770   6.565   5.472   2.479 -0.3630  1.9870  1.1820
 7016WAT     H228771   6.551   5.545   2.364  0.3213 -0.5044 -0.5883
 7016WAT    EPW28772   6.524   5.492   2.415 -0.3227  0.3754 -0.0482
 7017WAT      O28773   2.206   3.488   2.927  0.8470 -0.0157 -0.4588
 7017WAT     H128774   2.274   3.465   2.877  2.1917  1.5236  0.5425
 7017WAT     H228775   2.242   3.542   2.985 -0.6157 -1.6908  2.1796
 7017WAT    EPW28776   2.221   3.492   2.928  0.3318  0.3264  0.7217
 7018WAT      O28777   3.913   4.130   4.850  0.0120 -0.4420  0.3119
 7018WAT     H128778   3.848   4.163   4.898  0.8777 -0.6006  1.6520
 7018WAT     H228779   3.891   4.151   4.768 -1.5901 -0.2837  0.7515
 7018WAT    EPW28780   3.900   4.138   4.845  0.1995  0.0903  0.0144
 7019WAT      O28781   2.651   3.970   2.395  0.0386  0.1262 -0.4441
 7019WAT     H128782   2.605   3.918   2.447  0.3301 -0.6843 -0.9715
 7019WAT     H228783   2.627   3.945   2.315  0.4849  0.5251 -0.7077
 7019WAT    EPW28784   2.641   3.959   2.391 -0.0060 -0.2227  0.0026
 7020WAT      O28785   2.803   3.122   6.369  0.5530  0.0325 -0.1765
 7020WAT     H128786   2.781   3.084   6.444  0.1898 -0.3368 -0.4684
 7020WAT     H228787   2.749   3.085   6.310  0.9488  0.1957 -0.6464
 7020WAT    EPW28788   2.791   3.111   6.371 -0.0941  0.4215 -0.6063
 7021WAT      O28789   2.107   2.923   7.708  0.5558 -0.2164  0.9305
 7021WAT     H128790   2.116   3.008   7.692 -0.3231 -0.3714 -0.5954
 7021WAT     H228791   2.160   2.909   7.776  2.4544  1.1188 -0.1828
 7021WAT    EPW28792   2.116   2.933   7.715  0.6513 -0.3859 -0.1738
 7022WAT      O28793   0.894   0.984   0.245 -0.2504  0.5202 -0.3955
 7022WAT     H128794   0.884   0.997   0.160 -0.6668 -0.2963 -0.4802
 7022WAT     H228795   0.957   0.923   0.250 -1.7537 -1.0921 -0.2396
 7022WAT    EPW28796   0.902   0.977   0.234 -0.0669 -0.2838  0.4613
 7023WAT      O28797   5.005   2.565   6.449  0.0081 -0.4260  0.7379
 7023WAT     H128798   5.056   2.614   6.499 -0.2520  2.2217 -1.3575
 7023WAT     H228799   4.926   2.573   6.486 -0.8799  4.1300 -1.3913
 7023WAT    EPW28800   5.001   2.573   6.461  0.3770  0.3549 -0.4563
 7024WAT      O28801   4.560   5.184   7.675 -0.0635 -0.6968 -0.8669
 7024WAT     H128802   4.554   5.117   7.729  1.1490 -0.6818 -0.7019
 7024WAT     H228803   4.515   5.158   7.605 -0.5268 -1.2292 -0.3814
 7024WAT    EPW28804   4.552   5.170   7.672  0.5328 -0.6641  0.2034
 7025WAT      O28805   4.126   4.348   6.101  0.6072  0.1112 -0.2767
 7025WAT     H128806   4.053   4.328   6.059  0.3787  2.1148 -0.9255
 7025WAT     H228807   4.113   4.315   6.181 -1.0882  0.5843 -0.3276
 7025WAT    EPW28808   4.114   4.340   6.107 -0.5529 -0.0356  0.4104
 7026WAT      O28809   7.567   7.464   4.481  0.2102 -0.0709  0.0990
 7026WAT     H128810   7.632   7.410   4.459  0.8189  0.5336  0.3563
 7026WAT     H228811   7.518   7.468   4.409 -0.3935 -1.7067  0.3803
 7026WAT    EPW28812   7.570   7.456   4.467 -0.0356 -0.1397  0.4359
 7027WAT      O28813   5.133   2.921   0.532 -0.5124 -0.2000  0.3858
 7027WAT     H128814   5.096   2.850   0.497 -0.3659  0.0250 -0.2314
 7027WAT     H228815   5.193   2.944   0.473 -0.8482  0.6893  0.3779
 7027WAT    EPW28816   5.136   2.914   0.518 -0.0177 -0.0500 -0.0913
 7028WAT      O28817   5.486   7.908   6.277  0.1299 -0.3240  0.0937
 7028WAT     H128818   5.569   7.913   6.303  0.7678  1.4766 -1.9588
 7028WAT     H228819   5.478   7.826   6.248  1.5708 -0.2206 -0.6908
 7028WAT    EPW28820   5.497   7.897   6.277 -0.5323 -0.3603  0.2594
 7029WAT      O28821   5.056   3.436   0.545 -0.4864  0.1070  0.1111
 7029WAT     H128822   5.047   3.358   0.583  1.1122 -0.4571 -0.5792
 7029WAT     H228823   5.000   3.433   0.478 -0.0656 -0.6764 -0.2213
 7029WAT    EPW28824   5.046   3.424   0.540  0.2980 -0.3317  0.6433
 7030WAT      O28825   4.119   1.806   6.540 -0.0290 -0.3221 -0.2187
 7030WAT     H128826   4.079   1.836   6.611  2.3767  1.1380  0.6423
 7030WAT     H228827   4.128   1.877   6.489  1.6484 -0.4754 -0.2206
 7030WAT    EPW28828   4.115   1.821   6.543  0.5145 -0.4014 -0.1264
 7031WAT      O28829   5.596   3.028   3.591 -0.2209  0.1360 -0.1045
 7031WAT     H128830   5.646   2.975   3.543 -1.3262 -2.2197  1.1554
 7031WAT     H228831   5.651   3.059   3.652  0.1222 -0.9705  0.1722
 7031WAT    EPW28832   5.611   3.024   3.593  0.2319  0.0301 -0.1267
 7032WAT      O28833   7.604   2.905   3.897  0.4895  0.9983  0.1239
 7032WAT     H128834   7.651   2.847   3.852 -0.5872  0.5930 -0.5103
 7032WAT     H228835   7.656   2.976   3.899  2.7238 -0.4968  2.6619
 7032WAT    EPW28836   7.619   2.907   3.891  0.0434 -0.0787  0.6160
 7033WAT      O28837   7.263   1.283   0.394  0.5074 -0.0514 -0.2304
 7033WAT     H128838   7.232   1.278   0.475  0.4572  1.6623 -0.1040
 7033WAT     H228839   7.211   1.342   0.356  1.6114  0.4676 -0.9799
 7033WAT    EPW28840   7.251   1.291   0.400 -0.2266  0.3499 -0.2656
 7034WAT      O28841   4.761   5.162   1.345  0.0401  0.0179 -0.0378
 7034WAT     H128842   4.737   5.091   1.299  2.4987 -1.6459  1.0475
 7034WAT     H228843   4.696   5.171   1.403 -1.2282 -0.1649 -1.3560
 7034WAT    EPW28844   4.748   5.153   1.346 -0.2424 -0.8704 -0.5675
 7035WAT      O28845   7.765   0.683   2.686 -0.1211  0.0148  0.0067
 7035WAT     H128846   7.800   0.636   2.751 -0.4231 -1.9115 -1.1351
 7035WAT     H228847   7.681   0.691   2.710 -0.6397 -2.1605 -0.8415
 7035WAT    EPW28848   7.757   0.677   2.699  0.1463  0.0092  0.3944
 7036WAT      O28849   6.836   2.531   4.355  0.3798  0.0570 -0.3589
 7036WAT     H128850   6.913   2.491   4.350  0.3382  0.0874 -1.9485
 7036WAT     H228851   6.785   2.484   4.302 -0.4135  0.6185 -0.1203
 7036WAT    EPW28852   6.840   2.518   4.346  0.3746 -0.7451 -0.1854
 7037WAT      O28853   5.945   4.623   6.257  0.5034  0.3938 -0.5767
 7037WAT     H128854   5.867   4.606   6.220  0.2265 -0.4324  0.3565
 7037WAT     H228855   5.993   4.554   6.237  0.7742  0.5648 -0.5235
 7037WAT    EPW28856   5.940   4.610   6.248  0.7669 -0.3188  0.0051
 7038WAT      O28857   4.672   7.929   6.863  0.0486 -0.1652 -0.0947
 7038WAT     H128858   4.665   8.003   6.818  2.4757  0.3912  0.2994
 7038WAT     H228859   4.727   7.881   6.815  0.5133 -0.6667  0.9127
 7038WAT    EPW28860   4.679   7.933   6.849  0.2933  0.1452  0.6941
 7039WAT      O28861   3.929   0.752   7.828  0.2354 -0.3862 -0.0591
 7039WAT     H128862   3.904   0.737   7.910  1.8541 -2.8372  0.1103
 7039WAT     H228863   3.857   0.737   7.781 -0.4827  0.1973  0.8350
 7039WAT    EPW28864   3.914   0.748   7.833 -0.4479 -0.3647 -0.2754
 7040WAT      O28865   3.684   2.663   7.515 -0.0664  0.2143  0.1917
 7040WAT     H128866   3.705   2.708   7.443  1.3341  2.3831  1.8361
 7040WAT     H228867   3.761   2.651   7.555 -0.7060 -1.6548  0.9771
 7040WAT    EPW28868   3.698   2.668   7.510  0.1752 -0.1325  0.2580
 7041WAT      O28869   4.639   6.175   6.290 -0.6050  0.0962 -0.0046
 7041WAT     H128870   4.645   6.113   6.351 -1.2863  0.5834  0.5697
 7041WAT     H228871   4.699   6.152   6.231  0.3025 -0.1924  1.0157
 7041WAT    EPW28872   4.649   6.163   6.290  0.0881  0.1657 -0.4584
 7042WAT      O28873   6.894   5.559   0.959  0.3061 -0.4323 -0.1709
 7042WAT     H128874   6.829   5.509   0.928  0.1726  1.0797 -2.5954
 7042WAT     H228875   6.934   5.587   0.887  1.5262  1.4546  1.1619
 7042WAT    EPW28876   6.890   5.555   0.943  0.0248 -0.3161  0.0243
 7043WAT      O28877   5.899   3.096   0.809  0.0261 -0.9768  0.3326
 7043WAT     H128878   5.812   3.094   0.808  0.0026 -0.1603  0.6567
 7043WAT     H228879   5.918   3.169   0.852  0.8633  0.0594 -1.6837
 7043WAT    EPW28880   5.889   3.106   0.815  0.0542  0.4041 -0.1704
 7044WAT      O28881   2.947   1.088   0.566 -0.1251 -0.1499  0.3276
 7044WAT     H128882   2.911   1.020   0.606 -0.4633 -1.7298 -2.4630
 7044WAT     H228883   3.024   1.097   0.607  0.5355 -3.1120 -0.0760
 7044WAT    EPW28884   2.953   1.079   0.578 -0.1487 -0.5053 -0.0448
 7045WAT      O28885   5.541   0.741   4.634 -0.1891 -0.3719 -0.0812
 7045WAT     H128886   5.498   0.714   4.563  0.0239 -3.1623  0.7375
 7045WAT     H228887   5.479   0.742   4.696  0.2469 -1.1655  0.3794
 7045WAT    EPW28888   5.525   0.737   4.633 -0.5052 -0.0792 -0.0110
 7046WAT      O28889   1.988   4.523   6.852  0.2463  0.5506 -0.1977
 7046WAT     H128890   2.019   4.600   6.879  0.1291  0.0009  1.6556
 7046WAT     H228891   2.060   4.474   6.842  0.2301  0.4415  0.2009
 7046WAT    EPW28892   2.003   4.527   6.854 -0.7492  0.0364  0.4339
 7047WAT      O28893   3.388   6.985   0.761  0.2403 -0.1366 -0.3456
 7047WAT     H128894   3.401   7.048   0.703  0.9600 -0.1851 -0.2404
 7047WAT     H228895   3.414   7.020   0.837 -0.7034 -0.0680 -0.0323
 7047WAT    EPW28896   3.394   6.999   0.764  0.2475  0.2251  0.3149
 7048WAT      O28897   1.646   7.606   6.655  0.0267  0.5855 -0.1513
 7048WAT     H128898   1.681   7.640   6.582  0.0981  1.4282  0.2607
 7048WAT     H228899   1.565   7.585   6.632  0.1398  0.5800 -0.5490
 7048WAT    EPW28900   1.639   7.608   6.641  0.0175 -0.7304 -0.2410
 7049WAT      O28901   3.893   7.549   7.930 -1.0272  0.0182  0.1477
 7049WAT     H128902   3.834   7.613   7.927 -0.3431  0.6587 -0.1338
 7049WAT     H228903   3.969   7.592   7.931 -0.5779 -0.7097  2.7464
 7049WAT    EPW28904   3.896   7.565   7.929  0.3525 -0.3038 -0.0593
 7050WAT      O28905   5.202   3.352   6.131  0.5030 -0.1998  0.0688
 7050WAT     H128906   5.125   3.387   6.108  0.5598 -0.4143 -0.4765
 7050WAT     H228907   5.236   3.326   6.055  0.3943 -1.5724  0.4627
 7050WAT    EPW28908   5.196   3.353   6.116 -0.0301  0.0141 -0.3267
 7051WAT      O28909   0.184   2.148   2.473 -0.2015  0.2721  0.2095
 7051WAT     H128910   0.177   2.098   2.402 -0.0289  0.9854 -0.3138
 7051WAT     H228911   0.166   2.228   2.444 -0.0068  0.5906  0.9450
 7051WAT    EPW28912   0.180   2.153   2.459 -0.1579 -0.4416 -0.3401
 7052WAT      O28913   6.549   4.462   1.852 -0.8567  0.3396 -0.1555
 7052WAT     H128914   6.527   4.404   1.914 -0.8319  1.4382  0.9166
 7052WAT     H228915   6.634   4.476   1.866 -1.2874  2.1795  0.9995
 7052WAT    EPW28916   6.558   4.456   1.863  0.0520 -0.4007 -0.4144
 7053WAT      O28917   3.949   3.639   5.201  0.0681 -0.3081  0.1373
 7053WAT     H128918   3.931   3.696   5.264 -1.0709 -0.5642  0.0607
 7053WAT     H228919   3.982   3.570   5.245 -2.8729 -1.4479  0.8030
 7053WAT    EPW28920   3.951   3.637   5.217 -0.5024 -1.0471 -0.4617
 7054WAT      O28921   2.189   4.723   6.857  0.0270 -0.5689 -0.1977
 7054WAT     H128922   2.166   4.800   6.892 -0.0979 -1.0432  0.7994
 7054WAT     H228923   2.168   4.732   6.773 -2.8573 -0.5437  0.3977
 7054WAT    EPW28924   2.182   4.736   6.850 -0.5799 -0.1811 -0.6217
 7055WAT      O28925   2.226   1.927   6.696 -0.0771  0.3966  0.2953
 7055WAT     H128926   2.199   1.985   6.637 -0.1772 -0.2572 -0.3149
 7055WAT     H228927   2.152   1.898   6.732 -0.0441  0.4559  0.4089
 7055WAT    EPW28928   2.211   1.931   6.692  0.0739  0.9221 -0.0102
 7056WAT      O28929   4.327   4.764   5.825  0.5497 -0.2042 -0.1033
 7056WAT     H128930   4.247   4.749   5.857 -0.5974  0.3035 -2.5170
 7056WAT     H228931   4.331   4.712   5.755  2.3136 -0.1310 -0.1022
 7056WAT    EPW28932   4.316   4.754   5.820  0.1151  0.0042 -0.3377
 7057WAT      O28933   2.558   4.544   1.570  0.1429 -0.0302  0.1705
 7057WAT     H128934   2.511   4.617   1.579  0.0375 -0.0907  0.1312
 7057WAT     H228935   2.627   4.557   1.620  1.6785  1.3609 -2.0926
 7057WAT    EPW28936   2.561   4.557   1.578  0.6979  0.6247 -0.0249
 7058WAT      O28937   2.721   1.750   5.825 -0.6420 -0.1002  0.5041
 7058WAT     H128938   2.798   1.711   5.809  0.2049  1.2877  1.0908
 7058WAT     H228939   2.715   1.809   5.761 -0.5821  0.6942  1.2260
 7058WAT    EPW28940   2.732   1.753   5.813 -0.7136 -0.1200 -0.0795
 7059WAT      O28941   3.563   4.967   5.602  0.2590  0.5670  0.1130
 7059WAT     H128942   3.522   5.037   5.569 -0.6475  0.0005 -0.0273
 7059WAT     H228943   3.530   4.961   5.683 -2.3052 -1.5996 -0.9455
 7059WAT    EPW28944   3.552   4.977   5.609 -0.6391  0.6403 -0.4192
 7060WAT      O28945   2.332   0.708   1.473 -0.7481  0.2072  0.1101
 7060WAT     H128946   2.367   0.735   1.398 -0.6851 -1.3073 -0.4470
 7060WAT     H228947   2.363   0.765   1.532  1.6515 -0.2763 -0.5443
 7060WAT    EPW28948   2.342   0.721   1.471  0.1075  0.4566  0.2765
 7061WAT      O28949   4.069   5.042   2.842 -0.8508 -0.6253  0.3536
 7061WAT     H128950   4.097   5.006   2.916 -0.3623 -0.6538  0.1643
 7061WAT     H228951   4.111   5.118   2.839  0.2268 -1.2224 -0.5652
 7061WAT    EPW28952   4.079   5.048   2.852  0.2872 -0.7687 -0.6289
 7062WAT      O28953   3.787   4.525   3.805 -0.3007 -0.2892 -0.7780
 7062WAT     H128954   3.785   4.478   3.732  0.2264 -1.7567  0.1130
 7062WAT     H228955   3.837   4.478   3.858  0.3342  1.3500  0.1297
 7062WAT    EPW28956   3.794   4.511   3.802  0.3257  0.8998  0.3109
 7063WAT      O28957   1.847   6.955   3.841 -0.2468 -0.1347  0.1115
 7063WAT     H128958   1.803   6.986   3.910  1.7827 -0.5093  1.6941
 7063WAT     H228959   1.886   7.026   3.809 -0.0630 -0.1717  0.2494
 7063WAT    EPW28960   1.847   6.970   3.847 -0.0500  0.1577  0.3434
 7064WAT      O28961   2.679   7.969   6.354  0.2540  0.0325 -0.1692
 7064WAT     H128962   2.711   7.955   6.274 -0.8435 -1.6325 -0.3630
 7064WAT     H228963   2.721   7.911   6.404 -0.6334 -0.4487  0.0337
 7064WAT    EPW28964   2.690   7.958   6.350 -0.0888 -0.3756 -0.3117
 7065WAT      O28965   6.124   3.550   4.719 -0.3617  0.5434 -0.8008
 7065WAT     H128966   6.139   3.535   4.804 -0.0091 -1.0371 -1.1033
 7065WAT     H228967   6.195   3.517   4.680 -0.5655  1.1579 -1.7341
 7065WAT    EPW28968   6.137   3.543   4.726 -0.1415 -0.2098 -0.5032
 7066WAT      O28969   4.590   3.984   4.314 -0.3326 -0.0378  0.1630
 7066WAT     H128970   4.561   4.048   4.365 -0.4727  2.2769 -2.5918
 7066WAT     H228971   4.518   3.949   4.281 -0.5599  3.8699 -4.4898
 7066WAT    EPW28972   4.575   3.988   4.317  0.2688  0.0836 -0.0752
 7067WAT      O28973   1.425   4.443   4.570 -0.1427 -0.3129  0.1313
 7067WAT     H128974   1.511   4.427   4.568 -0.0460 -0.5525  2.6422
 7067WAT     H228975   1.389   4.370   4.540  0.5317 -1.1270  1.2264
 7067WAT    EPW28976   1.433   4.430   4.566 -0.5787  0.6710  0.2770
 7068WAT      O28977   2.817   5.631   5.443 -0.0745  0.0829  0.2313
 7068WAT     H128978   2.808   5.616   5.358  0.3960  1.0112  0.0118
 7068WAT     H228979   2.742   5.670   5.465 -0.4533 -0.7060  0.3845
 7068WAT    EPW28980   2.805   5.634   5.434  0.1016 -0.5675 -0.2614
 7069WAT      O28981   5.086   2.404   5.483  0.2476  0.4407 -0.3663
 7069WAT     H128982   5.073   2.378   5.565  1.1551 -0.1832 -0.4055
 7069WAT     H228983   5.168   2.432   5.483  0.3715  0.0972 -1.1477
 7069WAT    EPW28984   5.096   2.404   5.495  0.1763  0.6508 -0.6268
 7070WAT      O28985   3.865   5.109   3.572 -0.6616 -0.2676  0.1712
 7070WAT     H128986   3.924   5.135   3.513 -0.2323 -1.1593  0.1885
 7070WAT     H228987   3.876   5.165   3.638 -0.0343 -0.2418  0.0538
 7070WAT    EPW28988   3.875   5.121   3.573  0.0777 -0.2575  0.3496
 7071WAT      O28989   4.453   5.413   5.395 -0.2225  0.2050 -0.3387
 7071WAT     H128990   4.440   5.369   5.321 -0.2550 -2.5125  1.1478
 7071WAT     H228991   4.373   5.426   5.427 -0.1229 -0.7134  0.3127
 7071WAT    EPW28992   4.439   5.409   5.389 -0.6711 -0.1093 -0.0466
 7072WAT      O28993   4.765   3.796   3.804  0.0017  0.3000  0.0201
 7072WAT     H128994   4.802   3.750   3.740 -1.7184 -1.1455 -0.0085
 7072WAT     H228995   4.758   3.876   3.770  1.2539  0.1290 -0.6932
 7072WAT    EPW28996   4.769   3.801   3.789  0.1295  0.3909  0.1286
 7073WAT      O28997   3.420   5.689   3.501  0.1498 -0.5843 -0.2022
 7073WAT     H128998   3.459   5.615   3.526 -1.9201 -1.1580  1.5693
 7073WAT     H228999   3.342   5.664   3.472  0.4041  0.6898 -2.2207
 7073WAT    EPW29000   3.414   5.674   3.500 -0.3728 -0.7971 -0.7258
 7074WAT      O29001   5.821   7.143   3.547  0.6327 -0.1592  0.0580
 7074WAT     H129002   5.857   7.214   3.584  1.9929 -0.5878 -0.3915
 7074WAT     H229003   5.800   7.170   3.467  0.5713 -0.0957  0.0952
 7074WAT    EPW29004   5.824   7.158   3.541  0.1410  0.3787  0.6562
 7075WAT      O29005   5.550   3.565   4.958 -0.2172 -0.0256 -0.1096
 7075WAT     H129006   5.507   3.604   4.893 -0.5717 -0.7654 -0.3393
 7075WAT     H229007   5.490   3.561   5.022 -0.0788  0.1153  0.0278
 7075WAT    EPW29008   5.534   3.570   4.958 -0.2206 -0.1913 -0.1706
 7076WAT      O29009   5.836   4.326   2.644 -0.2167  0.3860 -0.2232
 7076WAT     H129010   5.918   4.300   2.630 -0.0663  0.8153 -0.1522
 7076WAT     H229011   5.839   4.361   2.724 -0.5863 -0.0769 -0.0041
 7076WAT    EPW29012   5.848   4.328   2.654  0.8858  0.2544 -0.0207
 7077WAT      O29013   1.540   3.502   0.786 -0.4958  0.5072  0.0477
 7077WAT     H129014   1.613   3.482   0.829  1.9017  1.9443 -2.9563
 7077WAT     H229015   1.505   3.566   0.834 -1.7799 -2.2951  3.2879
 7077WAT    EPW29016   1.546   3.509   0.799  0.2644  0.5065 -0.0545
 7078WAT      O29017   4.389   3.811   4.255  0.2762 -0.3583  0.5146
 7078WAT     H129018   4.413   3.734   4.287  1.5379 -0.7779 -1.3149
 7078WAT     H229019   4.343   3.790   4.184  0.3542  0.5830  0.1783
 7078WAT    EPW29020   4.386   3.797   4.249  0.2526 -0.0267  1.0474
 7079WAT      O29021   4.271   3.738   4.020  0.5883 -0.2178 -0.1586
 7079WAT     H129022   4.289   3.654   4.009 -0.0440 -0.5381  1.0453
 7079WAT     H229023   4.244   3.764   3.941 -0.8864 -1.5966 -0.1545
 7079WAT    EPW29024   4.270   3.730   4.007  0.1377  0.1165 -0.2632
 7080WAT      O29025   5.328   3.892   4.207 -0.6548  0.5920  0.5176
 7080WAT     H129026   5.355   3.944   4.143 -0.7956  1.0608  0.8338
 7080WAT     H229027   5.387   3.904   4.270 -0.5304  0.1541  0.4889
 7080WAT    EPW29028   5.340   3.902   4.207  0.1407 -0.9366 -0.4330
 7081WAT      O29029   5.836   5.623   5.321 -0.2439  0.3456 -0.2414
 7081WAT     H129030   5.877   5.697   5.303 -0.4161  0.9771  1.6797
 7081WAT     H229031   5.788   5.607   5.250 -0.6642  2.4105 -0.4797
 7081WAT    EPW29032   5.835   5.631   5.308 -0.1599  0.1233  0.2346
 7082WAT      O29033   3.644   4.506   4.102 -0.1225 -0.4403 -0.1032
 7082WAT     H129034   3.705   4.457   4.063 -0.9624 -2.4164  0.9447
 7082WAT     H229035   3.678   4.520   4.181 -0.2960 -0.1074 -0.0878
 7082WAT    EPW29036   3.658   4.501   4.108 -0.1269  0.0637 -0.1758
 7083WAT      O29037   2.815   6.554   1.024  0.0701 -0.1491 -0.4105
 7083WAT     H129038   2.739   6.582   1.057 -0.5947 -1.0883 -1.0808
 7083WAT     H229039   2.849   6.506   1.088 -0.3149 -0.4100 -0.3963
 7083WAT    EPW29040   2.808   6.551   1.038 -0.3657 -0.3213 -0.8331
 7084WAT      O29041   4.747   5.903   4.329 -0.1813  0.2266  0.3201
 7084WAT     H129042   4.798   5.834   4.342 -0.5414 -0.1712 -0.3544
 7084WAT     H229043   4.669   5.878   4.359 -0.2286  0.4698  0.4038
 7084WAT    EPW29044   4.743   5.889   4.336  0.2321  0.0276 -0.0156
 7085WAT      O29045   0.422   6.182   2.259  0.3620  0.3715 -0.4224
 7085WAT     H129046   0.371   6.117   2.229  1.1493 -1.4537  1.8639
 7085WAT     H229047   0.372   6.253   2.250 -0.7887 -0.6153 -2.4398
 7085WAT    EPW29048   0.407   6.183   2.253  0.6515  0.8352 -0.4823
 7086WAT      O29049   6.825   4.144   1.836 -0.1303 -0.0613  0.2174
 7086WAT     H129050   6.843   4.223   1.867 -0.4595 -0.7452  2.3275
 7086WAT     H229051   6.769   4.159   1.771  2.9613  1.6665 -2.3639
 7086WAT    EPW29052   6.820   4.158   1.831 -0.5516  0.0274 -0.5370
 7087WAT      O29053   5.106   2.425   1.187  0.4823 -0.1775 -0.1294
 7087WAT     H129054   5.134   2.358   1.139  0.0533 -0.1188 -0.4673
 7087WAT     H229055   5.178   2.474   1.197  0.5405 -0.1030 -0.8622
 7087WAT    EPW29056   5.121   2.422   1.181  0.1569  0.3906  0.0103
 7088WAT      O29057   2.922   2.226   7.146  0.2121 -0.1893 -0.3172
 7088WAT     H129058   2.950   2.269   7.076 -2.2382  0.8033 -0.7772
 7088WAT     H229059   2.947   2.277   7.213  0.9684 -0.2212 -0.5654
 7088WAT    EPW29060   2.930   2.240   7.146  0.0555 -0.0831  0.6663
 7089WAT      O29061   3.900   2.224   1.226  0.7988 -0.4088  0.2299
 7089WAT     H129062   3.951   2.157   1.250  1.6753 -0.0057 -0.4430
 7089WAT     H229063   3.852   2.240   1.297  0.1447 -2.1295  0.2300
 7089WAT    EPW29064   3.901   2.216   1.240 -0.0291 -0.2854  0.0317
 7090WAT      O29065   3.062   4.765   6.308 -0.5390 -0.1296 -0.4724
 7090WAT     H129066   3.062   4.701   6.368  0.5440  1.0350  0.8359
 7090WAT     H229067   3.084   4.725   6.234  0.2317 -1.2459  0.3437
 7090WAT    EPW29068   3.065   4.750   6.306 -0.2566  0.0816 -0.6017
 7091WAT      O29069   2.924   0.961   1.334 -0.1648 -0.6372  0.2611
 7091WAT     H129070   2.874   1.006   1.390  1.7757  1.5032  0.3945
 7091WAT     H229071   2.982   0.921   1.385  0.3878 -0.2971 -0.0965
 7091WAT    EPW29072   2.925   0.962   1.350  0.5933 -0.3154 -0.5808
 7092WAT      O29073   0.042   0.506   1.529  0.2889  0.5864  0.1549
 7092WAT     H129074   0.081   0.564   1.477 -1.1006  1.1683 -0.2861
 7092WAT     H229075   0.023   0.440   1.475  0.6512  0.2963  0.3727
 7092WAT    EPW29076   0.045   0.504   1.513 -0.4263  0.0851  0.0646
 7093WAT      O29077   1.959   6.629   4.328 -0.7456 -0.7957 -0.1032
 7093WAT     H129078   1.887   6.587   4.303 -1.4277 -0.0641  0.5898
 7093WAT     H229079   1.961   6.699   4.276  0.3047 -1.5587 -1.1481
 7093WAT    EPW29080   1.949   6.633   4.316  0.0175  0.1105 -0.9817
 7094WAT      O29081   1.907   1.193   4.794 -0.1167 -0.2724 -0.3270
 7094WAT     H129082   1.902   1.161   4.875 -1.3399  0.0615 -0.2476
 7094WAT     H229083   1.952   1.133   4.750  0.8116 -0.3252  0.6621
 7094WAT    EPW29084   1.913   1.180   4.800 -0.1494  0.1349  0.4077
 7095WAT      O29085   4.375   0.014   1.262 -0.2707  0.0242 -0.2771
 7095WAT     H129086   4.371   0.037   1.346 -2.6895 -2.4598  0.4684
 7095WAT     H229087   4.450   0.048   1.234  0.5166  1.1503  2.8189
 7095WAT    EPW29088   4.385   0.022   1.270  0.0164 -0.1017 -0.0282
 7096WAT      O29089   5.187   4.512   5.049  0.2363  0.5272 -0.2160
 7096WAT     H129090   5.117   4.561   5.064 -0.0002  0.1768 -0.1644
 7096WAT     H229091   5.190   4.504   4.962  0.7784  1.3557 -0.2859
 7096WAT    EPW29092   5.177   4.518   5.039  0.3378 -0.0116  0.1402
 7097WAT      O29093   7.875   3.475   2.256  0.0813  0.0748 -0.2895
 7097WAT     H129094   7.798   3.434   2.259 -0.1772  0.5075 -0.8833
 7097WAT     H229095   7.854   3.556   2.231  0.5336  0.7109  1.2573
 7097WAT    EPW29096   7.860   3.481   2.253 -0.2253  0.3135 -0.0551
 7098WAT      O29097   2.811   2.146   2.406  0.2484  0.6542  0.2852
 7098WAT     H129098   2.832   2.231   2.404 -0.2007  0.7901  0.9421
 7098WAT     H229099   2.805   2.129   2.491  1.4985 -0.3365  0.1954
 7098WAT    EPW29100   2.813   2.156   2.418 -0.2658 -0.0713  0.2673
 7099WAT      O29101   1.326   6.199   3.249  0.0603  0.3168  0.1043
 7099WAT     H129102   1.352   6.163   3.324 -0.6942 -0.2014  0.1186
 7099WAT     H229103   1.240   6.187   3.248 -0.0199  0.8552 -0.5665
 7099WAT    EPW29104   1.317   6.192   3.260  0.8504 -0.0393 -0.1072
 7100WAT      O29105   2.053   4.984   7.888  0.1373 -0.0891  0.0375
 7100WAT     H129106   2.044   4.951   7.969 -1.2330  0.9266  0.3434
 7100WAT     H229107   2.085   4.917   7.842 -1.4121 -1.5000  0.8888
 7100WAT    EPW29108   2.056   4.969   7.893  0.0464  0.0109 -0.0181
 7101WAT      O29109   1.733   2.458   5.042 -0.0907 -0.2343  0.2294
 7101WAT     H129110   1.758   2.407   4.975  1.5242  1.1750 -0.3149
 7101WAT     H229111   1.808   2.478   5.081 -0.7956  0.8163  1.0863
 7101WAT    EPW29112   1.748   2.453   5.038 -0.0532  0.5203 -0.4358
 7102WAT      O29113   4.940   3.415   0.288  0.0917 -0.3422 -0.5224
 7102WAT     H129114   5.015   3.395   0.249 -0.6674 -1.3454 -1.5170
 7102WAT     H229115   4.906   3.338   0.309  0.2545  0.1428  1.8076
 7102WAT    EPW29116   4.946   3.401   0.286  0.0310  0.2063 -0.5228
 7103WAT      O29117   5.079   1.678   7.459 -0.0022 -0.1398 -0.2946
 7103WAT     H129118   5.040   1.710   7.388  1.4964  3.0238  0.1270
 7103WAT     H229119   5.023   1.699   7.523 -1.0345 -2.4005 -0.3390
 7103WAT    EPW29120   5.065   1.686   7.458 -0.2119  0.5778 -0.1469
 7104WAT      O29121   5.137   1.024   2.174  0.4276  0.2109  0.4685
 7104WAT     H129122   5.072   1.051   2.226  1.2771  1.6052  0.8355
 7104WAT     H229123   5.121   1.065   2.099 -0.6192 -1.5612 -0.3661
 7104WAT    EPW29124   5.125   1.034   2.171  0.2418 -0.0323  0.0215
 7105WAT      O29125   4.153   1.219   2.210 -0.3624 -0.0116  0.3269
 7105WAT     H129126   4.071   1.247   2.207 -0.6518 -0.9092 -1.9357
 7105WAT     H229127   4.198   1.291   2.229 -1.4624  1.0711 -0.9303
 7105WAT    EPW29128   4.148   1.234   2.212  0.1426 -0.1780 -0.2316
 7106WAT      O29129   1.243   5.029   0.528  0.8001 -0.4961  0.2018
 7106WAT     H129130   1.315   4.991   0.560 -0.0445 -1.4509  1.0469
 7106WAT     H229131   1.264   5.114   0.526  3.2267 -0.9866 -3.0005
 7106WAT    EPW29132   1.257   5.036   0.533 -0.0355 -0.2354 -0.1034
 7107WAT      O29133   6.780   1.240   0.290  0.8029  0.3527 -0.6980
 7107WAT     H129134   6.728   1.171   0.300  1.1104  0.1640 -0.3552
 7107WAT     H229135   6.860   1.207   0.305  0.7270  1.4682  3.2872
 7107WAT    EPW29136   6.784   1.225   0.294 -0.1495  0.3597 -0.1761
 7108WAT      O29137   3.476   5.368   3.274 -0.2964  0.2892  0.3083
 7108WAT     H129138   3.426   5.376   3.345 -1.9044 -2.2397 -0.3937
 7108WAT     H229139   3.485   5.282   3.265  1.6522  0.5894 -1.3880
 7108WAT    EPW29140   3.470   5.356   3.283 -0.2024  0.4366  0.0564
 7109WAT      O29141   2.319   5.010   3.415  0.5479 -0.1300 -0.1321
 7109WAT     H129142   2.260   5.005   3.350 -0.4845  1.7354  0.5695
 7109WAT     H229143   2.319   4.930   3.448 -1.1234 -0.3793 -0.5928
 7109WAT    EPW29144   2.310   4.997   3.410 -0.2486  0.3318  0.4872
 7110WAT      O29145   6.738   0.077   2.321 -0.0191  0.1880 -0.1620
 7110WAT     H129146   6.718   0.155   2.287 -1.2889 -0.5355 -1.1601
 7110WAT     H229147   6.727   0.022   2.254 -1.7560 -1.1814  1.1363
 7110WAT    EPW29148   6.733   0.081   2.306 -0.5835  0.2587 -0.1479
 7111WAT      O29149   6.160   3.294   0.602  0.1313  0.6508 -0.2408
 7111WAT     H129150   6.162   3.347   0.671 -0.1361  0.6853 -0.2581
 7111WAT     H229151   6.184   3.217   0.635  1.6612  1.0144 -0.4394
 7111WAT    EPW29152   6.164   3.290   0.617 -0.2743  0.2847  0.4971
 7112WAT      O29153   2.501   3.131   1.659 -0.1960  0.1948  0.2429
 7112WAT     H129154   2.470   3.095   1.586  1.1517 -2.5036  0.8601
 7112WAT     H229155   2.431   3.136   1.712 -0.9261  1.0358 -0.7591
 7112WAT    EPW29156   2.486   3.127   1.656 -0.0944  0.4462  0.5844
 7113WAT      O29157   7.753   4.801   4.450 -0.2814 -0.5630  0.0517
 7113WAT     H129158   7.836   4.818   4.470  0.0618 -0.3961 -1.4332
 7113WAT     H229159   7.737   4.851   4.380 -1.5426 -0.8275  0.1144
 7113WAT    EPW29160   7.763   4.811   4.443 -0.7266 -0.1540 -0.1380
 7114WAT      O29161   3.673   2.225   0.834 -0.4204  0.5929 -0.2146
 7114WAT     H129162   3.624   2.236   0.762 -0.2037  1.1049 -0.2914
 7114WAT     H229163   3.654   2.144   0.860  0.7508 -0.2268 -1.7968
 7114WAT    EPW29164   3.663   2.215   0.827  0.2671 -0.6529 -0.3940
 7115WAT      O29165   5.562   6.778   0.539 -0.3537 -0.0933 -0.3001
 7115WAT     H129166   5.501   6.730   0.579  0.3680 -0.4112  0.4437
 7115WAT     H229167   5.604   6.720   0.489 -0.2070 -0.0157 -0.2670
 7115WAT    EPW29168   5.559   6.762   0.538 -0.4912 -0.4307 -0.4366
 7116WAT      O29169   5.912   3.628   0.406 -0.4031  0.0485  0.5251
 7116WAT     H129170   5.890   3.655   0.326  0.3794  1.1294  0.6568
 7116WAT     H229171   5.995   3.653   0.414 -0.0416 -1.2482  1.1762
 7116WAT    EPW29172   5.921   3.636   0.396  0.2766  0.4559 -0.1710
 7117WAT      O29173   1.742   5.692   1.174 -0.1819 -0.5620  0.2070
 7117WAT     H129174   1.699   5.651   1.110 -1.7236  0.0086  0.8103
 7117WAT     H229175   1.711   5.773   1.169  0.2285 -0.3410  1.2043
 7117WAT    EPW29176   1.731   5.698   1.164 -0.7532  0.1598 -0.2821
 7118WAT      O29177   0.865   2.958   1.584 -0.1061 -0.0798 -0.1688
 7118WAT     H129178   0.916   2.908   1.534 -0.6354  0.3437 -1.1349
 7118WAT     H229179   0.795   2.908   1.598 -0.9791  0.6451 -1.7709
 7118WAT    EPW29180   0.862   2.943   1.579  0.4473 -0.0078 -0.4834
 7119WAT      O29181   6.947   5.021   3.966 -0.4192  0.3726  0.0626
 7119WAT     H129182   6.923   5.015   3.882  1.0924 -0.3684 -0.3585
 7119WAT     H229183   6.902   4.957   4.005 -2.6299  1.9405  0.2507
 7119WAT    EPW29184   6.937   5.011   3.959 -0.2462 -0.0333  0.0185
 7120WAT      O29185   2.456   6.296   0.369  0.1779 -0.1824 -0.1882
 7120WAT     H129186   2.478   6.250   0.440  0.4069  0.3923  0.1234
 7120WAT     H229187   2.505   6.261   0.306  0.4243 -0.3002  0.0639
 7120WAT    EPW29188   2.467   6.284   0.370  0.2178 -0.0855 -0.4434
 7121WAT      O29189   2.478   0.398   0.977  0.1129  0.2136  0.4525
 7121WAT     H129190   2.397   0.430   0.974 -0.1257 -0.3872  0.2455
 7121WAT     H229191   2.473   0.335   1.038 -0.4473 -2.0834 -1.7700
 7121WAT    EPW29192   2.465   0.393   0.985  0.3154  0.2260 -0.3451
 7122WAT      O29193   1.908   2.389   6.463  0.1865  0.1099 -0.1531
 7122WAT     H129194   1.853   2.451   6.493  0.0137 -0.0024 -0.2381
 7122WAT     H229195   1.981   2.404   6.509  1.1013  2.1422 -2.0879
 7122WAT    EPW29196   1.910   2.401   6.474  0.0626  0.2436  0.3160
 7123WAT      O29197   6.560   3.982   2.841 -0.0292 -0.4024 -0.7378
 7123WAT     H129198   6.532   4.062   2.821  0.4325  0.2669  1.1410
 7123WAT     H229199   6.638   3.977   2.800  0.2228  0.3469 -0.3630
 7123WAT    EPW29200   6.568   3.993   2.832  0.3219  0.0023 -0.4382
 7124WAT      O29201   3.859   0.725   0.466  0.4363 -0.2169  0.0505
 7124WAT     H129202   3.899   0.669   0.519  0.6208 -0.8387 -0.7100
 7124WAT     H229203   3.812   0.673   0.414 -2.3273  0.5148  1.6171
 7124WAT    EPW29204   3.858   0.709   0.466 -0.1109  0.2290 -0.4050
 7125WAT      O29205   2.430   4.095   7.505 -0.3724  0.0338  0.0996
 7125WAT     H129206   2.440   4.093   7.418  0.7308  0.6329  0.1965
 7125WAT     H229207   2.497   4.143   7.532  0.0782 -1.2644  1.4148
 7125WAT    EPW29208   2.442   4.102   7.496 -0.2557 -0.6753  0.5464
 7126WAT      O29209   3.012   3.824   3.165  0.1243  0.0552 -0.8467
 7126WAT     H129210   2.948   3.856   3.116 -2.5640 -0.9536  1.6701
 7126WAT     H229211   3.011   3.874   3.236  1.4338 -0.6124 -0.3221
 7126WAT    EPW29212   3.002   3.836   3.168 -0.7958  1.0770  0.1522
 7127WAT      O29213   1.700   2.913   4.258 -0.4291 -0.0096 -0.5647
 7127WAT     H129214   1.706   2.827   4.270 -1.0050 -0.0669 -0.6151
 7127WAT     H229215   1.614   2.926   4.248 -0.3390  0.5562 -0.6662
 7127WAT    EPW29216   1.688   2.902   4.258 -0.1322  1.2492  0.1002
 7128WAT      O29217   5.011   2.662   2.645 -0.0019 -0.2480  0.6530
 7128WAT     H129218   5.057   2.598   2.606 -0.8910 -1.1537  1.0538
 7128WAT     H229219   5.067   2.729   2.646  1.5291 -1.4462  1.5665
 7128WAT    EPW29220   5.026   2.662   2.639  0.2225  0.0525  0.1069
 7129WAT      O29221   4.636   2.667   7.645 -0.1690  0.7160 -0.6156
 7129WAT     H129222   4.596   2.711   7.708 -0.5132 -0.2303 -0.1556
 7129WAT     H229223   4.603   2.701   7.572 -0.7321  0.9289 -0.2635
 7129WAT    EPW29224   4.626   2.679   7.643 -0.5850  0.0820  0.4785
 7130WAT      O29225   6.383   0.718   0.110  0.3171 -0.4178 -0.5777
 7130WAT     H129226   6.455   0.761   0.088  0.1752  0.0753 -0.0946
 7130WAT     H229227   6.366   0.669   0.040  0.8823 -0.2226 -0.8545
 7130WAT    EPW29228   6.391   0.717   0.096 -0.2231 -0.1965 -0.3231
 7131WAT      O29229   4.846   5.336   0.192  0.0540  0.1481 -0.1550
 7131WAT     H129230   4.825   5.253   0.175  0.5131 -0.5331  2.2228
 7131WAT     H229231   4.835   5.343   0.278  0.6439  2.3936 -0.1917
 7131WAT    EPW29232   4.842   5.325   0.202 -0.1782  0.4332 -0.0540
 7132WAT      O29233   2.474   4.470   0.554 -0.0799 -0.0118 -0.6889
 7132WAT     H129234   2.495   4.497   0.473  1.9245 -1.6294 -0.7957
 7132WAT     H229235   2.542   4.496   0.602 -0.9201  0.3075  0.3396
 7132WAT    EPW29236   2.487   4.478   0.549  0.1353  0.2757 -0.2855
 7133WAT      O29237   2.525   5.903   0.759  0.0684 -0.2461  0.2021
 7133WAT     H129238   2.494   5.912   0.839  1.8201 -0.0172  0.9013
 7133WAT     H229239   2.590   5.845   0.768 -0.6037 -1.3081 -1.3268
 7133WAT    EPW29240   2.530   5.896   0.772 -0.2341  0.3710  0.7142
 7134WAT      O29241   7.525   3.401   4.281  0.1689  0.2258  0.0556
 7134WAT     H129242   7.517   3.475   4.325  3.1587  0.8721 -0.3115
 7134WAT     H229243   7.590   3.359   4.322  2.1137  0.2191 -2.7562
 7134WAT    EPW29244   7.533   3.406   4.294  0.0013 -0.5054 -0.3958
 7135WAT      O29245   3.958   4.868   0.705  0.2108  0.3627 -0.1541
 7135WAT     H129246   3.969   4.935   0.651 -0.9601  0.6058 -0.1104
 7135WAT     H229247   3.873   4.849   0.698  0.6667 -1.6925 -0.8341
 7135WAT    EPW29248   3.947   4.875   0.696 -0.4693  0.2671  0.5594
 7136WAT      O29249   4.488   2.902   0.835 -0.2979  0.0715 -0.0674
 7136WAT     H129250   4.539   2.927   0.902  0.4305 -0.6809 -0.3237
 7136WAT     H229251   4.543   2.900   0.767 -0.9757  0.5637 -0.6430
 7136WAT    EPW29252   4.504   2.905   0.835  0.5246  0.0343  0.2716
 7137WAT      O29253   4.923   4.449   6.251 -0.0852  0.6045 -0.5738
 7137WAT     H129254   4.853   4.411   6.215 -1.3986  1.1716  1.2426
 7137WAT     H229255   4.926   4.527   6.212  0.3536  0.1017 -1.5899
 7137WAT    EPW29256   4.913   4.455   6.240 -0.1616  0.4509 -0.1713
 7138WAT      O29257   1.213   5.498   2.918 -0.3609 -0.1954 -0.1959
 7138WAT     H129258   1.292   5.469   2.893 -0.8248 -1.2575 -0.4617
 7138WAT     H229259   1.160   5.471   2.855 -1.3020 -1.5677  1.1302
 7138WAT    EPW29260   1.217   5.490   2.905  0.2248 -0.0707  0.8093
 7139WAT      O29261   4.063   6.589   1.127 -0.3618  0.4268  0.5760
 7139WAT     H129262   4.070   6.635   1.053 -0.1445  0.5087  0.6457
 7139WAT     H229263   4.139   6.545   1.130  0.1923  1.4011  1.4013
 7139WAT    EPW29264   4.075   6.590   1.116 -0.2316 -0.0799  0.0691
 7140WAT      O29265   2.392   6.857   1.763  0.3475 -0.2232  0.4141
 7140WAT     H129266   2.460   6.839   1.712 -0.1138 -2.8020  0.5832
 7140WAT     H229267   2.402   6.942   1.781  1.8337  0.2142 -1.9770
 7140WAT    EPW29268   2.404   6.867   1.758 -0.9699 -0.3937 -0.0196
 7141WAT      O29269   3.142   5.607   4.095  0.5432 -0.3000  0.1562
 7141WAT     H129270   3.149   5.558   4.167 -1.2661 -0.1014  0.5113
 7141WAT     H229271   3.113   5.684   4.125 -0.7870 -0.3909 -0.8180
 7141WAT    EPW29272   3.139   5.611   4.110 -0.2557 -0.1598  1.1416
 7142WAT      O29273   4.494   7.015   8.008 -0.1108 -0.6100  0.2316
 7142WAT     H129274   4.442   6.964   8.055 -0.5998 -1.7801 -1.5038
 7142WAT     H229275   4.473   7.096   8.035  1.8947 -1.1961  4.3059
 7142WAT    EPW29276   4.483   7.019   8.019  0.0294  0.1407 -1.0199
 7143WAT      O29277   6.112   4.589   1.019 -1.0059 -0.1323  0.0450
 7143WAT     H129278   6.083   4.533   1.079 -0.2242  0.9166  1.4592
 7143WAT     H229279   6.183   4.623   1.056 -2.0325  2.5816 -0.2520
 7143WAT    EPW29280   6.118   4.586   1.033  0.4250  0.0255  0.1927
 7144WAT      O29281   8.000   1.892   2.461  0.3383  0.7433 -0.5960
 7144WAT     H129282   7.975   1.975   2.464  0.8613  0.9143  2.3514
 7144WAT     H229283   7.926   1.847   2.455 -0.1038  1.4002 -0.1021
 7144WAT    EPW29284   7.986   1.897   2.460  0.3597  0.0697  0.2152
 7145WAT      O29285   4.197   4.302   0.246 -0.1340  0.0013 -0.2096
 7145WAT     H129286   4.263   4.248   0.228  0.5254  0.2164  1.4402
 7145WAT     H229287   4.216   4.333   0.326 -1.5069  1.1523 -0.2834
 7145WAT    EPW29288   4.210   4.299   0.255 -0.2373 -0.2469  0.0560
 7146WAT      O29289   3.643   3.839   1.910  0.2148  0.1610  0.0191
 7146WAT     H129290   3.643   3.805   1.990  1.8794  0.1605  0.0362
 7146WAT     H229291   3.667   3.921   1.922 -0.2232  0.3610 -0.4155
 7146WAT    EPW29292   3.646   3.846   1.924 -0.0611  0.0208 -0.3917
 7147WAT      O29293   4.768   4.212   7.840 -0.6252  0.4442 -0.3278
 7147WAT     H129294   4.706   4.152   7.830 -1.2678  1.1774 -0.7885
 7147WAT     H229295   4.839   4.165   7.860 -0.7532 -0.5898 -2.1071
 7147WAT    EPW29296   4.770   4.196   7.842  0.0451  0.2841 -0.4355
 7148WAT      O29297   4.499   3.445   7.107  0.1670 -0.1685  0.0338
 7148WAT     H129298   4.419   3.482   7.106 -0.0293 -0.5664  0.5697
 7148WAT     H229299   4.511   3.425   7.191  0.6571 -0.5004 -0.1113
 7148WAT    EPW29300   4.489   3.448   7.119 -0.1234 -0.0310 -0.4751
 7149WAT      O29301   4.693   5.036   0.661 -0.3496  0.2471  0.5218
 7149WAT     H129302   4.750   4.982   0.624 -0.4775 -0.2479  1.0317
 7149WAT     H229303   4.674   4.998   0.737 -0.8246  0.7562  0.6716
 7149WAT    EPW29304   4.698   5.023   0.666  0.4559 -0.0676 -0.2473
 7150WAT      O29305   1.717   3.938   5.579 -0.7235 -0.7227  0.3431
 7150WAT     H129306   1.756   4.006   5.540 -0.5087 -0.2482  1.3694
 7150WAT     H229307   1.657   3.975   5.631 -1.0104 -1.3482  0.4710
 7150WAT    EPW29308   1.714   3.954   5.581 -0.4647  0.0732 -0.1560
 7151WAT      O29309   0.705   3.162   2.016  0.2650  0.9154 -0.0911
 7151WAT     H129310   0.656   3.199   1.955 -1.1137 -0.0497  0.3951
 7151WAT     H229311   0.661   3.090   2.038  1.4506  0.4772  1.0073
 7151WAT    EPW29312   0.691   3.157   2.010  0.0540 -0.4023  0.2128
 7152WAT      O29313   6.120   5.815   2.004  0.0965 -0.0328 -0.6885
 7152WAT     H129314   6.082   5.851   2.073  0.7999  1.4050 -1.0085
 7152WAT     H229315   6.104   5.730   2.013 -1.6326  0.3413  0.1032
 7152WAT    EPW29316   6.112   5.808   2.015 -0.0099  0.6217 -0.2662
 7153WAT      O29317   0.551   3.360   2.605 -0.1355  0.1969  0.5822
 7153WAT     H129318   0.606   3.302   2.571 -1.6400 -0.6985 -0.4553
 7153WAT     H229319   0.569   3.433   2.561 -0.5633 -0.4021 -0.6430
 7153WAT    EPW29320   0.562   3.362   2.593  0.0372 -0.3009  0.1474
 7154WAT      O29321   5.872   4.528   3.832 -0.4589 -0.1048 -0.2149
 7154WAT     H129322   5.934   4.578   3.867 -0.5461 -0.6671  0.7661
 7154WAT     H229323   5.905   4.447   3.838 -1.4885 -0.4669  0.7941
 7154WAT    EPW29324   5.886   4.524   3.838  0.4979  0.0512  0.1913
 7155WAT      O29325   7.648   4.587   0.486 -0.5386 -0.3721 -0.5119
 7155WAT     H129326   7.658   4.660   0.440  0.5677  0.6952  1.3171
 7155WAT     H229327   7.718   4.539   0.464 -0.1571  0.0186 -0.1567
 7155WAT    EPW29328   7.660   4.591   0.476 -0.2889  0.1474  0.3787
 7156WAT      O29329   0.417   1.370   1.018  0.3205  0.1631 -0.3886
 7156WAT     H129330   0.419   1.306   0.959 -2.0414 -0.8594  0.4771
 7156WAT     H229331   0.353   1.422   0.989  2.7152  2.6860 -1.5000
 7156WAT    EPW29332   0.408   1.368   1.005 -0.0444 -0.4351 -0.9766
 7157WAT      O29333   7.016   3.509   1.376 -0.7695 -0.0133  0.2190
 7157WAT     H129334   7.097   3.503   1.346 -0.7176  0.2882  0.2984
 7157WAT     H229335   6.966   3.496   1.305 -0.6515  0.2419  0.0897
 7157WAT    EPW29336   7.021   3.506   1.361  0.1823  0.4884 -0.0102
 7158WAT      O29337   1.394   4.094   7.423 -0.3907 -0.3813 -0.4185
 7158WAT     H129338   1.388   4.100   7.336 -2.3883 -1.5678 -0.4202
 7158WAT     H229339   1.367   4.171   7.451  2.5891  0.9514 -0.7986
 7158WAT    EPW29340   1.389   4.106   7.414  0.3493 -0.0445 -0.1861
 7159WAT      O29341   4.043   3.414   5.798  0.2901 -0.0270 -0.4597
 7159WAT     H129342   4.090   3.469   5.750  0.6345  0.3191  0.2560
 7159WAT     H229343   4.013   3.356   5.740 -0.3195  1.0737 -1.2798
 7159WAT    EPW29344   4.045   3.414   5.783 -0.0667  0.4378 -0.4911
 7160WAT      O29345   2.744   4.468   6.183  0.2430  0.3733  0.4411
 7160WAT     H129346   2.786   4.482   6.108 -0.3812  3.6362  0.5668
 7160WAT     H229347   2.791   4.511   6.242 -0.2732 -0.6329  1.6437
 7160WAT    EPW29348   2.757   4.476   6.180  0.7275  0.0850 -0.2455
 7161WAT      O29349   7.090   3.665   2.255  0.0880  0.7392 -0.2666
 7161WAT     H129350   7.085   3.752   2.256  1.1451  0.8383 -1.3432
 7161WAT     H229351   7.025   3.641   2.203 -0.3151  0.8729  0.1734
 7161WAT    EPW29352   7.080   3.674   2.247  0.1459 -0.1313  0.0342
 7162WAT      O29353   0.279   5.833   3.644  0.1099 -0.1414 -0.0623
 7162WAT     H129354   0.256   5.758   3.683 -1.1079  0.8469  1.2172
 7162WAT     H229355   0.295   5.887   3.711 -1.0326  1.3174 -0.9051
 7162WAT    EPW29356   0.278   5.830   3.660 -0.1510  0.0151 -1.0181
 7163WAT      O29357   4.486   1.998   3.455  0.0476 -0.1186  0.1617
 7163WAT     H129358   4.528   2.026   3.383  0.3467  1.8647  1.0459
 7163WAT     H229359   4.404   1.986   3.427  0.0442  1.0981 -0.4435
 7163WAT    EPW29360   4.480   2.001   3.440 -0.3137 -0.5207 -0.1617
 7164WAT      O29361   3.095   5.454   2.767  0.4867 -0.3930 -0.5275
 7164WAT     H129362   3.068   5.527   2.805  1.8556 -0.0056 -0.2605
 7164WAT     H229363   3.142   5.414   2.829  1.8299 -0.2868 -1.4302
 7164WAT    EPW29364   3.098   5.459   2.782  0.3390 -0.3413  0.1612
 7165WAT      O29365   4.111   2.456   1.308  0.1574  0.0275  0.2451
 7165WAT     H129366   4.026   2.434   1.308 -0.0643  0.8096 -1.1817
 7165WAT     H229367   4.152   2.378   1.311 -0.6015 -0.3901 -0.0313
 7165WAT    EPW29368   4.105   2.441   1.309  0.6245  0.4337  0.0432
 7166WAT      O29369   6.657   5.026   3.296  0.0267 -0.7780 -0.0327
 7166WAT     H129370   6.617   4.949   3.302 -0.2705 -0.5886  0.4981
 7166WAT     H229371   6.609   5.070   3.239  1.1996 -1.5781 -1.7165
 7166WAT    EPW29372   6.644   5.021   3.288 -0.1867  0.3488 -0.0245
 7167WAT      O29373   5.274   5.310   3.119 -0.4709  0.2980  0.1339
 7167WAT     H129374   5.205   5.346   3.159 -0.1790  1.4905 -0.3787
 7167WAT     H229375   5.341   5.357   3.149 -0.0856  0.2631 -0.6523
 7167WAT    EPW29376   5.274   5.323   3.130 -0.6498  0.4924 -0.0624
 7168WAT      O29377   4.535   2.399   2.756 -0.0793 -0.3140 -0.0965
 7168WAT     H129378   4.564   2.339   2.699  1.8149 -1.3854  1.8483
 7168WAT     H229379   4.481   2.448   2.708  1.3172 -1.1915 -2.7828
 7168WAT    EPW29380   4.531   2.397   2.740  0.1675 -0.1164 -0.0434
 7169WAT      O29381   1.556   6.116   2.381 -0.4998  0.2316 -0.4908
 7169WAT     H129382   1.494   6.088   2.326 -1.9610  0.3060  1.0311
 7169WAT     H229383   1.583   6.190   2.344 -4.4580  2.6360  0.7974
 7169WAT    EPW29384   1.551   6.123   2.367  0.5365 -0.0760 -0.0169
 7170WAT      O29385   5.580   5.943   3.722 -0.1222  0.4214 -0.1017
 7170WAT     H129386   5.522   5.986   3.770 -0.3082  0.5900 -0.4707
 7170WAT     H229387   5.582   5.863   3.757  0.0363  0.6550  0.4285
 7170WAT    EPW29388   5.572   5.937   3.734  0.0391 -0.2013 -0.0261
 7171WAT      O29389   5.390   2.166   3.387  0.1284  0.1262 -0.1080
 7171WAT     H129390   5.439   2.151   3.457  0.4208 -1.7891 -0.6609
 7171WAT     H229391   5.344   2.237   3.409  1.5199  0.6508  1.2836
 7171WAT    EPW29392   5.390   2.174   3.401  0.8675  0.0784 -0.4877
 7172WAT      O29393   1.831   1.730   3.369  0.4902  0.2354 -0.1724
 7172WAT     H129394   1.787   1.677   3.423 -1.0560  0.2205 -1.3833
 7172WAT     H229395   1.880   1.676   3.322  0.3487  0.0561 -0.1130
 7172WAT    EPW29396   1.831   1.714   3.370 -0.0422 -0.7041 -0.2783
 7173WAT      O29397   5.172   5.355   3.461  0.6517  0.0360 -0.1427
 7173WAT     H129398   5.139   5.296   3.405  0.8908  0.3700 -0.6391
 7173WAT     H229399   5.197   5.306   3.529 -1.8489 -0.1348  0.7536
 7173WAT    EPW29400   5.171   5.339   3.463  0.5426  0.3655 -0.4088
 7174WAT      O29401   4.348   5.662   0.788 -0.2452 -0.4034 -0.6408
 7174WAT     H129402   4.371   5.634   0.709  0.5941  0.3096 -0.6576
 7174WAT     H229403   4.286   5.605   0.812 -0.2474 -0.8505 -1.6457
 7174WAT    EPW29404   4.342   5.649   0.780  0.9597 -0.5858 -0.3383
 7175WAT      O29405   0.204   5.004   3.229 -0.2933 -0.3432 -0.1901
 7175WAT     H129406   0.279   4.981   3.268  0.2879  0.6135 -0.6873
 7175WAT     H229407   0.220   4.990   3.144  0.0768  1.6809 -0.5229
 7175WAT    EPW29408   0.217   4.999   3.222  0.5296 -0.1704 -0.6213
 7176WAT      O29409   5.371   1.051   5.720  0.0775  0.0739 -0.0069
 7176WAT     H129410   5.419   1.080   5.787 -0.1480 -0.0104  0.1918
 7176WAT     H229411   5.428   1.005   5.673 -0.0223 -0.8204  0.7271
 7176WAT    EPW29412   5.386   1.049   5.723 -0.1269  0.1752 -0.3902
 7177WAT      O29413   1.854   3.552   2.565 -0.0428  0.0320  0.0019
 7177WAT     H129414   1.889   3.534   2.643 -0.7378  0.3597  0.3897
 7177WAT     H229415   1.877   3.635   2.550 -1.0375  0.4037  0.4734
 7177WAT    EPW29416   1.863   3.561   2.574  0.0217 -0.3036  0.1368
 7178WAT      O29417   4.352   2.302   0.115 -0.0247  0.6278  0.4214
 7178WAT     H129418   4.411   2.322   0.054 -0.1990  0.0233  0.0426
 7178WAT     H229419   4.293   2.365   0.108 -1.0600 -0.4429 -1.3945
 7178WAT    EPW29420   4.352   2.314   0.105  0.7552  0.0033  0.5233
 7179WAT      O29421   1.392   3.264   4.922  0.6855  0.5529 -0.4506
 7179WAT     H129422   1.415   3.283   4.840 -0.1093  0.1263 -0.7929
 7179WAT     H229423   1.305   3.277   4.922  0.4967 -0.5926 -0.0158
 7179WAT    EPW29424   1.383   3.269   4.910 -0.2559 -0.4345 -0.0024
 7180WAT      O29425   3.548   0.946   3.396  0.2873 -0.2459 -0.4080
 7180WAT     H129426   3.626   0.973   3.368 -0.1296  0.0972 -1.2809
 7180WAT     H229427   3.493   0.976   3.335 -0.5542 -0.2556  0.3343
 7180WAT    EPW29428   3.551   0.954   3.383  0.4594 -0.0369 -0.1679
 7181WAT      O29429   6.021   2.015   0.835 -0.1704  0.0778  0.7810
 7181WAT     H129430   5.995   2.084   0.882 -0.1648 -0.4019  1.5108
 7181WAT     H229431   6.072   1.972   0.891  0.6528  0.0136 -0.0089
 7181WAT    EPW29432   6.025   2.019   0.850  0.2286 -0.1268  0.4147
 7182WAT      O29433   5.740   4.978   2.370 -0.5821 -0.3757  0.8408
 7182WAT     H129434   5.666   5.021   2.385 -0.5434 -0.1113  0.2860
 7182WAT     H229435   5.727   4.941   2.292 -0.6616 -1.4649  1.3546
 7182WAT    EPW29436   5.727   4.979   2.361  0.2786 -0.7937  0.2020
 7183WAT      O29437   5.298   4.480   2.150  0.3307 -0.4064 -0.1707
 7183WAT     H129438   5.308   4.470   2.236 -0.5534 -1.5000 -0.1676
 7183WAT     H229439   5.359   4.428   2.117  0.0277 -0.7538 -0.1913
 7183WAT    EPW29440   5.308   4.471   2.158 -0.4174  0.4752  0.1085
 7184WAT      O29441   3.065   1.805   0.879  0.4344  0.3334 -0.0272
 7184WAT     H129442   3.088   1.779   0.799  1.5357  0.9296  0.0783
 7184WAT     H229443   2.986   1.842   0.867  0.5189  0.2774 -0.7994
 7184WAT    EPW29444   3.056   1.806   0.865 -0.1098 -0.3678  0.4767
 7185WAT      O29445   5.895   4.040   2.846 -0.9988  0.0404  0.1503
 7185WAT     H129446   5.925   4.063   2.768  0.4424 -2.2909 -0.0800
 7185WAT     H229447   5.836   4.102   2.864  1.9832  3.4268 -0.5784
 7185WAT    EPW29448   5.891   4.052   2.837 -0.3690  0.2102  0.0750
 7186WAT      O29449   5.433   3.713   1.643  0.3374 -0.0314 -0.4703
 7186WAT     H129450   5.377   3.667   1.692 -0.2073  0.3439 -0.7235
 7186WAT     H229451   5.385   3.736   1.574  0.4823  1.2051 -0.1858
 7186WAT    EPW29452   5.417   3.709   1.640 -0.0187  0.1963  0.0790
 7187WAT      O29453   2.390   4.806   7.996 -0.0938  0.3502 -0.2948
 7187WAT     H129454   2.389   4.741   7.937 -2.4270  0.2485 -0.2087
 7187WAT     H229455   2.463   4.790   8.042  0.8761 -0.5589 -2.0384
 7187WAT    EPW29456   2.401   4.794   7.994  0.3378  0.0628 -0.2164
 7188WAT      O29457   4.357   4.096   7.135 -0.0344 -0.0831  0.0402
 7188WAT     H129458   4.289   4.107   7.081 -2.1219 -1.5383  2.1540
 7188WAT     H229459   4.399   4.028   7.100 -0.6874 -0.2815 -0.3814
 7188WAT    EPW29460   4.353   4.087   7.122 -0.0862  0.1077 -0.3830
 7189WAT      O29461   3.403   5.040   2.733 -0.2558 -0.4129 -0.0303
 7189WAT     H129462   3.455   4.973   2.713 -1.4017 -2.0549  2.1147
 7189WAT     H229463   3.322   5.008   2.724 -0.8451  0.7272  0.8263
 7189WAT    EPW29464   3.399   5.025   2.729  0.0412 -0.1699  0.5449
 7190WAT      O29465   2.744   4.521   0.069 -0.0421 -0.0611  0.2595
 7190WAT     H129466   2.698   4.512  -0.005 -0.9825  1.9724  0.5317
 7190WAT     H229467   2.826   4.531   0.041 -0.4438  1.1099 -0.5652
 7190WAT    EPW29468   2.749   4.521   0.054 -0.0009 -0.3225 -0.3478
 7191WAT      O29469   6.398   5.436   4.195  0.5414  0.2150  0.0643
 7191WAT     H129470   6.451   5.462   4.131  1.1502 -0.0840  0.4417
 7191WAT     H229471   6.320   5.465   4.169  0.6112 -0.6889 -1.2722
 7191WAT    EPW29472   6.394   5.444   4.181 -0.1123  0.7440  0.1926
 7192WAT      O29473   4.350   1.927   6.922 -0.4467 -0.2221  0.2980
 7192WAT     H129474   4.374   1.900   6.843 -0.0627 -0.3111  0.4428
 7192WAT     H229475   4.278   1.881   6.939 -0.3755 -0.4007  0.1160
 7192WAT    EPW29476   4.343   1.916   6.913 -0.1475 -0.5622  0.2535
 7193WAT      O29477   5.183   4.498   1.883  0.5133  0.1750 -0.0514
 7193WAT     H129478   5.218   4.491   1.962  2.0042 -1.1266 -0.7586
 7193WAT     H229479   5.248   4.530   1.834  0.3624 -1.0751 -1.1546
 7193WAT    EPW29480   5.198   4.501   1.887 -0.0066 -0.2533  0.0796
 7194WAT      O29481   5.009   4.883   1.176 -0.0444  0.0309 -0.6503
 7194WAT     H129482   4.941   4.864   1.227  1.1570 -1.1294  0.6088
 7194WAT     H229483   5.013   4.970   1.178 -0.9215  0.0667  0.0156
 7194WAT    EPW29484   5.000   4.893   1.183 -0.1044  0.0395 -0.5386
 7195WAT      O29485   4.785   3.554   5.077 -0.2992  0.5395  0.0047
 7195WAT     H129486   4.866   3.524   5.062 -0.8300 -0.4573 -0.9800
 7195WAT     H229487   4.767   3.522   5.157 -0.2147 -0.3935 -0.3343
 7195WAT    EPW29488   4.794   3.545   5.087  0.0077 -0.1422 -0.3752
 7196WAT      O29489   3.021   4.557   7.091  0.5021 -0.0283  0.4118
 7196WAT     H129490   2.937   4.539   7.104 -0.0829  0.3306 -2.2541
 7196WAT     H229491   3.063   4.492   7.131 -0.9562  0.2655  2.5573
 7196WAT    EPW29492   3.015   4.545   7.099  0.4435 -0.8610 -0.4495
 7197WAT      O29493   4.002   3.840   3.110 -0.1345 -0.2540  0.0077
 7197WAT     H129494   3.993   3.784   3.043  2.4097  0.2759 -0.9056
 7197WAT     H229495   4.087   3.861   3.107 -0.1945  0.7273  2.6982
 7197WAT    EPW29496   4.013   3.835   3.099  0.2222  0.1094  0.3285
 7198WAT      O29497   2.239   4.272   0.289 -0.0892  0.4884  0.4601
 7198WAT     H129498   2.250   4.206   0.345 -1.5364 -1.4681 -1.3689
 7198WAT     H229499   2.155   4.294   0.298 -1.1663 -1.6828 -2.5306
 7198WAT    EPW29500   2.228   4.265   0.298 -0.4548 -0.1038 -0.4487
 7199WAT      O29501   6.037   3.417   1.315  0.0245 -0.4441 -0.3112
 7199WAT     H129502   5.957   3.408   1.348 -0.7711 -0.2283 -2.0868
 7199WAT     H229503   6.029   3.483   1.258  1.5505 -0.1903 -0.2767
 7199WAT    EPW29504   6.024   3.425   1.312 -0.1700 -0.3234 -0.2993
 7200WAT      O29505   5.390   3.559   0.888 -0.2622  0.1503  0.3948
 7200WAT     H129506   5.353   3.600   0.820 -1.1261  2.1703  1.9750
 7200WAT     H229507   5.474   3.583   0.884 -0.8725  3.0017  1.7375
 7200WAT    EPW29508   5.397   3.569   0.877  0.2870  0.5682 -0.0489
 7201WAT      O29509   3.563   3.980   1.473  0.4902  0.5741 -0.3536
 7201WAT     H129510   3.647   4.004   1.467  0.1866  1.9382  0.4246
 7201WAT     H229511   3.561   3.928   1.543  0.5103  1.4635  0.3229
 7201WAT    EPW29512   3.575   3.976   1.482  0.0920 -0.5211 -0.1828
 7202WAT      O29513   1.862   4.986   5.788  0.0560 -0.4368  0.6857
 7202WAT     H129514   1.816   5.022   5.723 -1.1590 -0.8792  1.2704
 7202WAT     H229515   1.944   4.986   5.758 -0.1237  1.4205  0.0666
 7202WAT    EPW29516   1.868   4.992   5.774  0.6654 -0.9318  0.1514
 7203WAT      O29517   3.479   3.027   2.509  0.2117  0.2001 -0.0964
 7203WAT     H129518   3.480   3.097   2.561  0.5930  0.2598 -0.1777
 7203WAT     H229519   3.559   3.027   2.473  0.7904 -1.1816  1.0908
 7203WAT    EPW29520   3.491   3.038   2.511  0.1342  0.0158  0.3019
 7204WAT      O29521   0.888   2.609   1.427 -0.9170  0.1193 -0.5501
 7204WAT     H129522   0.828   2.636   1.484 -0.9019 -0.7841 -0.0853
 7204WAT     H229523   0.958   2.658   1.446 -1.2816  0.6749 -0.6204
 7204WAT    EPW29524   0.890   2.620   1.438 -0.1600  0.0944  0.6773
 7205WAT      O29525   2.814   5.417   2.076 -0.6078 -0.4514  0.0789
 7205WAT     H129526   2.873   5.477   2.102 -0.2940 -0.7479  0.0594
 7205WAT     H229527   2.748   5.465   2.046 -0.6504 -0.1106  0.7122
 7205WAT    EPW29528   2.813   5.433   2.075 -0.6117 -0.2982  0.4345
 7206WAT      O29529   7.195   0.962   3.970 -0.4061  0.3202  0.3012
 7206WAT     H129530   7.132   1.021   3.961 -1.9834 -1.4108 -0.8887
 7206WAT     H229531   7.228   0.955   3.890  0.6249  0.5021  0.7066
 7206WAT    EPW29532   7.190   0.969   3.957 -0.2420  0.1342  0.6900
 7207WAT      O29533   4.092   5.239   1.229  0.6609 -0.0511 -0.6524
 7207WAT     H129534   4.134   5.182   1.280 -0.9881 -1.2695 -0.5782
 7207WAT     H229535   4.012   5.242   1.263 -0.0487  0.2950 -2.2351
 7207WAT    EPW29536   4.086   5.231   1.242 -0.2344 -0.0111  0.7372
 7208WAT      O29537   7.336   3.937   1.462  0.3991 -0.0268 -0.1161
 7208WAT     H129538   7.286   3.916   1.531  1.9690  1.1298  1.4545
 7208WAT     H229539   7.408   3.890   1.475  1.1777  1.0798 -0.3145
 7208WAT    EPW29540   7.339   3.927   1.474 -0.1960  0.3985 -0.2119
 7209WAT      O29541   5.600   3.524   2.364  0.1400  0.7701  0.0600
 7209WAT     H129542   5.583   3.608   2.381  0.6593  0.9940 -0.5073
 7209WAT     H229543   5.525   3.494   2.332 -0.1630  0.9195  0.6245
 7209WAT    EPW29544   5.586   3.532   2.362 -0.4462 -0.5003  0.3564
 7210WAT      O29545   5.436   2.637   3.310  0.0385  0.1538  0.9962
 7210WAT     H129546   5.407   2.568   3.356 -0.8016 -0.1869  0.0050
 7210WAT     H229547   5.379   2.642   3.243 -0.1736  2.0774  1.2626
 7210WAT    EPW29548   5.423   2.627   3.307 -0.1751  0.7240 -0.0605
 7211WAT      O29549   7.077   7.209   4.384  0.0121  0.0334 -0.2336
 7211WAT     H129550   7.143   7.155   4.368 -0.0825 -1.0440  2.3959
 7211WAT     H229551   7.112   7.267   4.440 -0.6762  0.8934 -0.6706
 7211WAT    EPW29552   7.092   7.210   4.390 -0.9035  0.5473 -0.8704
 7212WAT      O29553   1.464   6.003   4.557 -0.2116 -0.6375 -0.2706
 7212WAT     H129554   1.434   6.069   4.509 -2.0264  0.3731  2.0557
 7212WAT     H229555   1.545   6.029   4.577 -0.3320  0.1135 -0.7007
 7212WAT    EPW29556   1.472   6.017   4.553 -0.3509  0.5480  0.6025
 7213WAT      O29557   1.814   3.288   1.828  0.5759 -0.5377 -0.4157
 7213WAT     H129558   1.753   3.241   1.869 -0.8170  0.8871 -0.7953
 7213WAT     H229559   1.780   3.303   1.750  2.0792 -0.9546 -1.1914
 7213WAT    EPW29560   1.800   3.283   1.823 -0.1011  0.1096  0.4001
 7214WAT      O29561   3.703   5.742   1.073  0.3233 -0.0761 -0.2159
 7214WAT     H129562   3.724   5.674   1.023 -1.5078 -0.4650 -0.5520
 7214WAT     H229563   3.648   5.788   1.023  2.6009  2.5290 -0.5865
 7214WAT    EPW29564   3.698   5.739   1.059  0.5752 -0.1508 -0.4791
 7215WAT      O29565   5.133   4.830   0.288  0.0084  0.1304  0.1774
 7215WAT     H129566   5.084   4.788   0.229 -1.0955  0.2286  0.9886
 7215WAT     H229567   5.205   4.851   0.243 -0.6359 -0.1157 -1.0280
 7215WAT    EPW29568   5.136   4.827   0.273  0.7366 -0.1180  0.1186
 7216WAT      O29569   7.492   0.272   2.129 -0.3086  0.3119 -0.1848
 7216WAT     H129570   7.413   0.298   2.154  0.0860  0.0740  1.4496
 7216WAT     H229571   7.477   0.223   2.058 -1.5710  0.6297 -0.1472
 7216WAT    EPW29572   7.478   0.268   2.122 -0.4021  0.0023 -0.0985
 7217WAT      O29573   0.388   5.565   4.845  0.7736  0.4015  0.0177
 7217WAT     H129574   0.375   5.575   4.759 -0.8601 -0.1396  0.1526
 7217WAT     H229575   0.474   5.555   4.852  1.0952  1.8081 -1.4000
 7217WAT    EPW29576   0.399   5.565   4.833 -0.1947  0.4116 -0.2756
 7218WAT      O29577   1.298   4.794   7.584 -0.4825  0.6094 -0.1319
 7218WAT     H129578   1.264   4.873   7.568  3.2653  3.0166  2.1652
 7218WAT     H229579   1.331   4.802   7.665  0.7679 -3.0908 -0.0987
 7218WAT    EPW29580   1.298   4.807   7.594  0.1771 -0.1169 -0.6464
 7219WAT      O29581   6.770   3.401   1.868 -0.0189 -0.3046 -0.3488
 7219WAT     H129582   6.777   3.439   1.790  0.0515  0.7121  0.1400
 7219WAT     H229583   6.684   3.397   1.881 -0.0214  1.2709  0.3276
 7219WAT    EPW29584   6.758   3.406   1.858 -0.1020 -0.1937 -0.2400
 7220WAT      O29585   5.783   3.718   0.135  0.3854  0.5069  0.0244
 7220WAT     H129586   5.746   3.640   0.124  1.1781 -0.2222  2.0157
 7220WAT     H229587   5.777   3.755   0.057 -0.4085 -1.3831 -0.8692
 7220WAT    EPW29588   5.777   3.712   0.122  0.3571  0.6968 -1.2904
 7221WAT      O29589   6.135   1.818   8.007 -0.1744  0.2895 -0.2833
 7221WAT     H129590   6.156   1.737   7.984  0.3307  0.9672 -2.5878
 7221WAT     H229591   6.065   1.836   7.958  0.4386  1.5960 -0.7430
 7221WAT    EPW29592   6.128   1.809   7.996  0.4688  0.1791 -0.1113
 7222WAT      O29593   2.151   2.121   5.423 -0.0433 -0.4608 -0.3199
 7222WAT     H129594   2.169   2.198   5.461  0.7614 -0.3752 -0.8582
 7222WAT     H229595   2.096   2.143   5.359 -1.6824 -0.6472  0.9516
 7222WAT    EPW29596   2.146   2.136   5.419  0.1835  0.2669 -0.1672
 7223WAT      O29597   2.903   5.387   2.592  0.3293 -0.1198 -0.1796
 7223WAT     H129598   2.962   5.408   2.653 -1.1395  0.9241  0.9561
 7223WAT     H229599   2.897   5.460   2.544  1.2597 -0.8372 -1.4661
 7223WAT    EPW29600   2.911   5.401   2.594 -0.7232  0.2343 -0.3654
 7224WAT      O29601   4.703   1.570   0.957 -0.0898 -0.2161 -0.4481
 7224WAT     H129602   4.648   1.526   0.906  0.6797 -0.8925 -0.7079
 7224WAT     H229603   4.650   1.615   1.010 -0.8867 -1.1304 -0.4449
 7224WAT    EPW29604   4.687   1.570   0.957  0.2393 -0.3150  0.2289
 7225WAT      O29605   2.678   1.075   1.482 -0.1935  0.2488 -0.3549
 7225WAT     H129606   2.625   1.107   1.421  0.6020  0.9340 -0.7147
 7225WAT     H229607   2.692   1.142   1.536 -0.2564 -0.1239  0.1369
 7225WAT    EPW29608   2.672   1.089   1.481  0.6058  0.1187  0.5059
 7226WAT      O29609   4.034   0.056   3.451  0.5747 -0.6064 -0.4816
 7226WAT     H129610   4.076   0.123   3.489 -1.8353  0.2293  0.9147
 7226WAT     H229611   4.044   0.071   3.366  0.2283  1.4919 -0.2083
 7226WAT    EPW29612   4.042   0.069   3.444  0.4317 -0.6244 -0.2321
 7227WAT      O29613   5.208   4.945   7.378  0.2567  0.0797 -0.3529
 7227WAT     H129614   5.228   4.908   7.302  2.7017  0.9467 -0.2011
 7227WAT     H229615   5.180   5.025   7.356 -0.6148 -0.2227 -0.3983
 7227WAT    EPW29616   5.207   4.952   7.363  0.0831 -0.8406 -0.2158
 7228WAT      O29617   2.424   5.982   3.145 -0.0337 -0.5346  0.3677
 7228WAT     H129618   2.464   6.060   3.137  1.9322 -1.5533 -0.4514
 7228WAT     H229619   2.350   6.002   3.186  0.4350  1.7620  0.2769
 7228WAT    EPW29620   2.419   5.997   3.150 -0.3799 -0.4834  0.0190
 7229WAT      O29621   3.936   0.211   1.391 -0.2451 -0.2809  0.7986
 7229WAT     H129622   3.993   0.267   1.356 -0.3903 -0.9563 -0.6051
 7229WAT     H229623   3.965   0.201   1.473  0.6059  0.7443  0.6453
 7229WAT    EPW29624   3.949   0.218   1.398 -0.9135 -0.0264 -0.7863
 7230WAT      O29625   5.392   7.314   4.712 -0.1322 -0.6737  0.3251
 7230WAT     H129626   5.428   7.327   4.634 -1.2954 -1.1199 -0.3165
 7230WAT     H229627   5.444   7.257   4.751  1.6984  1.1816  0.7852
 7230WAT    EPW29628   5.405   7.308   4.706 -0.3662  0.5052 -0.2045
 7231WAT      O29629   7.414   5.072   4.445 -0.3797  0.2244 -0.1271
 7231WAT     H129630   7.486   5.035   4.478 -0.7889 -0.1442  0.3615
 7231WAT     H229631   7.429   5.157   4.456 -0.6715  0.1141  1.4329
 7231WAT    EPW29632   7.427   5.079   4.452 -0.5850 -0.0816  0.3957
 7232WAT      O29633   1.049   6.581   1.586  0.1047  0.0854 -0.7811
 7232WAT     H129634   1.126   6.541   1.595  0.2703  0.9436  3.3123
 7232WAT     H229635   1.069   6.659   1.552  1.3913  0.9142  1.6649
 7232WAT    EPW29636   1.063   6.586   1.582  0.2429 -0.1086  0.0972
 7233WAT      O29637   4.958   6.570   0.152  0.2659 -0.3336 -0.2039
 7233WAT     H129638   4.992   6.637   0.197  0.9172 -0.4823 -0.4587
 7233WAT     H229639   4.915   6.609   0.086 -0.4802 -0.1264  0.3963
 7233WAT    EPW29640   4.957   6.586   0.149  0.7373 -0.1585 -1.2225
 7234WAT      O29641   1.705   7.892   0.169  0.7197 -0.0675  0.5204
 7234WAT     H129642   1.750   7.821   0.193  1.4797 -0.0404 -0.7151
 7234WAT     H229643   1.763   7.940   0.126  0.2457  1.4044  1.4505
 7234WAT    EPW29644   1.720   7.888   0.166 -0.4933  0.1361 -0.1538
 7235WAT      O29645   5.092   0.637   4.416  0.2723  0.1018  0.8170
 7235WAT     H129646   5.025   0.635   4.473 -0.1264 -0.6751  0.3303
 7235WAT     H229647   5.148   0.580   4.449 -0.1347 -0.6511  0.2321
 7235WAT    EPW29648   5.090   0.628   4.430  0.1157  0.6577 -0.0614
 7236WAT      O29649   2.268   5.089   1.932  0.1330  0.2665  0.4250
 7236WAT     H129650   2.296   5.086   1.849  0.2125 -0.3174  0.4697
 7236WAT     H229651   2.266   5.005   1.956 -0.1539  0.4138  0.9277
 7236WAT    EPW29652   2.272   5.076   1.923  0.1203  0.1464  0.4868
 7237WAT      O29653   7.116   7.743   3.094  0.0743 -0.4473  0.2000
 7237WAT     H129654   7.041   7.759   3.053  0.5656  0.3682 -0.4066
 7237WAT     H229655   7.150   7.822   3.107  0.7788 -0.7996  0.5853
 7237WAT    EPW29656   7.110   7.757   3.090  0.2707 -0.3798  0.0603
 7238WAT      O29657   4.801   4.463   2.078  0.2773 -0.4284 -0.4333
 7238WAT     H129658   4.831   4.540   2.107  1.5508 -0.7083 -0.9087
 7238WAT     H229659   4.862   4.439   2.020 -0.2447 -1.6666 -0.4903
 7238WAT    EPW29660   4.814   4.471   2.073  0.1584 -0.4995  0.3644
 7239WAT      O29661   5.241   5.822   3.049 -0.5009  0.0842 -0.2571
 7239WAT     H129662   5.238   5.894   3.098 -1.0786 -0.4189  0.4763
 7239WAT     H229663   5.238   5.758   3.108  0.9901 -0.5629 -0.8361
 7239WAT    EPW29664   5.240   5.823   3.065 -0.2224  0.8183  0.1760
 7240WAT      O29665   1.840   4.053   0.171 -0.1089 -0.3175  0.1096
 7240WAT     H129666   1.782   4.025   0.113  0.4976 -1.1548 -0.1109
 7240WAT     H229667   1.843   3.990   0.231 -1.7544  1.1346  1.8698
 7240WAT    EPW29668   1.832   4.040   0.171  0.2593  0.1957 -0.3698
 7241WAT      O29669   4.221   3.630   7.838 -0.3004  0.1345 -0.3966
 7241WAT     H129670   4.245   3.549   7.817  0.0018  0.1721 -0.2095
 7241WAT     H229671   4.135   3.631   7.824 -0.4768 -0.5209  0.5579
 7241WAT    EPW29672   4.212   3.618   7.833 -0.9864  0.1455 -0.3263
 7242WAT      O29673   7.570   4.790   1.133  0.8501  0.7361 -0.5035
 7242WAT     H129674   7.637   4.735   1.129  0.7113  0.5782 -0.6883
 7242WAT     H229675   7.563   4.808   1.218  0.7879  0.3330 -0.4210
 7242WAT    EPW29676   7.579   4.784   1.145  0.0196 -0.4468  0.0307
 7243WAT      O29677   3.077   3.524   7.706 -0.1816 -0.5268  0.6528
 7243WAT     H129678   3.078   3.591   7.762 -1.6528  0.2928 -0.2392
 7243WAT     H229679   3.115   3.459   7.751  1.4037  0.9134  1.4979
 7243WAT    EPW29680   3.082   3.524   7.721 -0.4344  0.0743 -0.5001
 7244WAT      O29681   3.421   0.636   7.555  0.1551 -0.3454 -0.4458
 7244WAT     H129682   3.365   0.599   7.611  0.2406 -0.2328 -0.2843
 7244WAT     H229683   3.464   0.568   7.520  1.1991 -0.3489  0.7770
 7244WAT    EPW29684   3.419   0.621   7.558 -0.0985 -0.3884  0.0549
 7245WAT      O29685   5.418   4.307   5.354 -0.0561  0.0101 -0.0699
 7245WAT     H129686   5.432   4.252   5.288 -0.3174 -0.3870  0.2061
 7245WAT     H229687   5.488   4.297   5.405 -0.1805 -0.1834  0.0622
 7245WAT    EPW29688   5.431   4.298   5.352  0.0976  0.4198 -0.7007
 7246WAT      O29689   0.178   0.432   1.763  0.4124 -0.4624 -0.8501
 7246WAT     H129690   0.249   0.405   1.721  1.0796  1.0217 -0.7379
 7246WAT     H229691   0.122   0.449   1.698  0.4280 -0.8899 -0.9792
 7246WAT    EPW29692   0.180   0.430   1.747 -0.0461  0.2212 -0.6735
 7247WAT      O29693   1.715   2.428   1.890 -0.3587 -0.3946  0.2035
 7247WAT     H129694   1.721   2.367   1.829 -1.4633  0.3458 -0.6867
 7247WAT     H229695   1.629   2.437   1.903 -0.1705 -0.7598  2.1319
 7247WAT    EPW29696   1.703   2.420   1.883 -0.2761  0.0630  1.0680
 7248WAT      O29697   2.765   4.552   0.625 -0.0240 -0.0737  0.1626
 7248WAT     H129698   2.795   4.491   0.571  2.3452 -0.3738  1.6800
 7248WAT     H229699   2.781   4.627   0.583 -2.0120 -0.3680 -1.2563
 7248WAT    EPW29700   2.771   4.554   0.611 -0.1488 -0.2537  0.2582
 7249WAT      O29701   4.358   6.010   0.585 -0.3623 -0.3373  0.2659
 7249WAT     H129702   4.357   5.927   0.613 -1.3651  0.2853  2.2737
 7249WAT     H229703   4.410   6.007   0.515 -0.7297 -2.7312 -0.0096
 7249WAT    EPW29704   4.366   5.997   0.579  0.0828  0.3751  0.4411
 7250WAT      O29705   3.081   4.224   5.403 -0.2772  0.1916  0.6651
 7250WAT     H129706   3.018   4.224   5.463 -1.1565  2.0026 -0.1582
 7250WAT     H229707   3.111   4.306   5.405 -0.1812  0.2503 -1.1673
 7250WAT    EPW29708   3.076   4.236   5.412 -0.1070  0.6314 -0.5806
 7251WAT      O29709   4.544   3.310   0.880 -0.1017  0.4332 -0.0638
 7251WAT     H129710   4.499   3.239   0.904  2.2559 -1.5179 -0.9911
 7251WAT     H229711   4.550   3.357   0.953  1.4706 -2.2053  1.6766
 7251WAT    EPW29712   4.538   3.306   0.894  0.5245 -0.3093  0.3841
 7252WAT      O29713   1.582   1.272   3.006  0.0324  0.0663  0.2500
 7252WAT     H129714   1.501   1.263   2.973 -0.2539  1.8279  0.4166
 7252WAT     H229715   1.634   1.246   2.941 -0.6075  0.8981 -0.6061
 7252WAT    EPW29716   1.578   1.267   2.991  0.4323 -0.2696  0.3449
 7253WAT      O29717   1.999   1.079   7.322  0.1022 -0.1359  0.0751
 7253WAT     H129718   2.062   1.034   7.283 -1.2471 -1.9154 -0.2014
 7253WAT     H229719   2.023   1.162   7.312  1.9626 -0.7238 -0.6945
 7253WAT    EPW29720   2.012   1.084   7.315 -0.4727  0.3157 -0.6872
 7254WAT      O29721   5.344   4.597   7.529 -0.2828 -0.1784 -0.0821
 7254WAT     H129722   5.372   4.515   7.529 -0.2381 -0.1806  1.1652
 7254WAT     H229723   5.260   4.591   7.551  0.2632  0.2154  2.4610
 7254WAT    EPW29724   5.336   4.584   7.532  0.2865 -0.2265 -0.0066
 7255WAT      O29725   6.551   5.196   2.743  0.1165 -0.2114  0.3836
 7255WAT     H129726   6.465   5.210   2.743  0.0032 -0.8509  1.2187
 7255WAT     H229727   6.585   5.275   2.756 -0.2289  0.4659 -2.1991
 7255WAT    EPW29728   6.544   5.210   2.745  0.0033  0.6126 -0.1224
 7256WAT      O29729   7.799   2.694   2.920 -0.3120 -0.0784 -0.4204
 7256WAT     H129730   7.815   2.762   2.973  1.0378 -0.5210 -0.2105
 7256WAT     H229731   7.830   2.721   2.843  0.1668 -0.4253 -0.3511
 7256WAT    EPW29732   7.806   2.708   2.917 -0.1659 -0.5650 -0.1047
 7257WAT      O29733   5.458   2.632   1.315 -0.0716 -0.1887  0.2535
 7257WAT     H129734   5.382   2.674   1.304  1.1002  1.8045 -0.7986
 7257WAT     H229735   5.434   2.551   1.336 -2.4846  0.6492  1.0995
 7257WAT    EPW29736   5.443   2.626   1.317  0.1689 -0.0302 -0.1147
 7258WAT      O29737   6.138   1.250   1.967 -0.2335  0.0075 -0.0976
 7258WAT     H129738   6.054   1.231   1.980 -0.0979  0.2919  1.3052
 7258WAT     H229739   6.174   1.241   2.045  1.5325 -2.2732 -1.0578
 7258WAT    EPW29740   6.131   1.246   1.980 -0.0689 -0.3551  0.1336
 7259WAT      O29741   1.367   5.449   2.681  0.0995  0.7543  0.6021
 7259WAT     H129742   1.354   5.371   2.645  2.8577  1.0140 -1.3252
 7259WAT     H229743   1.337   5.504   2.620 -2.4123  1.2953  2.2131
 7259WAT    EPW29744   1.361   5.446   2.666 -0.4929  0.5746 -0.5287
 7260WAT      O29745   0.401   4.731   2.234 -0.2081  0.3543 -0.3231
 7260WAT     H129746   0.451   4.779   2.181  0.1842  0.3363  0.0222
 7260WAT     H229747   0.333   4.783   2.251  0.4919  1.0358  0.5089
 7260WAT    EPW29748   0.399   4.746   2.229  0.9117  0.3564 -0.1919
 7261WAT      O29749   4.120   3.953   6.620  0.0447  0.0160 -0.2102
 7261WAT     H129750   4.076   3.881   6.643 -0.0857  0.6069  1.6304
 7261WAT     H229751   4.191   3.951   6.671  0.4030  0.8130 -0.6520
 7261WAT    EPW29752   4.124   3.942   6.631 -0.1597 -0.0102 -0.2578
 7262WAT      O29753   6.131   7.883   3.399  0.2756  0.3057  0.4627
 7262WAT     H129754   6.087   7.944   3.443  0.5144 -0.2049  1.4406
 7262WAT     H229755   6.111   7.899   3.316  1.2278  2.4367  0.5829
 7262WAT    EPW29756   6.121   7.894   3.393 -0.1507 -0.6141 -0.2500
 7263WAT      O29757   2.481   4.649   7.359  0.0716 -0.6120  0.0085
 7263WAT     H129758   2.422   4.620   7.417 -1.5287  2.7079  0.2548
 7263WAT     H229759   2.438   4.646   7.283 -0.9976  2.6608  0.3077
 7263WAT    EPW29760   2.466   4.644   7.357  0.7899  0.6162 -0.0649
 7264WAT      O29761   2.356   2.611   1.106 -0.2285 -0.0734 -0.3465
 7264WAT     H129762   2.278   2.579   1.084 -0.7195  0.6641  0.2601
 7264WAT     H229763   2.406   2.540   1.115 -0.6990 -0.5306 -1.2074
 7264WAT    EPW29764   2.352   2.596   1.104  0.9735  0.0037  0.0821
 7265WAT      O29765   6.314   5.006   5.760  0.0507  0.1538  0.5386
 7265WAT     H129766   6.348   5.001   5.680 -0.7991  1.5760  0.0444
 7265WAT     H229767   6.339   5.084   5.788 -0.6829  0.1746  1.1658
 7265WAT    EPW29768   6.323   5.017   5.752 -0.3288  0.0986 -0.1039
 7266WAT      O29769   5.336   1.530   7.256  0.2663 -0.1784 -0.3477
 7266WAT     H129770   5.414   1.499   7.231  0.3813 -0.3571  0.2309
 7266WAT     H229771   5.318   1.486   7.328 -0.6532 -0.5664 -0.8005
 7266WAT    EPW29772   5.345   1.519   7.263  0.7592  0.2694  0.3382
 7267WAT      O29773   4.837   4.722   2.219  0.4454 -0.4551 -0.3251
 7267WAT     H129774   4.760   4.732   2.258 -0.2697  0.8248 -1.9339
 7267WAT     H229775   4.890   4.697   2.284 -1.4105 -1.9741  0.7114
 7267WAT    EPW29776   4.834   4.720   2.234  0.4026  0.4750 -0.0516
 7268WAT      O29777   3.905   4.693   6.627 -0.9942  0.1668  0.6244
 7268WAT     H129778   3.865   4.699   6.549 -1.3545 -0.4036  0.7550
 7268WAT     H229779   3.984   4.726   6.612  0.0724 -2.6747 -0.7972
 7268WAT    EPW29780   3.911   4.699   6.613  0.3491  0.5889 -0.2228
 7269WAT      O29781   3.441   4.719   5.607  0.4538  0.2022  0.1936
 7269WAT     H129782   3.435   4.655   5.548 -3.5610  2.3275 -2.1613
 7269WAT     H229783   3.469   4.787   5.561 -1.8678  1.6932  0.8399
 7269WAT    EPW29784   3.444   4.719   5.591 -0.1703  0.0194  0.2409
 7270WAT      O29785   4.182   3.748   1.008  0.3253 -0.1623 -0.0574
 7270WAT     H129786   4.095   3.749   1.008  0.2762  0.0518 -2.3255
 7270WAT     H229787   4.202   3.708   1.083 -1.7744 -2.8941 -0.7964
 7270WAT    EPW29788   4.172   3.742   1.019 -0.0514  0.0557  0.5195
 7271WAT      O29789   4.618   5.930   2.595 -0.3011 -0.8736 -0.1076
 7271WAT     H129790   4.624   6.000   2.544  0.4492  0.4360  1.6883
 7271WAT     H229791   4.551   5.885   2.560 -0.3730  0.3782 -1.6892
 7271WAT    EPW29792   4.609   5.934   2.582 -0.3097  0.3621 -0.3217
 7272WAT      O29793   2.099   3.627   2.134  0.3468  0.4889  0.1675
 7272WAT     H129794   2.140   3.635   2.211 -0.5202  0.0223  0.6934
 7272WAT     H229795   2.089   3.541   2.125  1.0814  0.4833 -0.8337
 7272WAT    EPW29796   2.104   3.616   2.144  0.3061 -0.1077 -0.6159
 7273WAT      O29797   3.187   5.692   5.289  0.5326  0.1400 -0.5538
 7273WAT     H129798   3.195   5.639   5.220  0.5139 -0.4251 -0.1270
 7273WAT     H229799   3.199   5.639   5.357 -1.5690  0.2491 -0.0227
 7273WAT    EPW29800   3.190   5.676   5.289 -0.4949  0.1520  0.4356
 7274WAT      O29801   4.598   2.184   6.449  0.7156  0.5056  0.2098
 7274WAT     H129802   4.556   2.110   6.467  2.1563 -0.5725 -0.6724
 7274WAT     H229803   4.563   2.209   6.373  0.3107  0.6789  0.4501
 7274WAT    EPW29804   4.587   2.177   6.440  0.1951  0.4467  0.1374
 7275WAT      O29805   4.040   1.052   7.612 -1.0894  0.2477 -0.0015
 7275WAT     H129806   3.959   1.020   7.615 -0.5037 -1.3814 -0.6046
 7275WAT     H229807   4.080   1.000   7.555  0.5122  0.7383  0.6446
 7275WAT    EPW29808   4.034   1.039   7.604 -0.3317 -0.1294 -0.1342
 7276WAT      O29809   5.600   2.300   1.444  0.4207 -0.6779  0.1712
 7276WAT     H129810   5.575   2.281   1.363  0.2216  0.1097  0.0381
 7276WAT     H229811   5.580   2.228   1.489  1.9995 -1.7468 -0.7535
 7276WAT    EPW29812   5.593   2.287   1.439 -0.1586  0.6353  0.1315
 7277WAT      O29813   4.559   7.951   4.590  0.2393 -0.0785  0.4409
 7277WAT     H129814   4.536   7.882   4.542 -1.5736  0.5513  0.3243
 7277WAT     H229815   4.617   7.992   4.540 -0.3160 -0.3581 -0.4540
 7277WAT    EPW29816   4.565   7.947   4.575 -0.5076  0.5538 -0.2766
 7278WAT      O29817   3.508   3.256   2.669  0.1115  0.0824 -0.3295
 7278WAT     H129818   3.558   3.243   2.739  0.8569  0.9595 -0.6766
 7278WAT     H229819   3.516   3.342   2.655 -2.4949  0.5293  0.3522
 7278WAT    EPW29820   3.517   3.267   2.678  0.2165  0.1695 -0.5764
 7279WAT      O29821   5.196   1.922   1.164  0.3536 -0.3176 -0.6274
 7279WAT     H129822   5.235   1.999   1.176  1.5305 -0.4237 -3.0759
 7279WAT     H229823   5.112   1.942   1.153  0.4935  0.4918 -0.2578
 7279WAT    EPW29824   5.189   1.936   1.164 -0.1323 -0.1546 -0.2402
 7280WAT      O29825   5.344   1.771   7.370 -0.7602 -0.3774  0.5697
 7280WAT     H129826   5.371   1.693   7.343  0.6250 -0.6102  2.4183
 7280WAT     H229827   5.268   1.755   7.408 -0.1257 -0.9883  1.6125
 7280WAT    EPW29828   5.337   1.757   7.372 -0.7257 -0.0705 -0.3004
 7281WAT      O29829   7.250   3.375   0.830 -0.3318 -0.0800 -0.0382
 7281WAT     H129830   7.175   3.339   0.805  0.1522  0.4257 -2.4994
 7281WAT     H229831   7.310   3.322   0.795  0.6495 -1.8323  3.8106
 7281WAT    EPW29832   7.248   3.362   0.821 -0.1011  0.4417  0.1432
 7282WAT      O29833   1.765   6.602   3.272 -0.5682  0.2807  0.3151
 7282WAT     H129834   1.755   6.636   3.352 -1.3720 -0.0805  0.3769
 7282WAT     H229835   1.689   6.563   3.257 -0.0152 -0.6571 -0.1550
 7282WAT    EPW29836   1.753   6.601   3.282  0.7024 -0.2943  0.6885
 7283WAT      O29837   1.635   0.560   1.259  0.4955 -0.4109  0.8694
 7283WAT     H129838   1.686   0.490   1.265  0.1224 -0.9584 -1.4526
 7283WAT     H229839   1.563   0.537   1.303  0.4685 -1.4143  0.3290
 7283WAT    EPW29840   1.632   0.546   1.266 -0.1527 -0.7247 -0.3138
 7284WAT      O29841   4.347   5.021   7.072 -0.0658  0.0064 -0.5116
 7284WAT     H129842   4.379   5.102   7.067 -0.5263  0.3372  1.0893
 7284WAT     H229843   4.286   5.019   7.010 -0.7165  1.2454  0.0394
 7284WAT    EPW29844   4.343   5.033   7.062  0.0908  0.1581  0.1536
 7285WAT      O29845   0.601   2.099   2.897 -0.0094  0.0224  0.7305
 7285WAT     H129846   0.525   2.098   2.854  0.1383 -2.4546  0.3860
 7285WAT     H229847   0.638   2.173   2.872 -1.2875  0.1491 -0.9471
 7285WAT    EPW29848   0.595   2.110   2.887 -0.1470  0.6676  0.3004
 7286WAT      O29849   8.062   2.195   2.653  0.1374  0.0603  0.7457
 7286WAT     H129850   8.040   2.122   2.694 -3.3639  0.4517 -0.0818
 7286WAT     H229851   8.129   2.171   2.602 -0.9212 -2.6010  0.4594
 7286WAT    EPW29852   8.069   2.181   2.651  0.3940 -0.2063 -0.4402
 7287WAT      O29853   1.299   0.546   4.234  0.6272  0.0320  0.1792
 7287WAT     H129854   1.364   0.595   4.266 -0.7653  1.9707  0.1596
 7287WAT     H229855   1.232   0.564   4.287  0.1514 -2.2256  0.4239
 7287WAT    EPW29856   1.299   0.556   4.247 -0.1201 -0.1458 -0.1517
 7288WAT      O29857   6.111   1.163   7.425  0.0192  0.2426  0.5987
 7288WAT     H129858   6.144   1.103   7.479  1.9811 -0.2426 -0.9949
 7288WAT     H229859   6.136   1.239   7.460 -1.0629  0.1030  1.7476
 7288WAT    EPW29860   6.119   1.165   7.438  0.0317  0.2184 -0.0406
 7289WAT      O29861   2.071   3.118   1.103  0.8729 -0.4971 -0.1663
 7289WAT     H129862   1.986   3.126   1.121  0.4389 -0.5669 -1.9251
 7289WAT     H229863   2.109   3.181   1.150 -0.0789 -0.7873  1.0353
 7289WAT    EPW29864   2.064   3.128   1.113 -0.2793  0.1329  0.3076
 7290WAT      O29865   6.008   5.948   2.220 -0.3765 -0.3646  0.1253
 7290WAT     H129866   6.037   6.015   2.268 -0.1059  0.3717 -1.0360
 7290WAT     H229867   5.958   5.986   2.160 -2.4991 -1.4575  1.0676
 7290WAT    EPW29868   6.005   5.963   2.218  0.2109  0.1651  0.9073
 7291WAT      O29869   4.913   3.988   1.573 -0.2560 -0.9331 -0.2952
 7291WAT     H129870   4.955   3.921   1.611  1.1733 -0.8277 -1.5669
 7291WAT     H229871   4.937   3.981   1.489 -2.0682 -0.2637 -0.9057
 7291WAT    EPW29872   4.923   3.977   1.566 -0.6098  0.1147  0.0224
 7292WAT      O29873   6.449   4.976   0.103 -0.4031 -0.2067  0.0258
 7292WAT     H129874   6.455   4.934   0.027  0.4974 -0.9940  0.5099
 7292WAT     H229875   6.459   5.060   0.081  0.8312 -0.4999 -0.6249
 7292WAT    EPW29876   6.451   4.982   0.088  0.4485 -0.0005  0.0255
 7293WAT      O29877   5.568   1.919   0.692  0.3478 -0.5908  0.6046
 7293WAT     H129878   5.504   1.935   0.634 -0.3715  0.9893  1.7561
 7293WAT     H229879   5.615   1.993   0.690  1.3162 -1.1882  0.8104
 7293WAT    EPW29880   5.565   1.933   0.683 -0.0177  0.3756  0.3238
 7294WAT      O29881   2.902   6.073   0.960  0.1011  0.1463 -0.2520
 7294WAT     H129882   2.904   6.132   0.896 -1.4760  1.9698  1.2686
 7294WAT     H229883   2.954   6.106   1.021 -2.0652  0.9012  1.2944
 7294WAT    EPW29884   2.910   6.086   0.959 -0.1803  0.1307 -0.4862
 7295WAT      O29885   2.013   3.057   1.855 -0.4976 -0.3036 -0.0197
 7295WAT     H129886   1.940   3.101   1.836  0.6068  1.8520  0.3535
 7295WAT     H229887   2.022   3.067   1.941  0.0904 -0.7540 -0.0208
 7295WAT    EPW29888   2.004   3.065   1.865 -0.7351 -0.2437 -0.2190
 7296WAT      O29889   4.920   4.245   1.390  0.5833  0.1216 -0.2937
 7296WAT     H129890   4.877   4.183   1.435 -0.8876  1.8271  0.7877
 7296WAT     H229891   4.944   4.204   1.317 -1.6533 -1.3462 -0.3126
 7296WAT    EPW29892   4.917   4.230   1.386  0.2353 -0.3787 -0.3764
 7297WAT      O29893   4.140   3.931   2.641  0.4308  0.3429  0.2185
 7297WAT     H129894   4.115   3.895   2.565 -0.2133  1.1427  0.0408
 7297WAT     H229895   4.226   3.922   2.640  0.2634 -2.3382  0.7625
 7297WAT    EPW29896   4.149   3.924   2.630  0.1262  0.2088 -0.9434
 7298WAT      O29897   1.735   4.927   1.547 -0.8692  0.3036 -0.1911
 7298WAT     H129898   1.695   4.880   1.485 -0.0271 -1.4845  0.5466
 7298WAT     H229899   1.683   4.918   1.616 -0.8198  0.6546 -0.1085
 7298WAT    EPW29900   1.722   4.918   1.548  0.1709 -0.0686 -0.2287
 7299WAT      O29901   3.775   2.921   0.564 -0.2639 -0.4113  0.4839
 7299WAT     H129902   3.729   2.851   0.589 -1.1685  0.2933  0.8671
 7299WAT     H229903   3.723   2.960   0.507 -0.7081  1.0399  1.8027
 7299WAT    EPW29904   3.761   2.916   0.560  0.0743 -0.3416  0.0330
 7300WAT      O29905   5.763   3.373   3.021  0.1401 -0.6262 -0.3447
 7300WAT     H129906   5.700   3.352   2.964  0.0378 -1.1674 -0.0376
 7300WAT     H229907   5.753   3.315   3.085 -0.9840  1.1592  1.1733
 7300WAT    EPW29908   5.752   3.361   3.022  0.5159  0.0731  0.1549
 7301WAT      O29909   2.639   7.102   6.320 -0.1355  0.3004  0.3700
 7301WAT     H129910   2.695   7.047   6.283 -1.9303 -1.9520  0.7703
 7301WAT     H229911   2.615   7.155   6.255  0.6624 -0.2237 -0.3635
 7301WAT    EPW29912   2.644   7.102   6.305 -0.0026 -0.5444 -0.9463
 7302WAT      O29913   2.796   6.025   1.678 -0.0286  0.6600  0.5532
 7302WAT     H129914   2.869   6.025   1.726 -1.4846 -1.8299  3.0825
 7302WAT     H229915   2.802   5.950   1.633 -0.0173  1.5924 -1.0724
 7302WAT    EPW29916   2.808   6.014   1.678  0.3444 -0.1444  0.0265
 7303WAT      O29917   2.350   2.652   6.918 -0.0960 -0.3087 -0.2212
 7303WAT     H129918   2.288   2.683   6.972  1.1549 -0.2527  1.2467
 7303WAT     H229919   2.368   2.573   6.951  0.9598 -0.1177 -0.3179
 7303WAT    EPW29920   2.343   2.645   6.931  0.3589  0.2655 -0.3479
 7304WAT      O29921   5.504   4.890   7.991 -0.2009  0.3325  0.3780
 7304WAT     H129922   5.467   4.822   7.950 -0.9242  0.8536  0.1546
 7304WAT     H229923   5.470   4.960   7.950  1.2001  0.8272  0.0163
 7304WAT    EPW29924   5.493   4.890   7.979  0.3914  0.6415  0.4465
 7305WAT      O29925   5.216   5.186   0.246  0.2592 -0.6832  0.1449
 7305WAT     H129926   5.195   5.257   0.293 -1.1264 -0.7225 -0.3746
 7305WAT     H229927   5.285   5.212   0.200 -0.0319  0.2352  0.1977
 7305WAT    EPW29928   5.223   5.200   0.246  0.1107  0.3465 -0.1285
 7306WAT      O29929   6.754   6.080   2.299 -0.0127 -0.0665  0.0603
 7306WAT     H129930   6.675   6.099   2.265  0.0025 -0.0102  0.0580
 7306WAT     H229931   6.736   6.017   2.357 -0.0258 -0.2376 -0.1266
 7306WAT    EPW29932   6.739   6.073   2.302 -1.0214  0.4773 -0.1757
 7307WAT      O29933   0.427   2.703   2.589  0.0150 -0.1668 -0.8997
 7307WAT     H129934   0.491   2.733   2.538 -1.0408  0.1705 -2.0594
 7307WAT     H229935   0.378   2.773   2.604  0.7717 -0.0269  1.4016
 7307WAT    EPW29936   0.429   2.718   2.584  0.3325  0.9767 -0.4369
 7308WAT      O29937   3.829   4.327   1.578 -0.3384 -0.4586  0.0136
 7308WAT     H129938   3.861   4.259   1.623  0.5351 -0.5384 -0.7188
 7308WAT     H229939   3.767   4.359   1.631  0.3881 -0.7980  1.0889
 7308WAT    EPW29940   3.824   4.322   1.593  0.0559 -0.1244 -0.3397
 7309WAT      O29941   2.182   2.817   5.653  0.5028  0.3099  0.1181
 7309WAT     H129942   2.142   2.777   5.720  0.7967  1.0957  0.7781
 7309WAT     H229943   2.264   2.827   5.681  0.8843 -0.2101 -0.7508
 7309WAT    EPW29944   2.188   2.812   5.667  0.1929  0.1607 -0.0844
 7310WAT      O29945   6.049   3.877   1.196 -0.0822  0.1412  0.2241
 7310WAT     H129946   6.093   3.841   1.262 -0.7479  1.0571  1.2045
 7310WAT     H229947   6.108   3.925   1.155  0.3003 -0.3051  0.2425
 7310WAT    EPW29948   6.064   3.878   1.199 -0.0787  0.4013  0.2025
 7311WAT      O29949   5.010   3.237   5.195 -0.1754 -0.8534  0.4370
 7311WAT     H129950   5.003   3.323   5.210 -0.0361 -0.9570  1.1499
 7311WAT     H229951   4.984   3.201   5.270 -2.1483 -1.5022 -0.5072
 7311WAT    EPW29952   5.005   3.244   5.208 -0.2761  0.3946  0.1614
 7312WAT      O29953   3.296   3.817   0.807  0.1012  0.5342 -0.4533
 7312WAT     H129954   3.303   3.751   0.751  0.5778  0.9093 -0.8436
 7312WAT     H229955   3.212   3.813   0.833  0.7800 -1.8994  1.6571
 7312WAT    EPW29956   3.284   3.807   0.802  1.0467 -0.2614  0.0184
 7313WAT      O29957   3.062   4.254   6.202 -0.1350  0.5272 -0.2106
 7313WAT     H129958   3.144   4.230   6.217 -0.1752  1.5810  2.1180
 7313WAT     H229959   3.016   4.215   6.265 -1.8637 -1.7171 -2.6114
 7313WAT    EPW29960   3.067   4.245   6.213  0.0971 -0.2977  0.0710
 7314WAT      O29961   7.074   4.411   2.169  0.6717  0.1970 -0.3090
 7314WAT     H129962   6.989   4.392   2.174  0.7247  0.2133  0.9854
 7314WAT     H229963   7.074   4.494   2.141  0.3696 -0.6007 -2.9407
 7314WAT    EPW29964   7.061   4.420   2.165 -0.1091  0.0713  0.2336
 7315WAT      O29965   3.985   3.706   6.655 -0.3148  0.0605 -0.2712
 7315WAT     H129966   4.009   3.631   6.617  1.6780 -0.3803  1.6447
 7315WAT     H229967   3.986   3.687   6.740 -1.5236  1.8202  0.1928
 7315WAT    EPW29968   3.989   3.692   6.662  0.0831  0.9577 -0.0353
 7316WAT      O29969   0.592   5.462   0.368  0.4221  0.1422 -0.2036
 7316WAT     H129970   0.663   5.513   0.360 -0.4252  1.1350 -1.9731
 7316WAT     H229971   0.528   5.518   0.388  0.2839 -0.9219  2.9299
 7316WAT    EPW29972   0.593   5.478   0.370 -0.0039 -0.1978  0.0097
 7317WAT      O29973   4.487   4.858   2.097 -0.6540 -0.4487 -0.3724
 7317WAT     H129974   4.542   4.806   2.055  0.4496 -1.0392  1.6649
 7317WAT     H229975   4.525   4.937   2.093  0.1792 -0.7785  0.6884
 7317WAT    EPW29976   4.501   4.862   2.090  0.1181 -0.8313  0.4649
 7318WAT      O29977   7.759   3.437   1.955  0.1884 -0.2699 -0.1008
 7318WAT     H129978   7.801   3.505   1.920 -0.3371 -0.6503 -1.5406
 7318WAT     H229979   7.735   3.466   2.033  2.7523  0.1176  0.6568
 7318WAT    EPW29980   7.762   3.451   1.961 -0.0192 -0.5532  0.4952
 7319WAT      O29981   5.572   3.594   0.557 -0.2341  0.0166  0.0944
 7319WAT     H129982   5.582   3.524   0.506 -1.6130 -0.2233  0.1104
 7319WAT     H229983   5.653   3.623   0.568  0.7734 -3.0736  2.1989
 7319WAT    EPW29984   5.585   3.588   0.551  0.3063  0.2427  0.5380
 7320WAT      O29985   6.664   5.776   0.952 -0.4050 -0.1897  0.5179
 7320WAT     H129986   6.733   5.740   0.992 -0.5078  0.4151  1.2674
 7320WAT     H229987   6.656   5.853   0.991 -0.3141  0.5763 -0.9191
 7320WAT    EPW29988   6.673   5.782   0.964 -0.1757  0.1084 -0.6622
 7321WAT      O29989   0.902   7.951   1.800  0.0959  0.0567 -0.0486
 7321WAT     H129990   0.915   8.023   1.752  0.7090 -0.3218 -0.4663
 7321WAT     H229991   0.979   7.911   1.798 -0.6812 -1.4567 -1.2088
 7321WAT    EPW29992   0.915   7.956   1.793  0.8354  0.0396 -0.7901
 7322WAT      O29993   2.364   7.538   0.284  0.6355  0.1369 -0.5112
 7322WAT     H129994   2.398   7.486   0.345  0.3936 -1.6332 -1.8039
 7322WAT     H229995   2.433   7.562   0.236  0.8425  1.6243  0.4824
 7322WAT    EPW29996   2.379   7.534   0.286  0.3167 -0.3669  0.1604
 7323WAT      O29997   1.876   2.026   4.790  0.2639  0.7569  0.2882
 7323WAT     H129998   1.915   2.023   4.712  1.0143 -0.2569  0.6741
 7323WAT     H229999   1.836   1.949   4.795 -0.0683  0.9578  0.7625
 7323WAT    EPW30000   1.876   2.014   4.779 -0.3505  0.1674 -0.1677
 7324WAT      O30001   3.699   1.544   0.795  0.1024 -0.1169  0.2186
 7324WAT     H130002   3.750   1.523   0.726 -1.7442  1.0851 -1.6194
 7324WAT     H230003   3.705   1.631   0.799 -1.7080  0.0464 -0.0156
 7324WAT    EPW30004   3.708   1.554   0.785 -0.9176  0.0046 -0.5165
 7325WAT      O30005   0.141   5.131   1.814 -0.0385  0.6123  0.5517
 7325WAT     H130006   0.179   5.136   1.892 -1.6715  0.8810  1.3708
 7325WAT     H230007   0.208   5.131   1.758  1.1255  3.6218  1.7565
 7325WAT    EPW30008   0.156   5.131   1.817  0.9268 -0.2726  0.2440
 7326WAT      O30009   0.545   6.697   1.574  0.7050  0.0559 -0.3062
 7326WAT     H130010   0.494   6.718   1.506 -0.3396 -1.9152 -0.1970
 7326WAT     H230011   0.609   6.650   1.538 -1.2873 -3.3741  0.2093
 7326WAT    EPW30012   0.547   6.693   1.559  0.5792  0.2194  0.5572
 7327WAT      O30013   3.728   3.683   7.088 -0.5116 -0.2709  0.6464
 7327WAT     H130014   3.705   3.652   7.009  0.7755  0.5577 -0.0738
 7327WAT     H230015   3.783   3.623   7.118 -0.0849 -0.0181  0.3884
 7327WAT    EPW30016   3.732   3.669   7.080  0.3003 -0.4080 -0.1427
 7328WAT      O30017   2.590   5.554   1.991 -0.2456 -0.2407  0.4539
 7328WAT     H130018   2.554   5.498   2.048 -1.3665 -0.1285 -0.1225
 7328WAT     H230019   2.618   5.619   2.042 -1.8599  0.1890  0.8553
 7328WAT    EPW30020   2.589   5.555   2.007  0.0912 -0.5084 -0.6264
 7329WAT      O30021   7.231   3.448   1.637  0.5952 -0.5657  0.5233
 7329WAT     H130022   7.161   3.401   1.615  0.5558 -0.2117 -0.1429
 7329WAT     H230023   7.270   3.464   1.561 -0.1677  1.6572  0.4987
 7329WAT    EPW30024   7.226   3.444   1.623 -0.0797 -0.4777  0.3649
 7330WAT      O30025   1.409   3.320   0.029  0.3515 -0.3003  0.5477
 7330WAT     H130026   1.426   3.307   0.113  0.7564 -0.8537  0.3908
 7330WAT     H230027   1.443   3.249  -0.010 -0.8617 -0.6254  0.0377
 7330WAT    EPW30028   1.416   3.307   0.036 -0.2983 -0.0164  0.6253
 7331WAT      O30029   6.569   3.649   2.816 -0.0586  0.4316 -0.7531
 7331WAT     H130030   6.557   3.735   2.824 -0.0431  0.3683  0.0307
 7331WAT     H230031   6.548   3.633   2.733  1.2035  1.4024 -1.2971
 7331WAT    EPW30032   6.564   3.659   2.805 -0.3150  0.0425 -0.1930
 7332WAT      O30033   2.316   1.244   4.775 -0.1778  0.2693 -0.1228
 7332WAT     H130034   2.304   1.280   4.854 -0.0699  0.0425 -0.0032
 7332WAT     H230035   2.382   1.188   4.788 -0.4159 -0.0474 -0.2874
 7332WAT    EPW30036   2.324   1.241   4.789 -0.1293  0.2133 -0.6267
 7333WAT      O30037   1.318   5.098   1.901  0.1622  0.2064  0.0821
 7333WAT     H130038   1.268   5.075   1.833  1.3692 -0.4488 -0.6107
 7333WAT     H230039   1.275   5.066   1.970 -0.0527 -0.9017 -0.5451
 7333WAT    EPW30040   1.304   5.090   1.901  0.0431 -0.3946  0.2796
 7334WAT      O30041   1.332   0.517   2.442  0.2201 -0.0177 -0.0572
 7334WAT     H130042   1.392   0.573   2.471  0.1582 -0.4468  0.9267
 7334WAT     H230043   1.257   0.559   2.455  0.2572  0.2605 -0.6986
 7334WAT    EPW30044   1.330   0.532   2.448  0.2575  0.4457  0.5289
 7335WAT      O30045   4.751   4.975   7.047 -0.3413 -0.5061  0.1114
 7335WAT     H130046   4.741   4.999   6.964 -1.4884  1.2928  0.6959
 7335WAT     H230047   4.822   4.925   7.046  0.1871  0.1889 -1.8137
 7335WAT    EPW30048   4.760   4.971   7.035  0.1992  0.7792  0.7756
 7336WAT      O30049   2.105   7.064   5.798  0.2341 -0.3494 -0.2339
 7336WAT     H130050   2.072   7.093   5.722 -1.0397 -2.6825 -0.6758
 7336WAT     H230051   2.171   7.013   5.773  1.0432  0.3613  0.3925
 7336WAT    EPW30052   2.110   7.061   5.783 -0.3625 -0.5612 -0.2637
 7337WAT      O30053   4.206   3.578   5.650 -0.1895 -0.3417  0.1126
 7337WAT     H130054   4.175   3.650   5.688 -0.1142 -0.0582 -0.3603
 7337WAT     H230055   4.207   3.597   5.565  0.4959 -0.6396  0.0442
 7337WAT    EPW30056   4.202   3.591   5.643 -0.2325 -0.0222  0.1755
 7338WAT      O30057   3.378   3.915   7.320 -0.4512  0.4406 -0.7989
 7338WAT     H130058   3.307   3.866   7.307  0.0070 -0.0384 -1.5420
 7338WAT     H230059   3.383   3.922   7.407 -2.2519  1.7366 -0.7356
 7338WAT    EPW30060   3.368   3.909   7.331  0.1260 -0.1729 -0.1128
 7339WAT      O30061   3.487   6.913   0.304 -0.7551 -0.2071 -0.7836
 7339WAT     H130062   3.524   6.992   0.296 -1.6345  0.0134 -4.4603
 7339WAT     H230063   3.402   6.930   0.290 -1.2519 -1.5814  0.4104
 7339WAT    EPW30064   3.480   6.927   0.301  0.0710 -0.1082  0.1921
 7340WAT      O30065   4.271   4.535   5.670 -0.6666  0.6261 -0.1107
 7340WAT     H130066   4.269   4.454   5.639 -1.3926 -0.0699  1.6178
 7340WAT     H230067   4.192   4.566   5.652 -0.9122  0.3995  0.5444
 7340WAT    EPW30068   4.259   4.528   5.663 -0.0270 -0.3807 -0.5719
 7341WAT      O30069   4.458   4.741   6.844 -0.1035 -0.0136 -0.0098
 7341WAT     H130070   4.438   4.657   6.857 -0.2685  0.1724  1.0271
 7341WAT     H230071   4.483   4.769   6.923 -2.7269  1.6499  0.3480
 7341WAT    EPW30072   4.459   4.733   6.858  0.5679 -0.2337 -0.4534
 7342WAT      O30073   3.492   4.194   2.399 -0.2971  0.0412 -0.3699
 7342WAT     H130074   3.499   4.216   2.315 -1.1379  0.4930 -0.3307
 7342WAT     H230075   3.417   4.150   2.403  0.2174 -0.8247 -0.0157
 7342WAT    EPW30076   3.482   4.191   2.387 -0.0321 -0.0845  0.2137
 7343WAT      O30077   1.949   3.538   7.634  0.2757  0.1460 -0.6985
 7343WAT     H130078   1.906   3.464   7.651 -0.1412  0.7467  1.1398
 7343WAT     H230079   1.894   3.600   7.660  0.4350  1.1602 -2.6264
 7343WAT    EPW30080   1.935   3.536   7.640  0.3976 -0.1652  0.2521
 7344WAT      O30081   4.323   3.584   1.223  0.8292  0.0294  0.4760
 7344WAT     H130082   4.338   3.625   1.299 -0.2271  0.1776  0.6264
 7344WAT     H230083   4.386   3.613   1.171 -0.7125  3.1700  0.0933
 7344WAT    EPW30084   4.334   3.594   1.227 -0.0449  0.3978 -0.1781
 7345WAT      O30085   2.936   2.265   1.682 -0.4932  0.0806 -0.2703
 7345WAT     H130086   2.977   2.201   1.640 -0.2345  0.3373 -0.4100
 7345WAT     H230087   2.955   2.250   1.766 -0.3742  0.0208 -0.3085
 7345WAT    EPW30088   2.945   2.253   1.688 -1.1575 -0.4572  0.2121
 7346WAT      O30089   4.615   5.799   0.467 -0.1835 -0.3631  0.1346
 7346WAT     H130090   4.624   5.873   0.421  0.0617 -0.9826 -0.8359
 7346WAT     H230091   4.696   5.769   0.473 -0.1272  0.0061  1.5119
 7346WAT    EPW30092   4.628   5.806   0.461  0.4006 -0.1378  0.5382
 7347WAT      O30093   3.795   1.286   0.089  0.0916 -0.0190 -0.0984
 7347WAT     H130094   3.858   1.294   0.148 -0.0882  1.4813 -0.0933
 7347WAT     H230095   3.835   1.305   0.014 -0.0196 -0.5494 -0.3026
 7347WAT    EPW30096   3.810   1.290   0.086 -0.1939 -0.2012 -0.3988
 7348WAT      O30097   3.234   3.260   1.686 -0.5155  0.0139 -0.2450
 7348WAT     H130098   3.226   3.174   1.680 -0.5982  0.0719 -1.1389
 7348WAT     H230099   3.259   3.273   1.768  1.5374 -1.0237 -0.6370
 7348WAT    EPW30100   3.237   3.249   1.697  0.6855  0.2247 -0.1203
 7349WAT      O30101   1.921   7.902   4.652  0.0204  0.0061  0.6856
 7349WAT     H130102   1.986   7.955   4.678 -1.5416  1.3718  2.0337
 7349WAT     H230103   1.859   7.957   4.625 -0.4687 -1.2750 -0.9386
 7349WAT    EPW30104   1.921   7.918   4.652  0.1419 -0.4393  0.1859
 7350WAT      O30105   4.198   1.880   5.284  0.3999 -0.1718  0.2840
 7350WAT     H130106   4.200   1.951   5.234 -0.9441 -0.9468 -0.9287
 7350WAT     H230107   4.273   1.840   5.266  0.5674  0.2646 -0.0055
 7350WAT    EPW30108   4.210   1.885   5.274 -1.0180 -0.6055 -0.3255
 7351WAT      O30109   5.440   0.919   2.501  0.2068  0.0062  0.2647
 7351WAT     H130110   5.511   0.898   2.547  0.6500  1.7785  0.4395
 7351WAT     H230111   5.441   1.006   2.500 -1.9350  0.0871  0.2307
 7351WAT    EPW30112   5.450   0.929   2.508 -0.4275  0.1507 -0.0972
 7352WAT      O30113   2.009   7.483   0.358  0.8224  0.5449 -0.0581
 7352WAT     H130114   1.998   7.409   0.314  0.0341  0.1930  0.7050
 7352WAT     H230115   2.056   7.533   0.304 -0.0774  0.1123 -1.2689
 7352WAT    EPW30116   2.014   7.480   0.344 -0.1949  0.3814 -0.2947
 7353WAT      O30117   7.966   1.900  -0.006 -0.0229 -0.0225 -0.1266
 7353WAT     H130118   8.015   1.828   0.003 -1.4834 -0.9000  1.1984
 7353WAT     H230119   7.888   1.877   0.025 -1.1892  1.4855 -1.6834
 7353WAT    EPW30120   7.962   1.886  -0.000  0.4264 -0.6166 -0.1592
 7354WAT      O30121   0.126   4.161   1.767 -0.3659 -0.2577  0.3096
 7354WAT     H130122   0.167   4.228   1.805  0.4940 -0.1933 -0.6790
 7354WAT     H230123   0.073   4.199   1.709 -1.0153 -0.3810  0.8220
 7354WAT    EPW30124   0.124   4.176   1.764  0.4042 -0.2484 -0.1972
 7355WAT      O30125   7.366   3.397   2.112 -0.2574  0.1560  0.6344
 7355WAT     H130126   7.356   3.375   2.029 -1.1568 -0.6377  0.9449
 7355WAT     H230127   7.453   3.392   2.124  0.1824  2.4871 -0.8209
 7355WAT    EPW30128   7.377   3.393   2.102 -1.1999  0.4392 -0.2808
 7356WAT      O30129   5.323   3.349   7.079 -0.1487 -0.2207  0.2346
 7356WAT     H130130   5.319   3.337   6.992  0.9103 -0.0724  0.1514
 7356WAT     H230131   5.281   3.424   7.091 -0.5008 -0.3559 -0.1261
 7356WAT    EPW30132   5.316   3.358   7.068  0.6087 -0.5493  0.2575
 7357WAT      O30133   2.822   4.732   3.402 -0.1667  0.5513 -0.4002
 7357WAT     H130134   2.735   4.736   3.392 -0.4014 -0.9700  0.6530
 7357WAT     H230135   2.832   4.728   3.488  0.9111 -0.1407 -0.5479
 7357WAT    EPW30136   2.811   4.732   3.413  0.3008 -0.4057 -0.4214
 7358WAT      O30137   2.910   0.471   7.253  0.0724 -0.2477  0.3851
 7358WAT     H130138   2.908   0.552   7.285 -0.9703  0.3311 -1.0334
 7358WAT     H230139   2.989   0.464   7.218  0.6127 -0.3048  1.5663
 7358WAT    EPW30140   2.921   0.482   7.252  0.1166  0.0178  0.5450
 7359WAT      O30141   2.762   7.805   6.586 -0.0658 -0.2627  0.0238
 7359WAT     H130142   2.837   7.828   6.624 -1.5869 -1.1888  4.1738
 7359WAT     H230143   2.771   7.720   6.573  0.3798  0.0189 -1.8277
 7359WAT    EPW30144   2.774   7.796   6.590 -0.3036 -0.2182  0.1485
 7360WAT      O30145   1.685   2.585   6.013  0.4393  0.0779 -0.7131
 7360WAT     H130146   1.678   2.630   6.087  0.4401  2.9223 -2.3327
 7360WAT     H230147   1.771   2.582   5.999  0.3882  0.6226 -1.1830
 7360WAT    EPW30148   1.697   2.591   6.022  0.5624 -0.2148  0.3451
 7361WAT      O30149   3.090   5.151   0.999 -0.3536  0.0031 -0.0835
 7361WAT     H130150   3.157   5.169   0.947 -0.1976  1.6164  0.6046
 7361WAT     H230151   3.042   5.094   0.953 -0.9779  2.3663 -2.6447
 7361WAT    EPW30152   3.093   5.146   0.985  0.0782 -0.3993 -0.0229
 7362WAT      O30153   4.338   1.626   0.012 -0.7056 -0.1822  0.5195
 7362WAT     H130154   4.252   1.639   0.004 -1.0466 -3.1803 -2.5614
 7362WAT     H230155   4.372   1.704  -0.011 -2.5749  0.4196 -0.4321
 7362WAT    EPW30156   4.330   1.640   0.007  0.2307  0.2393  0.1929
 7363WAT      O30157   3.443   7.304   1.485 -0.0755 -0.1073  0.0211
 7363WAT     H130158   3.382   7.260   1.530 -1.3503 -0.0534 -1.5627
 7363WAT     H230159   3.504   7.322   1.545 -0.2518 -2.6230  1.0939
 7363WAT    EPW30160   3.443   7.300   1.500 -0.3855 -0.3140  0.3922
 7364WAT      O30161   2.318   3.783   6.042 -0.5726 -0.4599 -0.0156
 7364WAT     H130162   2.384   3.738   6.008 -2.3381 -1.9910 -1.5881
 7364WAT     H230163   2.302   3.844   5.982 -0.7440 -0.2100  0.2777
 7364WAT    EPW30164   2.325   3.786   6.028 -0.1299  0.6971 -0.4441
 7365WAT      O30165   6.529   2.236   4.385  0.3255 -0.9217  0.4396
 7365WAT     H130166   6.444   2.251   4.395  0.6409  1.3647  0.2758
 7365WAT     H230167   6.541   2.160   4.426 -2.0404 -2.1314 -0.8761
 7365WAT    EPW30168   6.518   2.227   4.393 -0.1108 -0.3521  0.1782
 7366WAT      O30169   4.995   5.924   6.027 -0.3089  0.2432 -0.5686
 7366WAT     H130170   5.004   5.959   6.107 -0.7635  0.5379 -0.6440
 7366WAT     H230171   4.928   5.968   5.993 -0.4769 -0.2692 -0.9086
 7366WAT    EPW30172   4.987   5.936   6.034  0.0017  0.1285  0.3438
 7367WAT      O30173   2.547   5.106   2.066 -0.2630 -0.0760 -0.5194
 7367WAT     H130174   2.506   5.073   2.135 -0.4336 -0.3336 -0.7429
 7367WAT     H230175   2.483   5.141   2.019 -0.2867 -0.8254 -1.0657
 7367WAT    EPW30176   2.532   5.107   2.069  0.1657  1.0351  0.1029
 7368WAT      O30177   4.964   3.155   0.429  0.0163 -0.0154  0.6172
 7368WAT     H130178   5.049   3.141   0.417  0.2796  0.9787  1.2499
 7368WAT     H230179   4.946   3.111   0.502  0.6205  1.9407  2.0280
 7368WAT    EPW30180   4.974   3.146   0.438 -0.3497 -0.1225  0.1391
 7369WAT      O30181   5.894   6.882  -0.016  0.3757 -0.0250  0.1480
 7369WAT     H130182   5.830   6.906   0.040 -1.3672 -1.3517 -1.1840
 7369WAT     H230183   5.916   6.802   0.011 -0.2034 -0.5157 -0.7798
 7369WAT    EPW30184   5.888   6.874  -0.003 -0.0943  0.6776  0.3331
 7370WAT      O30185   0.494   0.821   1.109 -0.4436  0.3964  0.4028
 7370WAT     H130186   0.537   0.760   1.064 -0.1863 -0.3445  1.6145
 7370WAT     H230187   0.417   0.785   1.124 -0.9516  1.1055 -0.4175
 7370WAT    EPW30188   0.489   0.807   1.105 -0.0613  0.3350  0.5379
 7371WAT      O30189   3.217   7.970   7.497  0.0469 -0.1068  0.1166
 7371WAT     H130190   3.151   8.019   7.467  0.0348 -0.6454 -0.7903
 7371WAT     H230191   3.191   7.947   7.577 -0.7672 -0.1241 -0.1393
 7371WAT    EPW30192   3.203   7.974   7.504  0.3788 -0.1645  0.5284
 7372WAT      O30193   7.647   6.328   4.385 -0.0478 -0.2273  0.7306
 7372WAT     H130194   7.669   6.405   4.422  1.3866 -1.4811  2.6808
 7372WAT     H230195   7.651   6.346   4.299  2.0024  1.4779  1.0729
 7372WAT    EPW30196   7.651   6.342   4.377 -0.3643  0.0187  0.3505
 7373WAT      O30197   0.387   0.275   1.483  0.7382  0.2582 -0.2489
 7373WAT     H130198   0.400   0.304   1.564  0.6699  1.1336 -0.5377
 7373WAT     H230199   0.444   0.210   1.475  1.9851  1.2944 -0.0779
 7373WAT    EPW30200   0.397   0.270   1.494 -0.7313 -0.1287 -0.4554
 7374WAT      O30201   3.482   6.664   5.830 -0.3658  0.0462  0.0694
 7374WAT     H130202   3.438   6.714   5.774 -0.1959 -0.4824 -0.5453
 7374WAT     H230203   3.420   6.625   5.877 -0.5156  1.9148  1.5902
 7374WAT    EPW30204   3.466   6.666   5.829 -0.3900 -0.1685  0.5283
 7375WAT      O30205   4.077   0.306   7.324 -0.0902 -0.2921 -0.1506
 7375WAT     H130206   4.140   0.321   7.383 -0.3670 -1.8172  0.5662
 7375WAT     H230207   4.102   0.354   7.255  1.4270 -0.2351  0.4089
 7375WAT    EPW30208   4.090   0.315   7.323  0.7764 -0.3938  0.2802
 7376WAT      O30209   3.578   3.275   0.820  0.5885 -0.0534  0.0818
 7376WAT     H130210   3.654   3.247   0.788  1.8427  1.1947  1.7569
 7376WAT     H230211   3.590   3.362   0.825  0.3047 -0.0768  3.1840
 7376WAT    EPW30212   3.591   3.284   0.816  0.2733  0.1138  0.1767
 7377WAT      O30213   4.806   0.219   8.073 -0.2289 -0.6936  0.1006
 7377WAT     H130214   4.747   0.188   8.018  2.8489 -4.8230 -1.4070
 7377WAT     H230215   4.873   0.241   8.022  0.9376  0.3441  1.9332
 7377WAT    EPW30216   4.807   0.218   8.058  0.1469 -0.3204  0.3165
 7378WAT      O30217   5.913   5.891   0.379 -0.3186  0.0479  0.7088
 7378WAT     H130218   5.878   5.931   0.448  0.7369  0.4698  1.0212
 7378WAT     H230219   5.998   5.899   0.392 -0.0964  0.0845 -0.6123
 7378WAT    EPW30220   5.920   5.898   0.391  0.0531  0.5372 -0.4690
 7379WAT      O30221   2.478   3.626   6.774 -0.0482 -1.0388 -0.0601
 7379WAT     H130222   2.500   3.689   6.831  0.8231 -0.0008 -1.4755
 7379WAT     H230223   2.526   3.558   6.800  0.7986 -0.3936  0.1142
 7379WAT    EPW30224   2.489   3.625   6.786  0.2552  0.2481 -1.1903
 7380WAT      O30225   1.895   7.442   7.699  0.4916 -0.2769  0.2236
 7380WAT     H130226   1.932   7.514   7.666 -0.3415 -0.0488 -0.2246
 7380WAT     H230227   1.901   7.453   7.785 -0.2187  0.6318  0.1587
 7380WAT    EPW30228   1.901   7.454   7.707 -0.1970 -0.0353  0.9095
 7381WAT      O30229   2.286   1.998   2.855  0.0664  0.8968 -0.5062
 7381WAT     H130230   2.310   1.923   2.893  0.6087  1.0448 -0.5514
 7381WAT     H230231   2.322   2.059   2.906 -0.9807  1.1565 -0.0426
 7381WAT    EPW30232   2.295   1.996   2.868 -0.0295 -0.5491  0.4914
 7382WAT      O30233   3.598   1.804   7.661  0.3071 -0.1956  0.1873
 7382WAT     H130234   3.556   1.737   7.624 -0.3334  1.0439 -1.4605
 7382WAT     H230235   3.671   1.768   7.691 -0.1271 -1.6774 -0.4232
 7382WAT    EPW30236   3.602   1.789   7.660  0.2361  0.2592  0.3668
 7383WAT      O30237   5.695   7.228   0.324  0.9180  0.0028  0.3633
 7383WAT     H130238   5.648   7.289   0.283  0.9840 -1.2398 -1.7449
 7383WAT     H230239   5.642   7.201   0.388 -1.3002 -1.2455 -1.8343
 7383WAT    EPW30240   5.680   7.233   0.327  0.0956  0.4056  0.1983
 7384WAT      O30241   5.282   0.348   1.800  0.2615 -0.4016  0.9332
 7384WAT     H130242   5.325   0.405   1.851  1.2223 -0.3933  0.1472
 7384WAT     H230243   5.274   0.278   1.852 -1.2306  0.5120  2.0251
 7384WAT    EPW30244   5.287   0.346   1.815 -0.2654 -0.3974  0.2469
 7385WAT      O30245   5.486   4.661   4.962 -0.0541  0.1440  0.1859
 7385WAT     H130246   5.445   4.590   4.991  1.1065 -0.5161  0.2286
 7385WAT     H230247   5.544   4.630   4.906  1.4719  0.9096  1.2856
 7385WAT    EPW30248   5.488   4.646   4.958  0.0478  0.5137  0.2931
 7386WAT      O30249   4.722   2.295   6.673  0.3429 -0.6255  0.1343
 7386WAT     H130250   4.698   2.239   6.736 -1.1668  1.5278  1.6206
 7386WAT     H230251   4.682   2.264   6.602 -4.3705  0.7962  1.7827
 7386WAT    EPW30252   4.713   2.282   6.672  0.0393  0.8275  0.2718
 7387WAT      O30253   7.808   0.981   1.035 -0.0745  0.4392  0.1153
 7387WAT     H130254   7.741   0.990   0.981 -0.7574  1.4609  1.0861
 7387WAT     H230255   7.839   0.901   1.018 -2.4389 -0.6621  0.6640
 7387WAT    EPW30256   7.803   0.971   1.025 -0.3960  0.1482  0.2591
 7388WAT      O30257   5.881   6.789   4.229  0.5793 -0.4445 -0.9778
 7388WAT     H130258   5.795   6.795   4.216  0.3315 -2.6441 -0.7106
 7388WAT     H230259   5.890   6.714   4.273  2.4750  0.6815  0.7466
 7388WAT    EPW30260   5.869   6.779   4.233 -0.9423 -0.2310 -0.0938
 7389WAT      O30261   3.397   1.204   0.182 -0.1019  0.5039  0.5663
 7389WAT     H130262   3.352   1.244   0.245  1.8783  1.6879  1.2849
 7389WAT     H230263   3.440   1.141   0.224 -0.6196 -0.2726 -0.0300
 7389WAT    EPW30264   3.396   1.200   0.197  0.0687 -0.1202 -0.1773
 7390WAT      O30265   1.985   6.533   2.468  0.3400  0.1173 -0.0241
 7390WAT     H130266   2.055   6.492   2.499  0.0588 -0.9204 -0.7196
 7390WAT     H230267   2.010   6.617   2.466  1.7284 -0.2745 -0.6364
 7390WAT    EPW30268   1.999   6.539   2.472 -0.4001 -0.1017  0.6270
 7391WAT      O30269   4.772   2.760   1.226  0.0227 -0.9016 -0.0420
 7391WAT     H130270   4.833   2.698   1.221 -0.1115 -0.9769 -1.0748
 7391WAT     H230271   4.809   2.821   1.276  1.1577 -0.7278 -1.0353
 7391WAT    EPW30272   4.786   2.759   1.232  0.7622 -0.1988 -0.0949
 7392WAT      O30273   0.725   4.760   8.044  0.2386  0.5124 -0.3869
 7392WAT     H130274   0.726   4.831   7.994  0.7245  0.8646  0.1201
 7392WAT     H230275   0.810   4.740   8.054  0.1038 -0.8633 -1.5345
 7392WAT    EPW30276   0.738   4.767   8.038  0.4357  0.4427 -0.6868
 7393WAT      O30277   5.602   3.843   6.454 -0.6748 -0.3987 -0.4911
 7393WAT     H130278   5.551   3.897   6.409 -0.3433  1.3302  1.0622
 7393WAT     H230279   5.677   3.889   6.462 -0.3470 -1.1136  0.7919
 7393WAT    EPW30280   5.606   3.858   6.448 -0.1209 -0.0827 -0.1090
 7394WAT      O30281   4.998   3.843   7.554 -0.6004  0.2554 -0.1009
 7394WAT     H130282   5.028   3.773   7.513 -0.0868  0.1476  0.4361
 7394WAT     H230283   4.937   3.811   7.608  0.4437  0.0414  0.9863
 7394WAT    EPW30284   4.993   3.828   7.556 -0.0784  0.3895 -0.6449
 7395WAT      O30285   4.114   0.036   3.819 -0.0008 -0.2827  0.7471
 7395WAT     H130286   4.133   0.120   3.805 -0.3410 -0.5121 -1.5909
 7395WAT     H230287   4.091   0.033   3.903  0.2103  1.9143  0.9354
 7395WAT    EPW30288   4.113   0.048   3.829  0.4917  0.1678  0.0882
 7396WAT      O30289   4.885   5.228   3.615 -0.8097  0.1582 -0.2303
 7396WAT     H130290   4.820   5.248   3.669 -2.2344 -0.6150 -1.5540
 7396WAT     H230291   4.937   5.176   3.662 -0.7567  1.3343  1.0616
 7396WAT    EPW30292   4.883   5.224   3.630  0.5889  0.0845  0.0335
 7397WAT      O30293   2.794   2.315   2.071 -0.5953  0.2612  0.3487
 7397WAT     H130294   2.745   2.254   2.110 -0.4586  1.0482  1.8324
 7397WAT     H230295   2.739   2.351   2.012 -0.7821 -1.0071 -0.2819
 7397WAT    EPW30296   2.779   2.311   2.068 -0.0742 -0.2330 -0.5677
 7398WAT      O30297   1.378   2.143   0.082  0.0377 -0.1044 -0.1572
 7398WAT     H130298   1.354   2.214   0.126  3.9033  0.6901  1.0257
 7398WAT     H230299   1.410   2.090   0.143  1.8838 -0.6661 -1.5178
 7398WAT    EPW30300   1.379   2.145   0.097  0.2292 -0.3067 -0.4653
 7399WAT      O30301   2.868   0.242   1.349 -0.5510 -0.0959 -0.0906
 7399WAT     H130302   2.922   0.190   1.394 -3.0783 -1.2570  1.8170
 7399WAT     H230303   2.901   0.239   1.268  1.0979 -2.3540  0.5579
 7399WAT    EPW30304   2.881   0.234   1.343 -0.1021 -0.2115  0.2155
 7400WAT      O30305   3.728   7.792   7.996  0.6752  0.4559 -0.0450
 7400WAT     H130306   3.750   7.829   7.920  0.8422  1.3412  0.4163
 7400WAT     H230307   3.761   7.847   8.055 -1.5616  1.1007  0.6932
 7400WAT    EPW30308   3.736   7.805   7.993 -0.0744 -0.2978  0.0656
 7401WAT      O30309   2.257   2.715   5.987  0.2767 -0.4575 -0.0376
 7401WAT     H130310   2.296   2.791   5.968  0.0758  0.0243  1.3470
 7401WAT     H230311   2.312   2.655   5.957  0.9282  0.2345 -0.2560
 7401WAT    EPW30312   2.271   2.718   5.980 -0.2587 -0.4821  0.6432
 7402WAT      O30313   1.271   2.270   1.737 -0.2310  0.1589 -0.2891
 7402WAT     H130314   1.263   2.354   1.713  0.4397  0.0252 -1.0075
 7402WAT     H230315   1.265   2.273   1.824  1.0196  1.1076 -0.2074
 7402WAT    EPW30316   1.269   2.283   1.746 -0.0868  0.4665 -0.2968
 7403WAT      O30317   5.182   2.649   7.983  0.1322 -0.4841  0.0363
 7403WAT     H130318   5.158   2.590   7.923  1.0078 -0.7820 -0.0379
 7403WAT     H230319   5.198   2.721   7.936 -0.9347 -0.1650  0.1263
 7403WAT    EPW30320   5.181   2.651   7.967  0.0701 -0.4260 -0.0504
 7404WAT      O30321   5.701   7.208   1.841 -0.6857 -0.0237 -0.4202
 7404WAT     H130322   5.695   7.121   1.835 -1.3612  0.0736 -1.5730
 7404WAT     H230323   5.733   7.232   1.763 -0.3316  0.7466 -0.0476
 7404WAT    EPW30324   5.705   7.199   1.829 -0.1195 -0.9826 -0.1363
 7405WAT      O30325   6.464   7.307   1.110 -0.2318  0.0942 -0.2577
 7405WAT     H130326   6.488   7.233   1.069 -0.7376  0.3970 -1.1381
 7405WAT     H230327   6.484   7.292   1.193  0.1248 -0.8477 -0.4977
 7405WAT    EPW30328   6.471   7.294   1.116 -0.0491 -0.3828  0.0244
 7406WAT      O30329   4.291   6.508   6.241 -0.3477 -0.1640 -0.0057
 7406WAT     H130330   4.205   6.503   6.253 -0.2515 -0.2407  0.6942
 7406WAT     H230331   4.323   6.442   6.288  0.0616 -0.5193 -0.7520
 7406WAT    EPW30332   4.283   6.498   6.249 -0.7109 -0.8474 -0.2654
 7407WAT      O30333   4.810   1.745   3.329 -0.0777  0.4176 -0.6167
 7407WAT     H130334   4.868   1.795   3.288  1.9688 -1.1117  0.2448
 7407WAT     H230335   4.816   1.770   3.412 -0.4709  0.0803 -0.4826
 7407WAT    EPW30336   4.819   1.756   3.335 -0.4834 -0.0111 -0.2677
 7408WAT      O30337   2.102   7.466   6.122 -0.3639  0.1755  0.2628
 7408WAT     H130338   2.189   7.460   6.129 -0.4202 -3.4239 -0.2417
 7408WAT     H230339   2.085   7.426   6.047 -2.6046 -2.1039  1.8533
 7408WAT    EPW30340   2.112   7.460   6.112  0.0937 -0.6525  0.4459
 7409WAT      O30341   3.267   0.307   0.073  0.9883 -0.2259 -0.7331
 7409WAT     H130342   3.338   0.262   0.096  0.8838  0.7498  1.9049
 7409WAT     H230343   3.213   0.297   0.142  0.1160  2.1071 -0.9844
 7409WAT    EPW30344   3.269   0.299   0.087 -0.2344 -0.0957 -0.1213
 7410WAT      O30345   2.040   1.549   5.683  0.2242  0.3441 -0.4609
 7410WAT     H130346   1.980   1.611   5.672  0.2059  0.1286 -1.6544
 7410WAT     H230347   2.000   1.491   5.735 -0.3310  0.5538 -0.6493
 7410WAT    EPW30348   2.026   1.550   5.689 -0.5803 -0.8652 -0.0335
 7411WAT      O30349   6.250   0.931   7.983  0.7658  0.6212  0.0644
 7411WAT     H130350   6.287   0.899   7.911 -0.7812 -2.6711  0.5848
 7411WAT     H230351   6.311   0.917   8.045  0.1451 -1.4727  0.2725
 7411WAT    EPW30352   6.265   0.924   7.982 -0.1783  0.1149  0.6640
 7412WAT      O30353   2.765   7.112   7.196 -0.2630 -0.1401  0.0332
 7412WAT     H130354   2.783   7.180   7.247  0.2910 -0.6784  0.5610
 7412WAT     H230355   2.685   7.131   7.165 -0.5875  0.2254  1.0482
 7412WAT    EPW30356   2.756   7.125   7.199 -0.1570 -0.5583  0.0655
 7413WAT      O30357   7.705   2.415   2.895  0.2941 -0.4586  0.1596
 7413WAT     H130358   7.757   2.483   2.878  2.3059 -1.9040  0.2192
 7413WAT     H230359   7.690   2.423   2.980  1.0922 -0.4378  0.3113
 7413WAT    EPW30360   7.711   2.426   2.905  0.1629  0.2934  0.4897
 7414WAT      O30361   2.548   5.321   6.890  0.5914 -0.3279  0.1015
 7414WAT     H130362   2.469   5.295   6.863  1.2258  0.3738 -2.8695
 7414WAT     H230363   2.592   5.247   6.901 -0.0769 -0.6833  0.4537
 7414WAT    EPW30364   2.542   5.306   6.887 -0.7194 -0.4420  0.5174
 7415WAT      O30365   5.399   0.103   1.632 -0.0148 -0.3565 -0.4782
 7415WAT     H130366   5.365   0.183   1.638  1.1685  0.3033 -1.9512
 7415WAT     H230367   5.348   0.064   1.573  0.5048 -0.0592 -1.1341
 7415WAT    EPW30368   5.387   0.109   1.624  0.1739 -0.2684  0.0015
 7416WAT      O30369   3.652   3.726   2.153  0.6710  0.2848  0.6830
 7416WAT     H130370   3.705   3.761   2.213  0.8759  1.0936  0.0526
 7416WAT     H230371   3.573   3.756   2.174  0.5214 -0.5376  1.3423
 7416WAT    EPW30372   3.648   3.736   2.165  0.4893  0.4079  0.0040
 7417WAT      O30373   2.249   0.551   3.006 -0.2878 -0.6827  0.3922
 7417WAT     H130374   2.311   0.554   2.945 -1.0871 -0.9302 -0.4495
 7417WAT     H230375   2.245   0.633   3.036  1.5244 -0.9926  1.5798
 7417WAT    EPW30376   2.257   0.564   3.001 -0.5653 -0.3021  0.3046
 7418WAT      O30377   2.145   5.722   0.300  0.5135 -0.0741 -0.1794
 7418WAT     H130378   2.072   5.680   0.278  0.5054  0.4458 -1.2148
 7418WAT     H230379   2.151   5.709   0.386 -1.1270  0.3898  0.0382
 7418WAT    EPW30380   2.135   5.714   0.309  0.3156  0.5069 -0.0845
 7419WAT      O30381   4.770   0.061   6.452  0.2997 -0.5735 -0.3646
 7419WAT     H130382   4.710   0.068   6.388  0.8549 -0.7807 -0.9266
 7419WAT     H230383   4.834   0.015   6.414  0.2857 -1.4424  0.6141
 7419WAT    EPW30384   4.770   0.055   6.437  0.8591 -0.3152 -0.1657
 7420WAT      O30385   4.042   2.420   2.047 -0.0736 -0.7232 -0.2444
 7420WAT     H130386   4.056   2.456   1.969 -0.0843 -3.4176 -1.6196
 7420WAT     H230387   4.122   2.402   2.077 -0.0852 -0.1398  0.1498
 7420WAT    EPW30388   4.056   2.422   2.040  0.6355  0.5205 -1.0180
 7421WAT      O30389   1.707   7.663   4.536  0.1532 -0.1303  0.0219
 7421WAT     H130390   1.724   7.745   4.511  1.4557 -0.6965 -1.0305
 7421WAT     H230391   1.620   7.660   4.538  0.0777  1.0959 -0.5534
 7421WAT    EPW30392   1.696   7.675   4.533 -0.1105  0.2858  0.0776
 7422WAT      O30393   5.492   5.728   7.550  0.0002 -0.1618  0.4840
 7422WAT     H130394   5.441   5.674   7.596  1.3396 -1.0910  0.9172
 7422WAT     H230395   5.564   5.736   7.600  0.4665  0.7859 -0.3061
 7422WAT    EPW30396   5.495   5.721   7.564  0.3423  0.2003 -0.1895
 7423WAT      O30397   2.975   5.885   6.407 -0.2909  0.0443  0.1702
 7423WAT     H130398   2.926   5.889   6.335 -2.6034  0.3600  1.6529
 7423WAT     H230399   2.969   5.965   6.441  3.0576  0.7667 -0.5602
 7423WAT    EPW30400   2.967   5.897   6.401  0.4159  0.9116 -0.1005
 7424WAT      O30401   3.445   6.996   7.798 -0.3853  0.2583 -0.4939
 7424WAT     H130402   3.370   6.981   7.841 -0.7254 -2.7588 -1.8731
 7424WAT     H230403   3.428   6.967   7.717  2.4484 -1.3140 -0.6723
 7424WAT    EPW30404   3.431   6.989   7.792 -0.1348 -0.2034  0.0481
 7425WAT      O30405   0.037   5.574   3.391 -0.4931  0.1858 -0.3361
 7425WAT     H130406   0.076   5.498   3.376 -3.7883 -1.3090 -2.3486
 7425WAT     H230407   0.085   5.631   3.345  1.4223 -0.7719  0.3695
 7425WAT    EPW30408   0.050   5.571   3.382  0.2495 -0.3445  0.0075
 7426WAT      O30409   0.073   2.364   1.725  0.0291 -0.3103  0.0147
 7426WAT     H130410  -0.014   2.376   1.722  0.0209 -0.5367 -0.7522
 7426WAT     H230411   0.100   2.388   1.646  0.5003 -1.5394 -0.2095
 7426WAT    EPW30412   0.064   2.370   1.713  0.0877  0.2496 -0.0526
 7427WAT      O30413   5.099   4.201   6.274  0.1822 -0.1388 -0.0995
 7427WAT     H130414   5.177   4.193   6.234  0.1972 -0.4586 -0.0103
 7427WAT     H230415   5.092   4.287   6.287  0.0032  0.0184 -1.1327
 7427WAT    EPW30416   5.110   4.213   6.270  0.2436  0.5954 -0.4645
 7428WAT      O30417   4.818   0.321   7.529 -0.1417  0.0150 -0.0181
 7428WAT     H130418   4.874   0.285   7.585  0.7855  0.7582 -0.4412
 7428WAT     H230419   4.842   0.405   7.527  0.8171 -0.2295 -2.5990
 7428WAT    EPW30420   4.830   0.328   7.537 -0.6170 -0.0386  0.0341
 7429WAT      O30421   0.704   7.308   3.287 -0.5685 -0.0730 -0.2045
 7429WAT     H130422   0.634   7.282   3.332  0.4426 -1.6348  0.5730
 7429WAT     H230423   0.688   7.282   3.206 -1.0125 -0.1602 -0.0902
 7429WAT    EPW30424   0.691   7.300   3.282 -0.7312  0.2774 -0.2376
 7430WAT      O30425   3.839   1.523   5.353  0.0053 -0.6718  0.4978
 7430WAT     H130426   3.752   1.532   5.352 -0.2325 -2.6615  0.5242
 7430WAT     H230427   3.854   1.472   5.284  1.0359 -1.2470  1.1361
 7430WAT    EPW30428   3.828   1.517   5.342  0.2293  0.3603 -0.6918
 7431WAT      O30429   2.150   7.031   7.050 -0.5122  0.1696 -0.5006
 7431WAT     H130430   2.072   7.063   7.074 -0.4481  1.0539 -1.3974
 7431WAT     H230431   2.147   7.035   6.963  1.1416  1.8043 -0.5407
 7431WAT    EPW30432   2.138   7.037   7.041  0.0852 -0.1412 -0.0502
 7432WAT      O30433   3.274   0.894   2.426 -0.4918  0.3148  0.0744
 7432WAT     H130434   3.238   0.900   2.346 -2.0456  0.4549  0.7422
 7432WAT     H230435   3.278   0.976   2.454 -0.8119  0.1910  0.4944
 7432WAT    EPW30436   3.269   0.907   2.418 -0.3923  0.0549  0.0427
 7433WAT      O30437   3.839   2.340   0.099  0.1938 -0.6417  0.1374
 7433WAT     H130438   3.902   2.400   0.105  0.3421 -0.5534 -1.8658
 7433WAT     H230439   3.766   2.385   0.116  0.4701 -0.2903  0.4106
 7433WAT    EPW30440   3.838   2.355   0.103  0.1416 -0.8764  0.0481
 7434WAT      O30441   3.154   3.867   5.966 -0.2321  0.1420 -0.4073
 7434WAT     H130442   3.184   3.929   5.913 -1.6608  1.1467 -0.1153
 7434WAT     H230443   3.165   3.902   6.046 -1.4292  0.2219 -0.2612
 7434WAT    EPW30444   3.160   3.881   5.970 -0.1670  0.2069  0.2438
 7435WAT      O30445   5.730   5.250   5.229 -0.7011 -0.4297 -0.2939
 7435WAT     H130446   5.741   5.283   5.310 -0.7564  0.5631 -0.6752
 7435WAT     H230447   5.645   5.264   5.213 -0.6864 -0.6086 -0.5318
 7435WAT    EPW30448   5.719   5.257   5.239  0.1858  0.7935  0.2044
 7436WAT      O30449   4.611   3.151   6.344 -0.2670  0.3893  0.2926
 7436WAT     H130450   4.610   3.081   6.291 -0.0415  0.8462 -0.3320
 7436WAT     H230451   4.607   3.116   6.424  3.7959 -0.6611  0.2976
 7436WAT    EPW30452   4.611   3.135   6.348  0.9560 -0.0926  0.6200
 7437WAT      O30453   5.639   5.062   0.167 -0.0531 -0.4949  0.5278
 7437WAT     H130454   5.653   5.114   0.236  2.6767 -0.6778  0.1916
 7437WAT     H230455   5.568   5.097   0.129  0.1066  1.3371  1.8083
 7437WAT    EPW30456   5.631   5.075   0.172 -0.5217  0.1751  0.6814
 7438WAT      O30457   3.660   1.779   1.060  0.8381  0.1420 -0.1542
 7438WAT     H130458   3.688   1.861   1.069  1.2352 -0.2626  3.8527
 7438WAT     H230459   3.574   1.786   1.073  0.7838 -0.0279 -0.4176
 7438WAT    EPW30460   3.652   1.792   1.063  0.1698  0.1859  0.1002
 7439WAT      O30461   4.510   3.283   6.890 -0.5256  0.3788  0.0520
 7439WAT     H130462   4.582   3.300   6.844 -0.3749 -1.4801 -0.4576
 7439WAT     H230463   4.509   3.347   6.950  0.8249  1.1781 -0.7224
 7439WAT    EPW30464   4.520   3.295   6.892  0.1289  0.7221  0.3015
 7440WAT      O30465   3.650   6.030   7.799  0.1233  0.6376  0.1730
 7440WAT     H130466   3.686   6.003   7.724  0.5101  1.7467 -0.0612
 7440WAT     H230467   3.585   6.081   7.774  0.6619  1.5486  0.5730
 7440WAT    EPW30468   3.646   6.034   7.784 -0.1815 -0.3017 -0.3623
 7441WAT      O30469   6.358   7.359   1.985  0.2157 -0.1015  0.0458
 7441WAT     H130470   6.307   7.418   1.945  0.8958 -0.2027 -1.0001
 7441WAT     H230471   6.429   7.356   1.935  0.9364 -0.5311  1.0611
 7441WAT    EPW30472   6.361   7.367   1.972  0.5695 -0.0539  0.1250
 7442WAT      O30473   1.594   0.175   4.125  0.3124 -0.3138  0.6324
 7442WAT     H130474   1.652   0.121   4.161 -0.4008 -1.4329  0.1264
 7442WAT     H230475   1.580   0.233   4.189  1.0291 -0.7484  1.2132
 7442WAT    EPW30476   1.601   0.176   4.140  0.2431  0.2303  0.5920
 7443WAT      O30477   1.787   6.476   3.896  0.1222 -0.3444 -0.1510
 7443WAT     H130478   1.826   6.546   3.861  0.0336 -0.0427  0.3322
 7443WAT     H230479   1.703   6.499   3.898  0.2664  0.2244  1.4825
 7443WAT    EPW30480   1.780   6.490   3.891 -0.9266 -0.6599 -0.3395
 7444WAT      O30481   1.572   5.928   3.719 -0.0104 -0.1492 -0.0432
 7444WAT     H130482   1.628   5.966   3.663 -1.8363 -0.4377 -2.1797
 7444WAT     H230483   1.567   5.846   3.690 -1.5113 -0.1254  0.0951
 7444WAT    EPW30484   1.580   5.921   3.706  0.0760 -0.3289 -0.0418
 7445WAT      O30485   5.432   2.443   1.738  0.5685  0.1979 -0.1830
 7445WAT     H130486   5.366   2.411   1.690 -0.5108  2.3509 -0.2716
 7445WAT     H230487   5.444   2.383   1.800 -1.3589 -0.3666 -0.2892
 7445WAT    EPW30488   5.424   2.430   1.740  0.0034  0.0751 -0.0445
 7446WAT      O30489   4.251   0.710   4.766 -0.0010 -0.8020  0.3501
 7446WAT     H130490   4.165   0.708   4.752  0.2379 -2.4887 -1.1000
 7446WAT     H230491   4.286   0.695   4.688  1.6803  0.8734  0.6947
 7446WAT    EPW30492   4.243   0.708   4.753 -0.0189 -0.6825  0.7188
 7447WAT      O30493   2.896   8.003   1.433  0.0363 -0.2334 -0.0981
 7447WAT     H130494   2.941   7.968   1.367 -0.9232 -1.2720 -0.2472
 7447WAT     H230495   2.941   7.979   1.504  0.4669 -0.0658 -0.3130
 7447WAT    EPW30496   2.909   7.994   1.434  0.2967 -0.2013  0.2511
 7448WAT      O30497   3.313   2.544   6.574  0.4839  0.0762 -0.1503
 7448WAT     H130498   3.373   2.481   6.567  2.2719  1.8188 -2.5423
 7448WAT     H230499   3.339   2.589   6.644 -0.4165 -1.3709  1.1714
 7448WAT    EPW30500   3.326   2.541   6.583  0.1847 -0.5541 -0.6049
 7449WAT      O30501   3.540   1.522   4.104 -0.2873  0.2281  0.7539
 7449WAT     H130502   3.459   1.490   4.097 -0.0326 -0.2471 -0.2900
 7449WAT     H230503   3.570   1.485   4.177 -0.7119 -0.2875  0.6767
 7449WAT    EPW30504   3.532   1.512   4.114 -0.3224 -0.4745 -0.1348
 7450WAT      O30505   6.211   7.303   3.645  0.0749  0.3899 -0.5639
 7450WAT     H130506   6.173   7.305   3.723  1.2132 -1.3087  0.0850
 7450WAT     H230507   6.261   7.375   3.646 -0.7627  0.9949 -0.2237
 7450WAT    EPW30508   6.213   7.314   3.657 -0.1048 -0.6878 -0.2171
 7451WAT      O30509   3.671   1.921   6.130  0.7930 -0.2468  0.4559
 7451WAT     H130510   3.650   1.839   6.152  0.7148 -0.5036 -0.4914
 7451WAT     H230511   3.596   1.954   6.100  0.8074  0.2025  0.9047
 7451WAT    EPW30512   3.657   1.913   6.129  0.0124  0.8598 -0.8202
 7452WAT      O30513   5.414   5.242   4.345  0.2396  0.8429  0.1409
 7452WAT     H130514   5.329   5.225   4.346  0.4691 -0.4519 -0.1442
 7452WAT     H230515   5.419   5.322   4.311 -1.0229  2.3134  3.0725
 7452WAT    EPW30516   5.402   5.251   4.340 -0.0069 -0.0468  0.4235
 7453WAT      O30517   6.158   5.945   4.417 -0.0884  0.7957 -0.0777
 7453WAT     H130518   6.175   6.021   4.457 -2.8618  0.0828  2.8505
 7453WAT     H230519   6.071   5.946   4.410 -0.0975 -1.6512 -1.0931
 7453WAT    EPW30520   6.147   5.957   4.422 -0.1826 -0.0433  0.5690
 7454WAT      O30521   4.708   1.245   7.229 -0.0551 -0.0084 -0.1588
 7454WAT     H130522   4.754   1.266   7.158  0.3085  0.1125  0.1133
 7454WAT     H230523   4.764   1.255   7.295 -0.2396 -0.6295  0.0979
 7454WAT    EPW30524   4.723   1.250   7.228  0.0170  0.3520 -0.1690
 7455WAT      O30525   2.961   6.692   5.681 -0.2590  0.0537  0.0742
 7455WAT     H130526   2.993   6.615   5.657 -0.8986 -0.0973 -0.3169
 7455WAT     H230527   2.959   6.688   5.768  0.9067  0.1264  0.1218
 7455WAT    EPW30528   2.965   6.680   5.690 -0.2721  0.5300  0.0877
 7456WAT      O30529   3.011   0.747   3.613  0.6296 -0.5854 -0.2381
 7456WAT     H130530   2.989   0.797   3.680  0.3239 -0.1254 -0.6726
 7456WAT     H230531   3.091   0.718   3.634  0.4351 -0.6494  0.4291
 7456WAT    EPW30532   3.020   0.750   3.626 -0.2853 -0.8486 -0.1131
 7457WAT      O30533   4.501   5.164   0.934  0.2271  0.4283 -0.2039
 7457WAT     H130534   4.465   5.228   0.981 -0.2938 -0.0971  0.1174
 7457WAT     H230535   4.544   5.207   0.871 -0.1073  1.0920  0.0146
 7457WAT    EPW30536   4.502   5.180   0.932  0.5682 -0.2852  0.2001
 7458WAT      O30537   5.492   7.973   0.966 -0.1930  0.4958 -0.4290
 7458WAT     H130538   5.510   7.967   0.881 -0.0535  0.4471 -0.3961
 7458WAT     H230539   5.413   7.937   0.973  0.1101 -0.1917 -0.4229
 7458WAT    EPW30540   5.483   7.967   0.955  0.1213  0.4643 -0.3963
 7459WAT      O30541   1.118   0.645   2.580  0.1967 -0.0047 -0.4000
 7459WAT     H130542   1.181   0.600   2.621 -1.1315 -1.6798 -0.0531
 7459WAT     H230543   1.131   0.727   2.606  1.8448 -0.4018  0.1492
 7459WAT    EPW30544   1.129   0.650   2.590  0.4632  0.0821  0.1572
 7460WAT      O30545   1.304   4.401   8.029  0.0885  0.4114 -0.1478
 7460WAT     H130546   1.258   4.327   8.021  0.5258  0.2177 -1.0188
 7460WAT     H230547   1.300   4.419   8.115 -0.3225 -0.4236  0.0166
 7460WAT    EPW30548   1.297   4.393   8.041 -0.2073  0.4204 -0.1701
 7461WAT      O30549   4.316   2.230   4.352 -0.3484 -0.6616  0.4118
 7461WAT     H130550   4.358   2.296   4.391 -0.9599  0.1357 -0.2269
 7461WAT     H230551   4.371   2.205   4.289 -0.2762 -0.4840  0.4016
 7461WAT    EPW30552   4.330   2.236   4.348  0.0339  0.2846 -0.3829
 7462WAT      O30553   2.201   4.026   3.023 -0.0084  0.3723  0.1462
 7462WAT     H130554   2.160   4.102   3.015  1.0233  1.0407  0.8859
 7462WAT     H230555   2.167   3.992   3.096  0.0231  0.4547  0.1997
 7462WAT    EPW30556   2.190   4.032   3.033  0.4076  0.5528 -0.3307
 7463WAT      O30557   2.327   1.300   6.781 -0.8528 -0.3826  0.3808
 7463WAT     H130558   2.285   1.354   6.726 -0.0756 -1.9328 -1.8997
 7463WAT     H230559   2.273   1.232   6.788 -0.3059 -0.8229  0.3616
 7463WAT    EPW30560   2.313   1.298   6.774  0.0938 -0.0635 -0.5099
 7464WAT      O30561   3.921   2.086   0.804 -0.1681  0.4780 -0.8504
 7464WAT     H130562   3.886   2.025   0.856  0.1758 -0.7798 -2.0525
 7464WAT     H230563   3.854   2.139   0.787 -0.4791  0.4472  0.1955
 7464WAT    EPW30564   3.906   2.085   0.809 -0.0206  0.8667  0.4492
 7465WAT      O30565   4.987   4.550   7.877  0.7790 -0.3429 -0.0091
 7465WAT     H130566   5.003   4.580   7.796 -0.4490  0.7510  0.1133
 7465WAT     H230567   4.901   4.539   7.877  0.6761  0.3042  1.3460
 7465WAT    EPW30568   4.977   4.553   7.865  0.4631  0.6137  0.8969
 7466WAT      O30569   1.424   4.015   6.583  0.3710 -0.0642 -0.6551
 7466WAT     H130570   1.505   4.038   6.605 -0.0184  1.2686 -0.5307
 7466WAT     H230571   1.374   4.079   6.617 -0.8713 -1.5464  0.4812
 7466WAT    EPW30572   1.428   4.028   6.591 -0.1523  0.2980  0.0225
 7467WAT      O30573   2.014   3.108   4.669 -0.2115  0.0404 -0.1084
 7467WAT     H130574   1.942   3.154   4.653 -1.8151 -1.8866  1.0340
 7467WAT     H230575   2.013   3.047   4.606  0.0211 -0.4458  0.3534
 7467WAT    EPW30576   2.003   3.106   4.657 -0.6022 -0.1250  0.3162
 7468WAT      O30577   7.660   3.879   4.192  0.0228  0.1305 -0.0939
 7468WAT     H130578   7.667   3.963   4.215 -3.3119 -0.4323  4.6662
 7468WAT     H230579   7.718   3.839   4.243 -2.5904 -0.6438  2.6032
 7468WAT    EPW30580   7.670   3.886   4.203 -0.1576  0.4247  0.2731
 7469WAT      O30581   6.199   4.769   5.844 -0.1103 -0.4234  0.3444
 7469WAT     H130582   6.118   4.803   5.840 -0.1287 -0.5615 -1.5406
 7469WAT     H230583   6.249   4.834   5.813  0.2987 -0.8846  0.0335
 7469WAT    EPW30584   6.194   4.784   5.838  0.2393  0.2381 -0.3625
 7470WAT      O30585   4.695   4.842   0.897  0.1922  0.5798 -0.3264
 7470WAT     H130586   4.630   4.784   0.900  0.3345  0.0826 -3.5745
 7470WAT     H230587   4.764   4.797   0.925 -0.1405 -0.0791 -0.5522
 7470WAT    EPW30588   4.695   4.827   0.902  0.2977 -0.4781  0.1174
 7471WAT      O30589   3.909   3.397   4.863 -0.2239  0.0279 -0.6169
 7471WAT     H130590   3.882   3.376   4.782 -2.0515 -1.8276  0.3578
 7471WAT     H230591   3.961   3.330   4.884  0.1740  0.4614 -0.2290
 7471WAT    EPW30592   3.912   3.384   4.854 -0.3829  0.0993  0.9885
 7472WAT      O30593   2.800   6.465   6.732 -0.3651  0.3076 -0.2342
 7472WAT     H130594   2.882   6.450   6.760 -1.4738 -2.0766  2.1320
 7472WAT     H230595   2.758   6.492   6.803 -1.4683  2.7213 -1.6763
 7472WAT    EPW30596   2.806   6.467   6.747  0.0999  0.0361 -0.6227
 7473WAT      O30597   3.891   0.685   4.203  0.3290 -0.5928 -0.1994
 7473WAT     H130598   3.923   0.606   4.188  0.5709 -0.5953  0.3423
 7473WAT     H230599   3.865   0.712   4.123 -1.7606 -2.0698 -0.0926
 7473WAT    EPW30600   3.892   0.678   4.189  0.6167  0.4629 -0.2832
 7474WAT      O30601   3.282   1.554   5.782  0.9066  0.5416 -0.0665
 7474WAT     H130602   3.207   1.587   5.752  0.2312 -1.3861 -0.5879
 7474WAT     H230603   3.342   1.587   5.727  0.5007  2.1360  0.3829
 7474WAT    EPW30604   3.280   1.564   5.769  0.3654  0.3834  0.0628
 7475WAT      O30605   5.817   7.207   0.716 -0.7141 -0.1448  0.3355
 7475WAT     H130606   5.902   7.205   0.735 -0.6965 -0.6180  0.2076
 7475WAT     H230607   5.789   7.126   0.734 -1.6564  0.6167  2.7035
 7475WAT    EPW30608   5.825   7.195   0.721  0.0900  0.3626  0.1067
 7476WAT      O30609   3.078   7.243   5.816  0.2018  0.2532 -0.3081
 7476WAT     H130610   3.027   7.266   5.884  1.8977  1.7433  0.5428
 7476WAT     H230611   3.100   7.161   5.835  2.8411  1.4129  2.5721
 7476WAT    EPW30612   3.074   7.234   5.829 -0.0487 -0.0642 -0.6137
 7477WAT      O30613   4.978   4.430   4.786  0.7011 -0.4119 -0.6507
 7477WAT     H130614   4.896   4.426   4.756  1.0880  0.7995 -1.9809
 7477WAT     H230615   5.012   4.500   4.746  1.5626  0.8444  2.0129
 7477WAT    EPW30616   4.971   4.440   4.775 -0.1425  0.6630 -0.7512
 7478WAT      O30617   4.657   7.605   5.276  0.1438 -0.8618 -0.0293
 7478WAT     H130618   4.585   7.636   5.314  1.2324 -0.2773  1.7170
 7478WAT     H230619   4.690   7.674   5.235  0.2479 -0.8576  0.0605
 7478WAT    EPW30620   4.651   7.620   5.276 -0.5447 -0.0119 -0.2339
 7479WAT      O30621   3.140   0.186   0.317 -0.3792 -0.1618 -0.3316
 7479WAT     H130622   3.205   0.155   0.367 -0.8507 -0.5350  0.0618
 7479WAT     H230623   3.078   0.124   0.324 -0.6538  0.0389 -0.9565
 7479WAT    EPW30624   3.140   0.172   0.326 -0.6588 -0.0083  0.2142
 7480WAT      O30625   1.429   3.926   4.009  0.1445  0.0016  0.1563
 7480WAT     H130626   1.382   3.999   4.006 -0.4236 -0.1556  2.8747
 7480WAT     H230627   1.415   3.896   4.089  0.2200 -3.2136 -0.8962
 7480WAT    EPW30628   1.420   3.932   4.020  0.0832  0.2077  0.0006
 7481WAT      O30629   1.957   4.853   6.200  0.3091 -0.4784  0.4452
 7481WAT     H130630   2.013   4.920   6.201 -0.6237  0.3189  0.5757
 7481WAT     H230631   1.901   4.873   6.137  1.1289 -2.1157 -0.8931
 7481WAT    EPW30632   1.957   4.866   6.191  0.0382  0.2745  0.2402
 7482WAT      O30633   6.081   6.166   0.009  0.0144  0.4501  0.5289
 7482WAT     H130634   6.072   6.083   0.035  2.5866 -0.4010 -0.9298
 7482WAT     H230635   6.091   6.210   0.083 -0.6615 -0.6390  1.2963
 7482WAT    EPW30636   6.081   6.160   0.024  0.0068 -0.0796 -0.5107
 7483WAT      O30637   5.558   0.647   2.692 -0.6906  0.1555  0.3307
 7483WAT     H130638   5.624   0.703   2.699 -0.4957 -0.0916  0.4863
 7483WAT     H230639   5.536   0.649   2.608  0.1189 -0.4486  0.0931
 7483WAT    EPW30640   5.564   0.655   2.681  0.0158 -0.5150 -0.4035
 7484WAT      O30641   6.655   2.864   2.119 -0.4548  0.3737 -0.4263
 7484WAT     H130642   6.572   2.851   2.144 -0.1766  0.7305  0.7418
 7484WAT     H230643   6.671   2.946   2.143  0.6545 -0.1197  0.5714
 7484WAT    EPW30644   6.645   2.874   2.126  0.4877 -0.7858 -0.1491
 7485WAT      O30645   4.014   3.156   4.949  0.3875  0.2118  0.3635
 7485WAT     H130646   3.966   3.082   4.952  0.0910  0.0637 -3.2189
 7485WAT     H230647   4.087   3.131   4.908  0.4384  1.7742 -0.5863
 7485WAT    EPW30648   4.018   3.141   4.943 -0.3183 -0.5505  0.1421
 7486WAT      O30649   6.278   3.967   1.068  0.4440 -0.4829  0.5665
 7486WAT     H130650   6.307   3.911   1.007  0.7980  0.6127 -0.3217
 7486WAT     H230651   6.347   3.981   1.118  0.7000  0.0511  0.0755
 7486WAT    EPW30652   6.292   3.961   1.066 -0.2086 -0.1981  0.2239
 7487WAT      O30653   3.862   6.304   4.766 -0.1378  0.2293 -0.1601
 7487WAT     H130654   3.867   6.295   4.853  0.2498  0.1208 -0.1939
 7487WAT     H230655   3.847   6.389   4.756  0.6049  0.3822 -0.0158
 7487WAT    EPW30656   3.860   6.315   4.778  0.0533  0.1030 -0.1172
 7488WAT      O30657   1.150   4.541   7.617 -0.0210  0.1757  0.0923
 7488WAT     H130658   1.134   4.547   7.703 -2.3732  1.9262 -0.3966
 7488WAT     H230659   1.205   4.606   7.601  1.7335 -1.1250  0.4494
 7488WAT    EPW30660   1.156   4.551   7.627 -0.9055  0.0860  0.5144
 7489WAT      O30661   7.756   2.127   4.379 -0.4053 -0.6226 -0.4150
 7489WAT     H130662   7.774   2.101   4.298 -0.4258  0.3888 -0.7613
 7489WAT     H230663   7.671   2.148   4.375  0.0028  1.1638 -0.6548
 7489WAT    EPW30664   7.746   2.126   4.366 -0.3036  0.1023  0.0561
 7490WAT      O30665   4.695   7.662   7.544  0.3952 -0.1218  0.1935
 7490WAT     H130666   4.641   7.631   7.605 -2.7127 -2.0498 -3.1683
 7490WAT     H230667   4.763   7.690   7.590 -1.1393 -2.4142  4.4238
 7490WAT    EPW30668   4.697   7.662   7.560 -0.2828 -0.2233  0.2344
 7491WAT      O30669   5.829   2.521   4.205 -0.9148  0.2163  0.2497
 7491WAT     H130670   5.786   2.554   4.137 -2.3687 -0.0458  0.9938
 7491WAT     H230671   5.767   2.513   4.266 -0.2400 -2.0804  0.7174
 7491WAT    EPW30672   5.813   2.525   4.204 -0.1174  0.1728 -0.2968
 7492WAT      O30673   4.992   0.845   5.914  0.1216 -0.9157 -0.3180
 7492WAT     H130674   5.049   0.832   5.849  1.2177 -1.3590  0.7135
 7492WAT     H230675   4.931   0.895   5.877  1.4805  0.0936 -1.3023
 7492WAT    EPW30676   4.991   0.850   5.899  0.0655 -0.0364  0.2553
 7493WAT      O30677   1.934   7.514   1.701  0.3918 -0.5191  0.0856
 7493WAT     H130678   2.015   7.511   1.670  0.8877 -2.0804  1.4337
 7493WAT     H230679   1.932   7.452   1.762 -2.2530 -1.5618 -0.9103
 7493WAT    EPW30680   1.946   7.505   1.705  0.4149  0.2831  0.0053
 7494WAT      O30681   4.073   3.251   6.755  0.6232  0.1255  0.5631
 7494WAT     H130682   4.057   3.271   6.672  1.0350  2.0790  0.9127
 7494WAT     H230683   4.008   3.289   6.798  0.1911 -1.1986  1.1408
 7494WAT    EPW30684   4.061   3.260   6.749 -0.1180 -0.1934 -0.2256
 7495WAT      O30685   4.013   0.100   3.149 -0.6698  0.7905  0.0221
 7495WAT     H130686   4.049   0.178   3.165 -1.8793  1.4037 -0.1417
 7495WAT     H230687   4.017   0.093   3.062  1.9034 -0.5920  0.1380
 7495WAT    EPW30688   4.019   0.110   3.139  0.0056  0.2478 -0.0182
 7496WAT      O30689   2.735   1.428   5.882  0.1101  0.3416  0.3673
 7496WAT     H130690   2.661   1.385   5.862  0.6032  0.1578 -1.1097
 7496WAT     H230691   2.712   1.474   5.953 -1.1695 -0.3937  0.4673
 7496WAT    EPW30692   2.720   1.429   5.890 -0.0577 -0.3245  0.3241
 7497WAT      O30693   2.307   7.962   3.588  0.5458  0.3355 -0.6519
 7497WAT     H130694   2.352   8.031   3.559 -0.1978  1.2470  0.3003
 7497WAT     H230695   2.312   7.905   3.522 -0.3661  1.9801 -2.2168
 7497WAT    EPW30696   2.315   7.963   3.574  0.8901  0.4261 -0.1542
 7498WAT      O30697   6.286   3.012   3.948 -0.3753 -0.2736 -0.5479
 7498WAT     H130698   6.287   3.085   3.900 -0.7590  2.2418  2.9225
 7498WAT     H230699   6.212   3.018   3.994 -1.2726 -3.7876 -1.1953
 7498WAT    EPW30700   6.275   3.024   3.948 -0.5765 -0.5511 -0.0082
 7499WAT      O30701   1.817   0.043   7.435  0.1354  0.1289 -0.1773
 7499WAT     H130702   1.851  -0.036   7.423 -1.5903 -0.5202 -1.2313
 7499WAT     H230703   1.865   0.077   7.500  0.4827 -2.0354  0.7761
 7499WAT    EPW30704   1.829   0.036   7.443 -0.3771  0.4184 -0.0310
 7500WAT      O30705   3.735   7.740   6.731 -0.0666  0.5073  0.1108
 7500WAT     H130706   3.719   7.783   6.805  0.3620  0.5574  0.1756
 7500WAT     H230707   3.712   7.797   6.669 -1.1728  0.1841  0.1957
 7500WAT    EPW30708   3.729   7.755   6.733 -0.0468 -0.2084  0.1808
 7501WAT      O30709   3.758   2.281   6.768 -0.1060  0.4364 -0.3395
 7501WAT     H130710   3.723   2.330   6.831 -0.3134 -0.0802 -0.0484
 7501WAT     H230711   3.771   2.204   6.806 -0.8634 -0.0923 -1.1067
 7501WAT    EPW30712   3.754   2.277   6.783  0.2864  0.5445 -0.6029
 7502WAT      O30713   6.608   5.511   3.630 -0.1825 -0.3411 -0.2844
 7502WAT     H130714   6.601   5.526   3.545 -0.7411  0.4251 -0.1107
 7502WAT     H230715   6.694   5.507   3.643  0.0630  2.5346 -0.4037
 7502WAT    EPW30716   6.619   5.513   3.619 -0.6117  0.0535  0.1217
 7503WAT      O30717   0.700   6.055   2.822  0.1280 -0.0870 -0.3863
 7503WAT     H130718   0.665   6.088   2.749  0.9491  2.3955  0.2476
 7503WAT     H230719   0.781   6.032   2.798  0.0951 -0.1378 -0.4500
 7503WAT    EPW30720   0.707   6.056   2.808 -0.0541 -0.6096 -0.1513
 7504WAT      O30721   2.342   2.986   6.385 -0.3551 -0.3670 -0.0312
 7504WAT     H130722   2.315   3.039   6.449 -0.4278  1.5184 -1.5196
 7504WAT     H230723   2.413   3.026   6.355  0.1934 -1.6928 -0.5722
 7504WAT    EPW30724   2.348   3.000   6.390 -0.3602 -0.0408  0.7682
 7505WAT      O30725   6.781   2.996   0.979  0.1606 -0.3859  0.3129
 7505WAT     H130726   6.845   2.981   0.921 -0.2272 -0.4053 -0.1160
 7505WAT     H230727   6.799   3.075   1.010  1.2835 -1.0108  1.3571
 7505WAT    EPW30728   6.793   3.005   0.975  0.2988  0.4120  0.2163
 7506WAT      O30729   3.841   1.581   4.533 -0.2859 -0.3956  0.2569
 7506WAT     H130730   3.769   1.595   4.580  0.3179 -0.1765  1.1603
 7506WAT     H230731   3.847   1.651   4.482  0.4268  0.6576  1.7162
 7506WAT    EPW30732   3.831   1.594   4.533 -0.1671  0.1188  0.3540
 7507WAT      O30733   3.641   5.586   5.683 -0.0728  0.2245 -0.4132
 7507WAT     H130734   3.593   5.617   5.748  0.0839  0.3513 -0.3581
 7507WAT     H230735   3.592   5.599   5.612  1.1268  3.2192 -0.8124
 7507WAT    EPW30736   3.627   5.592   5.682  0.2434 -0.1178  0.3864
 7508WAT      O30737   6.111   2.503   0.817  0.4654  0.0989 -0.9600
 7508WAT     H130738   6.171   2.452   0.779  2.3240  0.9665  0.6080
 7508WAT     H230739   6.118   2.481   0.902 -0.9934  0.6922 -0.6698
 7508WAT    EPW30740   6.121   2.492   0.824  0.5365  0.5421  0.1391
 7509WAT      O30741   4.439   7.749   5.339  0.8816 -0.2510 -0.0289
 7509WAT     H130742   4.382   7.684   5.353  1.3465 -0.2426  2.3723
 7509WAT     H230743   4.388   7.818   5.323  0.1839 -0.3775  1.4712
 7509WAT    EPW30744   4.423   7.750   5.339 -0.0503 -0.2863 -0.2401
 7510WAT      O30745   3.786   4.566   7.577 -0.4536  0.3493 -0.4755
 7510WAT     H130746   3.821   4.486   7.574 -1.2497  0.0170 -2.7314
 7510WAT     H230747   3.826   4.608   7.512  0.7471  2.2292  1.3257
 7510WAT    EPW30748   3.797   4.561   7.567  0.0911  0.0128  0.2026
 7511WAT      O30749   2.405   1.597   3.292  0.2210  0.1045 -0.1992
 7511WAT     H130750   2.334   1.547   3.281  0.0628  0.0359  1.0080
 7511WAT     H230751   2.451   1.553   3.351  0.6819  0.7662 -0.0612
 7511WAT    EPW30752   2.401   1.583   3.299 -0.1641  0.3442 -0.6048
 7512WAT      O30753   5.897   3.688   6.339 -0.6226  0.2654 -0.8121
 7512WAT     H130754   5.849   3.761   6.339  0.3511  1.0001  1.4781
 7512WAT     H230755   5.877   3.650   6.263 -3.5877  1.3055 -0.6706
 7512WAT    EPW30756   5.887   3.693   6.327 -0.3172 -0.0497 -0.0911
 7513WAT      O30757   1.814   2.651   2.400  0.0045 -0.5183 -0.0206
 7513WAT     H130758   1.729   2.630   2.397 -0.4692  1.3643 -1.5670
 7513WAT     H230759   1.835   2.665   2.317  1.8023 -0.7143  0.3611
 7513WAT    EPW30760   1.804   2.650   2.388  0.1138  0.0295  0.3153
 7514WAT      O30761   3.198   7.224   0.008 -0.1963 -0.2510 -0.2877
 7514WAT     H130762   3.228   7.290  -0.042  1.9425 -2.2036 -1.7692
 7514WAT     H230763   3.250   7.227   0.078  0.1538 -0.5450 -0.5275
 7514WAT    EPW30764   3.210   7.234   0.011 -0.1905  0.1871  0.4689
 7515WAT      O30765   0.307   0.781   1.614 -0.4868 -0.0769  1.2295
 7515WAT     H130766   0.267   0.745   1.545 -2.0939  0.5773  1.7833
 7515WAT     H230767   0.363   0.837   1.578  0.2540 -1.2871  0.4272
 7515WAT    EPW30768   0.309   0.784   1.599  0.0530  0.0603 -0.6704
 7516WAT      O30769   0.764   2.109   0.860 -0.3295  0.6716 -0.7152
 7516WAT     H130770   0.783   2.075   0.938 -0.7824  1.5870 -0.1929
 7516WAT     H230771   0.793   2.049   0.804  0.3111  0.1558  0.1462
 7516WAT    EPW30772   0.771   2.095   0.863 -0.2638 -0.0604 -0.3164
 7517WAT      O30773   0.538   0.360   4.172  0.3202  0.0175 -0.3644
 7517WAT     H130774   0.592   0.408   4.123 -0.9610  0.1115 -1.7670
 7517WAT     H230775   0.520   0.413   4.239  0.8617  0.5218 -0.6061
 7517WAT    EPW30776   0.543   0.375   4.175  0.2139 -0.0270 -0.4816
 7518WAT      O30777   4.632   2.913   6.208 -0.1002 -0.4054  0.1257
 7518WAT     H130778   4.718   2.917   6.218 -0.3545  1.4113  2.4145
 7518WAT     H230779   4.607   2.853   6.266 -0.3117 -2.4411 -1.9191
 7518WAT    EPW30780   4.641   2.905   6.218 -0.0532  0.1915 -0.1638
 7519WAT      O30781   4.569   1.298   2.241 -0.5994 -0.3171 -0.0690
 7519WAT     H130782   4.505   1.348   2.272  0.8429 -0.0371  2.8173
 7519WAT     H230783   4.633   1.309   2.299  1.4595 -1.9123 -1.8757
 7519WAT    EPW30784   4.569   1.307   2.254 -0.8329 -0.6911 -0.2745
 7520WAT      O30785   4.805   1.478   1.960  0.0327 -0.7246  0.1855
 7520WAT     H130786   4.814   1.529   2.030  1.0171 -1.1886  0.4231
 7520WAT     H230787   4.869   1.503   1.907  0.6094 -1.7658  0.3584
 7520WAT    EPW30788   4.816   1.489   1.963  0.6579  0.2865 -0.1804
 7521WAT      O30789   1.397   5.536   4.976 -0.1631 -0.1533 -0.1269
 7521WAT     H130790   1.398   5.574   4.898 -1.1919  1.0984  0.4263
 7521WAT     H230791   1.469   5.568   5.015  1.0507 -1.7535 -0.9540
 7521WAT    EPW30792   1.408   5.546   4.970 -0.4159  0.0346 -0.3766
 7522WAT      O30793   2.933   3.441   4.680 -0.0592  0.0988  0.2688
 7522WAT     H130794   2.926   3.436   4.593 -1.1096  0.8540  0.2926
 7522WAT     H230795   2.871   3.498   4.703  1.1620  1.0518  1.3885
 7522WAT    EPW30796   2.923   3.449   4.671 -0.2927 -0.3582  0.4388
 7523WAT      O30797   0.084   2.696   3.808 -0.0114  0.2077  0.0369
 7523WAT     H130798   0.070   2.610   3.799  2.2637 -0.1944 -0.4901
 7523WAT     H230799   0.069   2.728   3.728 -1.0472  0.3569  0.2797
 7523WAT    EPW30800   0.080   2.688   3.795 -0.1627 -0.3058 -0.0501
 7524WAT      O30801   4.227   2.478   5.742  0.2338  0.3280  0.0117
 7524WAT     H130802   4.142   2.473   5.726  0.2307 -1.4523  0.3676
 7524WAT     H230803   4.263   2.456   5.665  0.3651  0.3278  0.0730
 7524WAT    EPW30804   4.220   2.474   5.728 -0.9576  0.2216  0.9877
 7525WAT      O30805   3.999   5.703   0.662 -0.2174 -0.3712  0.2183
 7525WAT     H130806   4.030   5.784   0.661  0.7872 -0.7401 -1.2663
 7525WAT     H230807   4.002   5.681   0.747 -1.0560  1.3012  0.7390
 7525WAT    EPW30808   4.004   5.712   0.675 -0.2990 -0.0436 -0.1050
 7526WAT      O30809   1.935   0.722   7.674 -0.4194  0.0611 -0.4305
 7526WAT     H130810   2.015   0.692   7.656  0.3127  0.6435  1.5412
 7526WAT     H230811   1.920   0.781   7.612  1.1650  0.7242 -0.2100
 7526WAT    EPW30812   1.944   0.726   7.662  0.3894  0.2185 -0.4546
 7527WAT      O30813   3.558   3.042   0.401  0.2857 -0.2539 -0.6634
 7527WAT     H130814   3.501   2.977   0.415  0.8927 -0.7123 -0.2569
 7527WAT     H230815   3.541   3.099   0.465  0.5700 -0.5954 -0.2794
 7527WAT    EPW30816   3.547   3.041   0.413 -0.3088 -0.3050  0.0409
 7528WAT      O30817   1.864   1.938   0.542 -0.1916  0.1387  0.2057
 7528WAT     H130818   1.860   1.861   0.501 -2.5881 -1.2026  2.6023
 7528WAT     H230819   1.872   1.915   0.626 -1.1268  2.5060  1.0151
 7528WAT    EPW30820   1.865   1.923   0.548  0.0406  0.0610 -0.0254
 7529WAT      O30821   5.311   6.896   2.522  0.2673 -0.4010  0.5656
 7529WAT     H130822   5.346   6.932   2.451  0.6270 -2.2203 -0.2173
 7529WAT     H230823   5.314   6.960   2.581  0.8013  0.8601 -0.7790
 7529WAT    EPW30824   5.316   6.911   2.521 -0.2976 -0.0391  0.4611
 7530WAT      O30825   4.624   4.099   5.002 -0.3579 -0.0808  0.0915
 7530WAT     H130826   4.610   4.089   4.916  0.1790 -0.3899  0.0391
 7530WAT     H230827   4.646   4.019   5.028  0.1046  0.1499  0.4053
 7530WAT    EPW30828   4.625   4.086   4.993 -0.5960 -0.6808  0.2058
 7531WAT      O30829   3.254   0.591   4.980  0.1055  0.5255  0.4285
 7531WAT     H130830   3.241   0.669   5.017  0.6409  2.0093 -2.2586
 7531WAT     H230831   3.292   0.544   5.043  1.5189  3.0240  1.5684
 7531WAT    EPW30832   3.258   0.596   4.995  0.5071  0.4278  0.0997
 7532WAT      O30833   4.998   1.930   0.869  0.5135  0.3440  0.3192
 7532WAT     H130834   5.041   2.000   0.839  0.2057 -0.2864 -1.7458
 7532WAT     H230835   4.929   1.925   0.816  0.0656 -1.0101  1.0008
 7532WAT    EPW30836   4.994   1.940   0.856  0.3364  0.4950  0.8947
 7533WAT      O30837   3.378   5.241   5.856 -0.2220  0.2572  0.2562
 7533WAT     H130838   3.439   5.276   5.803 -1.0488  0.9029 -0.2968
 7533WAT     H230839   3.417   5.170   5.888  0.2110 -0.3300 -1.4560
 7533WAT    EPW30840   3.393   5.236   5.853 -0.0156  0.1602  0.0497
 7534WAT      O30841   4.166   6.023   5.673 -0.0572  0.8110 -0.0578
 7534WAT     H130842   4.251   6.028   5.693 -0.1550  0.6864  0.4116
 7534WAT     H230843   4.162   5.954   5.619  0.2409  1.2694 -0.6688
 7534WAT    EPW30844   4.178   6.013   5.668 -1.2169 -0.0914  0.1906
 7535WAT      O30845   7.906   4.626   1.432  0.1636  0.0505  0.0702
 7535WAT     H130846   7.843   4.682   1.454  0.8263  0.6459  0.4911
 7535WAT     H230847   7.908   4.631   1.344 -1.4804 -1.2279 -0.0918
 7535WAT    EPW30848   7.897   4.635   1.422  0.2804 -0.3517  0.2110
 7536WAT      O30849   4.248   5.710   7.976  0.4109 -0.5647  0.5433
 7536WAT     H130850   4.186   5.768   7.955  2.0552  1.3260  0.6308
 7536WAT     H230851   4.288   5.696   7.900 -1.1238 -3.2166  0.0734
 7536WAT    EPW30852   4.244   5.716   7.961  0.0075  0.0934 -0.2134
 7537WAT      O30853   1.010   1.152   1.460  0.5114 -0.4680 -0.6598
 7537WAT     H130854   1.047   1.189   1.529  0.9090  0.5256 -1.3830
 7537WAT     H230855   0.943   1.206   1.442  0.4636 -0.6680 -1.0924
 7537WAT    EPW30856   1.005   1.166   1.467 -0.1906 -0.5464  0.5908
 7538WAT      O30857   6.389   0.985   5.143 -0.9097  0.3266 -0.6693
 7538WAT     H130858   6.382   0.963   5.059 -1.9965 -0.4536 -0.4025
 7538WAT     H230859   6.343   1.059   5.148 -0.3827  0.6675 -0.8662
 7538WAT    EPW30860   6.381   0.993   5.131 -0.1068 -0.1595  0.3027
 7539WAT      O30861   0.164   1.737   4.489  0.2328  0.5468 -0.0895
 7539WAT     H130862   0.160   1.655   4.519  0.0868  0.6605  0.2067
 7539WAT     H230863   0.232   1.771   4.531  0.8138  0.3324 -0.8348
 7539WAT    EPW30864   0.174   1.730   4.500  0.2309 -0.1305  0.1038
 7540WAT      O30865   7.423   0.060   3.895 -0.3926 -0.2042 -0.0378
 7540WAT     H130866   7.379   0.134   3.879 -0.6217 -0.5238 -0.9250
 7540WAT     H230867   7.421   0.053   3.982 -1.3522  0.2320 -0.0206
 7540WAT    EPW30868   7.416   0.070   3.905  0.2793  0.0347 -0.2809
 7541WAT      O30869   4.922   3.754   6.230 -0.4856  0.5877  0.0938
 7541WAT     H130870   4.886   3.752   6.310 -2.0616  0.8936 -0.5631
 7541WAT     H230871   5.006   3.768   6.246 -0.1927 -2.1863  1.8372
 7541WAT    EPW30872   4.929   3.755   6.244 -0.2790  0.0090  0.0106
 7542WAT      O30873   6.840   1.496   4.847 -0.2594 -0.4454  0.2547
 7542WAT     H130874   6.814   1.466   4.770 -1.2887  1.7078 -0.3023
 7542WAT     H230875   6.920   1.526   4.832 -0.0985 -0.8615  0.2686
 7542WAT    EPW30876   6.848   1.496   4.834 -0.3286 -0.1597 -0.2701
 7543WAT      O30877   4.192   2.408   5.137 -0.2176  0.1057  0.3852
 7543WAT     H130878   4.177   2.398   5.052  1.1170  0.4571  0.0894
 7543WAT     H230879   4.128   2.462   5.163 -1.3790 -0.9874 -0.1054
 7543WAT    EPW30880   4.180   2.415   5.128  0.6276 -1.0394  0.2043
 7544WAT      O30881   1.669   6.886   5.321 -0.6291  0.4631 -0.0569
 7544WAT     H130882   1.668   6.802   5.296 -0.0570  0.3890  0.1395
 7544WAT     H230883   1.720   6.885   5.392 -0.6217  0.9790 -0.0500
 7544WAT    EPW30884   1.677   6.873   5.328  0.1236  0.0422  0.3187
 7545WAT      O30885   3.517   0.146   0.094 -0.2675  0.5184  0.1744
 7545WAT     H130886   3.547   0.113   0.169  1.2320 -1.1542 -1.0811
 7545WAT     H230887   3.573   0.210   0.076 -1.4097  1.8460  1.0775
 7545WAT    EPW30888   3.530   0.150   0.103  0.1926 -0.4444 -0.3792
 7546WAT      O30889   2.811   3.707   0.438 -0.2683  0.2887  0.4417
 7546WAT     H130890   2.851   3.754   0.500 -0.8516  3.5387 -1.4154
 7546WAT     H230891   2.877   3.679   0.389  0.1665 -1.9710  2.1244
 7546WAT    EPW30892   2.827   3.710   0.440 -0.1474 -0.6103  0.2764
 7547WAT      O30893   3.666   4.039   2.522  0.1875 -0.5741  0.0058
 7547WAT     H130894   3.683   4.100   2.583 -1.0041 -0.7073  0.4847
 7547WAT     H230895   3.600   4.073   2.477 -0.7339 -1.6637  0.5120
 7547WAT    EPW30896   3.659   4.053   2.524 -0.7674 -0.2333  0.5701
 7548WAT      O30897   2.777   0.370   5.970 -0.1257  0.5421  0.0609
 7548WAT     H130898   2.808   0.375   5.889 -0.1265 -1.9924 -0.1733
 7548WAT     H230899   2.728   0.298   5.969 -0.0138  0.3597  2.3500
 7548WAT    EPW30900   2.775   0.360   5.958  0.0162  0.0472  0.4696
 7549WAT      O30901   7.741   1.184   0.534  0.7683  1.1046  0.0655
 7549WAT     H130902   7.712   1.236   0.598  0.0334  0.4746  0.2541
 7549WAT     H230903   7.675   1.184   0.476  0.2952 -0.4508  0.5636
 7549WAT    EPW30904   7.727   1.192   0.535  0.8567  0.5464  0.1603
 7550WAT      O30905   4.500   3.471   0.673 -0.0798 -0.5110 -0.1025
 7550WAT     H130906   4.470   3.549   0.699  2.1981 -0.3002  2.3870
 7550WAT     H230907   4.505   3.427   0.748  2.2269 -1.7180 -0.9081
 7550WAT    EPW30908   4.496   3.476   0.688  0.1437 -0.3637  0.5666
 7551WAT      O30909   2.457   7.821   2.363  0.1075 -0.0862  0.3421
 7551WAT     H130910   2.512   7.888   2.377 -1.1165  1.0569 -0.0925
 7551WAT     H230911   2.382   7.849   2.397 -0.8374 -0.5635 -1.2636
 7551WAT    EPW30912   2.454   7.835   2.370  0.4041 -0.3406 -0.3957
 7552WAT      O30913   4.012   7.674   2.975 -0.4199 -0.0755 -0.5813
 7552WAT     H130914   4.074   7.727   3.005 -2.4251  2.1389  0.0302
 7552WAT     H230915   4.011   7.608   3.032  2.2877 -1.0091 -1.4716
 7552WAT    EPW30916   4.021   7.672   2.987 -0.0541 -0.1520 -0.0300
 7553WAT      O30917   1.274   4.626   0.636  0.1721  0.4278  0.3569
 7553WAT     H130918   1.358   4.602   0.635 -0.1504 -0.8453  1.2393
 7553WAT     H230919   1.236   4.564   0.685 -1.2217  1.1761  0.2573
 7553WAT    EPW30920   1.281   4.613   0.643 -0.0918  0.8616 -0.0774
 7554WAT      O30921   1.101   2.202   2.611 -0.1691  0.3087 -0.2219
 7554WAT     H130922   1.173   2.246   2.588 -0.0081 -1.0002 -2.5707
 7554WAT     H230923   1.038   2.240   2.564 -0.1665 -1.3342 -1.6537
 7554WAT    EPW30924   1.102   2.214   2.600  0.0052 -0.3842 -0.0369
 7555WAT      O30925   5.294   4.143   3.504 -0.3026  0.6730 -0.4175
 7555WAT     H130926   5.330   4.184   3.572 -2.5470  1.5354  0.3544
 7555WAT     H230927   5.263   4.070   3.538 -1.1071  0.9293 -0.5871
 7555WAT    EPW30928   5.295   4.138   3.519  0.2037  0.4176 -0.2916
 7556WAT      O30929   6.482   0.730   2.069  0.1490  0.1890 -0.0078
 7556WAT     H130930   6.526   0.761   2.001 -0.8857  2.9385  0.4802
 7556WAT     H230931   6.416   0.786   2.080 -0.9752 -1.3416  1.9709
 7556WAT    EPW30932   6.479   0.743   2.061  0.0991  0.7880  0.3746
 7557WAT      O30933   2.418   1.458   5.580  0.3241 -0.0869  0.1891
 7557WAT     H130934   2.418   1.372   5.567  1.5184 -0.3417  1.6138
 7557WAT     H230935   2.499   1.482   5.557 -0.5459  1.0221 -2.0635
 7557WAT    EPW30936   2.430   1.449   5.575  0.3616 -0.3054  0.3238
 7558WAT      O30937   4.348   2.617   4.678  0.0050  0.0873 -0.0713
 7558WAT     H130938   4.399   2.684   4.654 -0.2503  0.8621  1.4325
 7558WAT     H230939   4.335   2.631   4.763  1.3714 -2.7923  0.7455
 7558WAT    EPW30940   4.354   2.629   4.687 -0.2511 -0.0904  0.4732
 7559WAT      O30941   2.169   1.888   5.779 -0.4385 -0.2890 -0.1760
 7559WAT     H130942   2.129   1.851   5.847  1.5364  0.5215  1.5610
 7559WAT     H230943   2.219   1.823   5.747 -0.8615 -0.4896 -0.4365
 7559WAT    EPW30944   2.171   1.873   5.784 -0.4139 -0.1800  0.1435
 7560WAT      O30945   3.713   0.383   2.803  0.2096  0.2878  0.1325
 7560WAT     H130946   3.792   0.359   2.831  0.7450  0.8742 -0.8396
 7560WAT     H230947   3.690   0.318   2.750  1.0287  1.1316 -1.3385
 7560WAT    EPW30948   3.721   0.370   2.799 -0.0663 -0.2646 -0.2593
 7561WAT      O30949   3.313   7.905   1.840  0.0336 -0.1729 -0.0599
 7561WAT     H130950   3.337   7.963   1.901  0.3327  0.2622 -0.5800
 7561WAT     H230951   3.387   7.891   1.795 -0.2737 -0.1834 -0.5680
 7561WAT    EPW30952   3.328   7.911   1.843 -0.1801  0.5644 -0.0764
 7562WAT      O30953   4.156   1.663   3.573  0.2617  0.0978  0.1621
 7562WAT     H130954   4.218   1.671   3.512 -0.2999 -0.7786 -0.5520
 7562WAT     H230955   4.195   1.692   3.645  1.0720  0.7774 -0.5303
 7562WAT    EPW30956   4.171   1.668   3.575  0.1722 -0.6515  0.8406
 7563WAT      O30957   4.286   2.320   4.684  0.3266  0.6701  0.4801
 7563WAT     H130958   4.265   2.362   4.610  1.7016 -0.5354 -0.6431
 7563WAT     H230959   4.355   2.365   4.714  0.3965  0.5521  0.4945
 7563WAT    EPW30960   4.293   2.333   4.678  0.0970  0.2511 -0.2220
 7564WAT      O30961   4.145   7.713   7.890  0.3084  0.6412 -0.0907
 7564WAT     H130962   4.198   7.782   7.896  0.6294  0.3806  0.1176
 7564WAT     H230963   4.199   7.648   7.868 -0.0102  0.4797 -0.4144
 7564WAT    EPW30964   4.161   7.714   7.887 -1.0038  0.9176 -0.5443
 7565WAT      O30965   6.326   4.007   7.762  0.2377  0.0333  0.2533
 7565WAT     H130966   6.367   3.985   7.689  0.9582  1.8156  0.0690
 7565WAT     H230967   6.387   3.994   7.824 -0.0757 -0.5970  0.4435
 7565WAT    EPW30968   6.341   4.002   7.761 -0.0138 -0.2355  0.1076
 7566WAT      O30969   2.623   2.984   6.211 -0.4537  0.2267  0.5356
 7566WAT     H130970   2.599   2.911   6.253 -1.5988  0.8294  0.9598
 7566WAT     H230971   2.647   2.954   6.132 -2.6456 -0.4539  0.0595
 7566WAT    EPW30972   2.623   2.969   6.206  0.5556  0.2404 -0.1879
 7567WAT      O30973   2.557   0.198   5.965 -0.6787 -0.2985 -0.2989
 7567WAT     H130974   2.488   0.244   5.938 -1.3737 -0.5226  1.0347
 7567WAT     H230975   2.537   0.176   6.047  0.9799 -0.3790  0.1224
 7567WAT    EPW30976   2.544   0.201   5.973  0.2041 -0.0706 -0.2172
 7568WAT      O30977   4.320   2.044   4.626  0.7686  0.0636  0.1418
 7568WAT     H130978   4.302   2.129   4.612  0.7631  0.2739  1.3414
 7568WAT     H230979   4.312   2.009   4.546  2.1912  1.4359 -0.6740
 7568WAT    EPW30980   4.316   2.052   4.612 -0.2805 -0.1633 -0.3034
 7569WAT      O30981   7.322   5.154   1.072 -0.9277 -0.1567 -0.2485
 7569WAT     H130982   7.335   5.088   1.128  0.9380  1.3392  1.2047
 7569WAT     H230983   7.235   5.153   1.059 -0.9273 -3.3200 -0.9400
 7569WAT    EPW30984   7.311   5.144   1.078  0.3974 -0.3532  0.5179
 7570WAT      O30985   6.681   2.616   1.961  0.1978  0.0158  0.2485
 7570WAT     H130986   6.682   2.686   2.013  0.6063  1.0260 -1.0856
 7570WAT     H230987   6.762   2.613   1.928  0.3960 -1.4773  0.7558
 7570WAT    EPW30988   6.693   2.626   1.964 -0.2053 -0.6171 -0.1072
 7571WAT      O30989   4.580   1.199   6.390 -0.0339  0.1455 -0.6718
 7571WAT     H130990   4.602   1.162   6.467  1.3120  1.8688 -0.1693
 7571WAT     H230991   4.601   1.137   6.332  0.2595 -0.6681  0.2609
 7571WAT    EPW30992   4.587   1.184   6.393 -0.4186  0.0215 -0.0545
 7572WAT      O30993   4.828   6.695   2.568 -0.1240 -0.3296  0.6186
 7572WAT     H130994   4.875   6.678   2.640 -1.2401  1.4806  1.8470
 7572WAT     H230995   4.886   6.732   2.514  0.5812 -1.1181  0.8066
 7572WAT    EPW30996   4.844   6.698   2.570  0.1329  0.1287 -0.0381
 7573WAT      O30997   4.093   0.422   4.576 -0.6925 -0.4970 -0.1986
 7573WAT     H130998   4.175   0.410   4.550  0.3462  1.1150  1.9598
 7573WAT     H230999   4.061   0.341   4.585  0.1085 -1.1436 -2.4145
 7573WAT    EPW31000   4.100   0.409   4.573 -0.2604 -0.1537  0.2992
 7574WAT      O31001   3.147   1.703   6.961  0.3897 -0.2403  0.3628
 7574WAT     H131002   3.080   1.704   6.906  0.0416  2.6876  0.7132
 7574WAT     H231003   3.207   1.655   6.920 -0.6773 -0.0264 -1.5202
 7574WAT    EPW31004   3.146   1.696   6.947 -0.2820 -0.3476  0.2365
 7575WAT      O31005   6.218   1.680   1.262  0.4213 -0.5946  0.0787
 7575WAT     H131006   6.277   1.663   1.200  0.4545 -0.4906  0.0813
 7575WAT     H231007   6.267   1.705   1.330  0.3240  1.2834 -0.4741
 7575WAT    EPW31008   6.234   1.682   1.263  0.2530  0.3411 -0.1437
 7576WAT      O31009   2.295   5.927   6.121  0.1732 -0.0571 -0.2124
 7576WAT     H131010   2.241   5.914   6.188  1.2425 -0.0702  0.6691
 7576WAT     H231011   2.323   6.008   6.133 -0.7111  0.4639 -1.4679
 7576WAT    EPW31012   2.291   5.937   6.133 -0.7482 -0.1557 -0.6081
 7577WAT      O31013   4.159   7.467   6.211  0.0025 -0.2451  0.1560
 7577WAT     H131014   4.159   7.548   6.179  0.1716 -0.1084  0.4928
 7577WAT     H231015   4.075   7.451   6.227  0.0277  0.1219  0.7096
 7577WAT    EPW31016   4.147   7.477   6.209  0.3496 -0.2603 -0.2729
 7578WAT      O31017   3.379   0.338   5.584 -0.5132  0.2501  0.3428
 7578WAT     H131018   3.306   0.297   5.608 -0.5221  0.0416 -0.0323
 7578WAT     H231019   3.437   0.314   5.644 -0.4924 -0.3895  0.0717
 7578WAT    EPW31020   3.377   0.329   5.596  0.0901  0.9036  0.0708
 7579WAT      O31021   5.562   3.432   5.485  0.1026  0.4273  0.6419
 7579WAT     H131022   5.549   3.516   5.463  0.2262  0.0639 -0.9188
 7579WAT     H231023   5.483   3.396   5.475  0.7467 -0.4112 -2.5249
 7579WAT    EPW31024   5.548   3.439   5.480 -0.1487 -0.0044 -0.2384
 7580WAT      O31025   4.155   1.238   8.019 -0.4996 -0.1598  0.4490
 7580WAT     H131026   4.168   1.166   7.973  0.5853  0.1316  0.2684
 7580WAT     H231027   4.078   1.268   7.990 -1.3626 -1.6479  1.1130
 7580WAT    EPW31028   4.146   1.232   8.008 -0.5464  0.0844 -0.1154
 7581WAT      O31029   1.103   3.004   3.465  0.0684 -0.5920  0.3660
 7581WAT     H131030   1.144   3.009   3.388  0.4016  1.6428  0.6092
 7581WAT     H231031   1.112   2.920   3.487  1.6928 -0.8900 -1.1081
 7581WAT    EPW31032   1.111   2.992   3.457  0.3973 -0.7475  0.2761
 7582WAT      O31033   2.175   4.343   6.786 -0.0460  0.4234  0.1829
 7582WAT     H131034   2.258   4.315   6.778  0.5496  1.4913  1.8703
 7582WAT     H231035   2.161   4.389   6.713  0.9097  0.3233 -0.0750
 7582WAT    EPW31036   2.185   4.346   6.774 -0.3906 -0.2169 -0.1762
 7583WAT      O31037   6.232   2.207   3.666  0.1024  0.4219  0.5313
 7583WAT     H131038   6.287   2.275   3.660  0.9826 -0.2879  0.4133
 7583WAT     H231039   6.264   2.150   3.608 -0.7552 -0.0092  0.4721
 7583WAT    EPW31040   6.245   2.209   3.656  0.2836 -0.2972 -0.7157
 7584WAT      O31041   0.732   3.089   3.637 -0.4175  0.3702 -0.1228
 7584WAT     H131042   0.655   3.049   3.628 -1.2980  2.0875 -0.5571
 7584WAT     H231043   0.753   3.111   3.555 -0.5092  1.7469  0.2008
 7584WAT    EPW31044   0.724   3.086   3.623 -0.1043  0.5448  0.2873
 7585WAT      O31045   5.017   7.437   2.325  0.6867  0.4451 -0.2697
 7585WAT     H131046   5.042   7.383   2.389  2.2730 -0.0267 -1.2322
 7585WAT     H231047   4.956   7.487   2.363  0.5668 -0.7292  1.1960
 7585WAT    EPW31048   5.011   7.436   2.340  0.4603 -0.2651 -0.1834
 7586WAT      O31049   2.807   5.766   1.070 -0.0284  0.4252  0.0612
 7586WAT     H131050   2.851   5.780   0.996  0.7877 -0.0189  0.4539
 7586WAT     H231051   2.732   5.731   1.043 -0.0941  1.0587 -0.6063
 7586WAT    EPW31052   2.802   5.763   1.055  0.1430 -0.2053  0.0852
 7587WAT      O31053   4.117   3.221   7.943  0.3610  0.3884 -0.2194
 7587WAT     H131054   4.061   3.238   7.878 -1.2913 -0.1303  1.0102
 7587WAT     H231055   4.140   3.138   7.928 -0.2161  0.1872  0.0022
 7587WAT    EPW31056   4.112   3.211   7.931 -0.6204 -0.3193 -0.1381
 7588WAT      O31057   3.042   1.888   0.055 -0.0258 -0.0777  0.7760
 7588WAT     H131058   3.092   1.953   0.026 -1.5581  1.6651  1.8265
 7588WAT     H231059   3.034   1.835  -0.015  1.9481  0.3560  0.1469
 7588WAT    EPW31060   3.048   1.890   0.040 -0.0671 -0.4974  0.5182
 7589WAT      O31061   4.823   0.244   6.178  0.3667 -0.3308  0.3907
 7589WAT     H131062   4.778   0.186   6.130  1.1361 -1.0519  0.5149
 7589WAT     H231063   4.883   0.195   6.218  0.7714  0.5024  0.8270
 7589WAT    EPW31064   4.825   0.228   6.176 -0.0872 -0.3682 -0.3896
 7590WAT      O31065   4.583   5.204   5.505 -0.0683 -0.4033 -0.0998
 7590WAT     H131066   4.666   5.222   5.484  0.0715  0.3912  1.0166
 7590WAT     H231067   4.540   5.277   5.485  0.0612  0.3738  2.1595
 7590WAT    EPW31068   4.589   5.217   5.499 -0.2513 -0.2958 -0.4373
 7591WAT      O31069   2.129   0.797   3.323 -0.0689  0.2076  0.8724
 7591WAT     H131070   2.061   0.753   3.355  0.7111 -0.6944  1.3311
 7591WAT     H231071   2.195   0.770   3.372  0.5368  1.4803  0.7897
 7591WAT    EPW31072   2.128   0.787   3.335 -0.2967 -0.7758  0.5379
 7592WAT      O31073   2.222   3.936   1.087  0.7057  0.0947 -0.4920
 7592WAT     H131074   2.288   3.974   1.045  1.2970 -1.7989 -1.3971
 7592WAT     H231075   2.191   3.878   1.029 -0.7386 -0.1671  0.4682
 7592WAT    EPW31076   2.227   3.933   1.072  0.2566  0.2147 -0.0738
 7593WAT      O31077   6.178   3.382   6.278  0.4045  0.3955 -0.0804
 7593WAT     H131078   6.139   3.315   6.317  1.9725 -1.0426 -0.8234
 7593WAT     H231079   6.188   3.441   6.341 -0.2739 -0.4036  0.7928
 7593WAT    EPW31080   6.174   3.381   6.293 -0.2104 -0.1466  0.7545
 7594WAT      O31081   2.511   7.914   6.672 -0.0716  0.0049  0.7166
 7594WAT     H131082   2.493   7.841   6.716 -1.5280 -0.8125 -1.1264
 7594WAT     H231083   2.585   7.895   6.630 -1.3618 -1.1548 -1.1644
 7594WAT    EPW31084   2.520   7.901   6.672  0.3234 -0.1954  0.1827
 7595WAT      O31085   5.869   5.513   7.612  0.1349  0.2697  0.0009
 7595WAT     H131086   5.902   5.570   7.556  0.2880  0.0729 -0.1103
 7595WAT     H231087   5.935   5.496   7.666  0.2850 -0.2819 -0.3469
 7595WAT    EPW31088   5.883   5.519   7.612  0.6199  0.3619  0.4199
 7596WAT      O31089   2.766   1.083   2.034 -0.4102  0.3583 -0.5359
 7596WAT     H131090   2.710   1.145   2.008 -0.2635 -0.0755 -1.9406
 7596WAT     H231091   2.838   1.129   2.054 -1.0392  0.8609  0.7773
 7596WAT    EPW31092   2.769   1.099   2.033 -0.3024  0.6326 -0.3259
 7597WAT      O31093   2.034   1.503   5.412  0.4557  0.4211 -0.0451
 7597WAT     H131094   2.117   1.483   5.394  0.4771 -0.5986  1.0697
 7597WAT     H231095   2.033   1.510   5.499 -0.8175 -0.5463  0.0497
 7597WAT    EPW31096   2.046   1.501   5.422  0.5432  0.8275  0.5504
 7598WAT      O31097   1.686   0.108   5.074  0.5496  0.1695 -0.4050
 7598WAT     H131098   1.624   0.156   5.036  0.1569 -1.8052 -2.4873
 7598WAT     H231099   1.646   0.074   5.143  0.3169  1.3763  0.0829
 7598WAT    EPW31100   1.671   0.110   5.079  1.0178 -0.6966 -0.1737
 7599WAT      O31101   2.446   7.424   0.880 -0.2092  0.0612  0.6718
 7599WAT     H131102   2.389   7.480   0.914 -1.3403 -1.9462  2.3140
 7599WAT     H231103   2.476   7.381   0.949  0.8642 -1.1347 -0.4897
 7599WAT    EPW31104   2.442   7.426   0.895  0.3567  0.0952 -0.4586
 7600WAT      O31105   0.167   4.916   2.230  0.6698  0.2952 -0.1021
 7600WAT     H131106   0.164   4.966   2.301 -0.4517  1.1160 -0.6924
 7600WAT     H231107   0.093   4.870   2.234  0.5687  0.3858 -0.7439
 7600WAT    EPW31108   0.155   4.917   2.241  0.0049 -0.3073 -0.2654
 7601WAT      O31109   3.424   2.085   6.307  0.7254  0.1257 -0.1028
 7601WAT     H131110   3.347   2.122   6.324  0.3676 -0.4457 -0.4331
 7601WAT     H231111   3.431   2.024   6.369  0.4598 -0.4576 -0.6271
 7601WAT    EPW31112   3.414   2.081   6.319  0.3936 -0.2923  0.6631
 7602WAT      O31113   3.854   5.835  -0.013 -0.0324 -0.3236  0.4171
 7602WAT     H131114   3.770   5.850  -0.028  0.2748  1.8362  0.5322
 7602WAT     H231115   3.857   5.811   0.071 -0.4898 -0.0030  0.5274
 7602WAT    EPW31116   3.842   5.833  -0.003 -0.5184 -0.3208  0.1954
 7603WAT      O31117   1.167   1.832   1.301 -0.1677 -0.1780 -0.3871
 7603WAT     H131118   1.206   1.793   1.233  0.6486 -0.8895  0.4701
 7603WAT     H231119   1.109   1.773   1.328  0.6321 -0.5712  0.5195
 7603WAT    EPW31120   1.165   1.818   1.295 -0.0460 -0.6385 -0.8810
 7604WAT      O31121   2.675   1.018   5.958 -0.2922 -0.5358  0.1686
 7604WAT     H131122   2.710   1.021   5.878  1.5582 -0.7300  0.9149
 7604WAT     H231123   2.738   1.052   6.008 -1.8476  0.6054  1.4280
 7604WAT    EPW31124   2.690   1.024   5.953  0.2501  0.0369 -0.4181
 7605WAT      O31125   3.157   1.338   7.816  0.4109 -0.4122  0.3922
 7605WAT     H131126   3.172   1.275   7.875 -0.5310  0.2548  1.3654
 7605WAT     H231127   3.214   1.320   7.752  1.1353 -1.4206  1.2941
 7605WAT    EPW31128   3.168   1.326   7.815 -0.3076 -0.0789  0.5141
 7606WAT      O31129   0.319   2.825   4.852  0.0346  0.6240 -0.0761
 7606WAT     H131130   0.279   2.886   4.804 -0.7996 -1.0239 -1.5868
 7606WAT     H231131   0.293   2.843   4.934 -1.5638  1.2770 -0.6905
 7606WAT    EPW31132   0.310   2.836   4.857 -0.1286 -0.1368  0.4687
 7607WAT      O31133   3.329   2.931   7.505 -0.4118 -0.4697  0.0225
 7607WAT     H131134   3.261   2.969   7.464  0.9419  2.2283  0.0751
 7607WAT     H231135   3.390   2.926   7.443 -0.1511 -1.5376  0.3432
 7607WAT    EPW31136   3.328   2.936   7.490  0.4213 -0.1311  0.1351
 7608WAT      O31137   3.479   6.901   6.861 -0.0130  0.3511 -0.8640
 7608WAT     H131138   3.553   6.860   6.839 -0.3720 -0.2333 -1.0209
 7608WAT     H231139   3.492   6.983   6.834  0.2857  0.0812 -1.5717
 7608WAT    EPW31140   3.492   6.907   6.854  0.2153 -0.1262 -0.9288
 7609WAT      O31141   3.736   0.172   7.537  0.4559  0.3219 -0.2623
 7609WAT     H131142   3.716   0.146   7.618 -0.3206 -2.3366 -1.1844
 7609WAT     H231143   3.823   0.172   7.538  0.5481 -2.2411 -0.0155
 7609WAT    EPW31144   3.746   0.168   7.549 -0.1952  0.3256  0.2864
 7610WAT      O31145   6.786   0.803   0.784 -0.5401 -0.1516 -0.0251
 7610WAT     H131146   6.803   0.825   0.867 -0.0365  0.8251 -0.3770
 7610WAT     H231147   6.833   0.730   0.772  2.2546  1.5769 -0.4830
 7610WAT    EPW31148   6.795   0.796   0.795  0.0915 -1.0462  0.5749
 7611WAT      O31149   6.111   7.176   0.791 -0.2659 -0.0952 -0.2367
 7611WAT     H131150   6.122   7.209   0.871  0.3822 -0.8636  0.0104
 7611WAT     H231151   6.106   7.090   0.805  0.5510 -0.2988 -1.0747
 7611WAT    EPW31152   6.112   7.168   0.805  0.2337 -0.5851  0.3258
 7612WAT      O31153   4.987   4.809   7.064  0.0865  0.1123  0.1748
 7612WAT     H131154   4.968   4.784   7.146  0.2345 -0.9767 -0.1069
 7612WAT     H231155   5.074   4.816   7.064  0.0685  0.3599  0.1672
 7612WAT    EPW31156   4.997   4.806   7.076  0.3647  0.5255  0.1383
 7613WAT      O31157   5.498   2.690   0.287  0.9001  0.1161 -0.2214
 7613WAT     H131158   5.460   2.686   0.209  0.4339 -0.5196  0.0292
 7613WAT     H231159   5.530   2.771   0.290 -0.0737  0.5316 -0.6131
 7613WAT    EPW31160   5.497   2.701   0.276 -0.1202 -0.2186 -0.2227
 7614WAT      O31161   4.373   6.321   1.460  0.2968  0.3772  0.0626
 7614WAT     H131162   4.373   6.289   1.379 -1.4683  0.8491 -0.1537
 7614WAT     H231163   4.362   6.251   1.511  0.5439  0.1805 -0.1558
 7614WAT    EPW31164   4.372   6.306   1.456  0.0066  0.2332 -0.3296
 7615WAT      O31165   5.332   0.786   4.824 -0.2682 -0.0613  0.3100
 7615WAT     H131166   5.337   0.873   4.826 -0.5809 -0.0524  0.9181
 7615WAT     H231167   5.389   0.760   4.884 -0.3537 -0.2721  0.3032
 7615WAT    EPW31168   5.341   0.795   4.833 -0.3070 -0.0736  0.0811
 7616WAT      O31169   6.328   2.957   5.689  0.9187 -0.4205 -0.1530
 7616WAT     H131170   6.288   3.024   5.727  2.3301 -0.1232  0.9201
 7616WAT     H231171   6.377   2.994   5.627 -0.0451 -0.7287 -1.1285
 7616WAT    EPW31172   6.329   2.972   5.686 -0.9546 -0.2488 -0.3261
 7617WAT      O31173   3.400   2.683   7.293 -0.4658 -0.1530  0.3815
 7617WAT     H131174   3.352   2.656   7.361  1.0715  1.7249  2.4026
 7617WAT     H231175   3.407   2.613   7.243 -3.3541 -1.1049  1.1278
 7617WAT    EPW31176   3.394   2.669   7.296  0.4488  0.1084  0.2696
 7618WAT      O31177   2.058   1.206   5.259  0.3366 -0.1363  0.4379
 7618WAT     H131178   2.016   1.277   5.288  0.4110  0.0500  0.0982
 7618WAT     H231179   2.099   1.176   5.330 -0.5149 -0.4293  0.8204
 7618WAT    EPW31180   2.058   1.212   5.274  0.4691  0.2268  0.4053
 7619WAT      O31181   3.855   2.742   1.949  0.0090  0.4568  0.4301
 7619WAT     H131182   3.919   2.700   1.991 -0.0750  0.1667  0.2679
 7619WAT     H231183   3.799   2.762   2.013 -1.3134 -2.0874  0.1939
 7619WAT    EPW31184   3.856   2.739   1.965 -0.2718  0.1822 -0.1115
 7620WAT      O31185   1.729   3.985   6.840 -0.3595  0.0796  0.8371
 7620WAT     H131186   1.738   4.070   6.819 -1.5415 -0.1270 -0.7465
 7620WAT     H231187   1.724   3.946   6.762  0.0013 -1.4383  1.5555
 7620WAT    EPW31188   1.729   3.992   6.825 -0.0212  0.1031 -0.2256
 7621WAT      O31189   4.641   3.292   4.371  0.3394 -0.2039  0.2627
 7621WAT     H131190   4.604   3.352   4.423 -0.0688  0.7828 -1.0860
 7621WAT     H231191   4.612   3.216   4.403 -0.2616  0.3946  1.1822
 7621WAT    EPW31192   4.631   3.290   4.383 -0.1050 -0.0706 -0.2522
 7622WAT      O31193   1.813   6.069   5.069 -0.0880  0.5569 -0.1233
 7622WAT     H131194   1.813   6.033   5.149 -0.0529 -0.3455 -0.5112
 7622WAT     H231195   1.833   6.002   5.017  2.6017  1.6511 -0.6651
 7622WAT    EPW31196   1.816   6.053   5.073  0.2864  0.2008 -0.9294
 7623WAT      O31197   6.179   3.368   0.335  0.7069 -0.5591  0.3172
 7623WAT     H131198   6.162   3.338   0.415  0.3727 -1.8747 -0.2149
 7623WAT     H231199   6.241   3.315   0.306  0.9964  0.0561 -0.2226
 7623WAT    EPW31200   6.186   3.356   0.342  0.0218  0.7874 -0.1493
 7624WAT      O31201   2.056   3.182   6.428 -0.3892 -0.0491  0.6186
 7624WAT     H131202   2.118   3.243   6.423 -0.0331 -0.4829 -0.8462
 7624WAT     H231203   2.079   3.135   6.498  2.3007 -1.5405 -1.0909
 7624WAT    EPW31204   2.069   3.184   6.437  0.1474  0.5915 -0.3713
 7625WAT      O31205   1.964   5.986   5.871 -0.6819 -0.5789  0.1851
 7625WAT     H131206   1.903   5.947   5.921 -1.8135 -0.3644 -0.9583
 7625WAT     H231207   2.021   5.922   5.856 -0.8458 -0.9181  0.9197
 7625WAT    EPW31208   1.963   5.971   5.876 -0.2124 -0.3778  0.2190
 7626WAT      O31209   3.690   5.011   1.554 -0.3237 -0.1238 -0.0674
 7626WAT     H131210   3.698   4.970   1.630 -0.0682 -0.5992 -0.3454
 7626WAT     H231211   3.608   4.992   1.529  0.1690 -1.4757 -0.7570
 7626WAT    EPW31212   3.679   5.002   1.561  0.0058  0.4202  0.3281
 7627WAT      O31213   7.646   3.206   4.447 -0.1973  0.0924 -0.0858
 7627WAT     H131214   7.712   3.187   4.501  0.3870  1.3114 -0.3345
 7627WAT     H231215   7.587   3.144   4.464  2.1040 -2.8747 -1.8991
 7627WAT    EPW31216   7.647   3.194   4.458  0.0781 -0.4330  0.8788
 7628WAT      O31217   2.381   2.919   5.877 -0.5290 -0.4541 -0.2716
 7628WAT     H131218   2.346   2.986   5.835  1.2235  0.1664 -0.8326
 7628WAT     H231219   2.447   2.894   5.826  0.1270 -1.2741  0.9063
 7628WAT    EPW31220   2.386   2.925   5.864  0.2238 -0.5349 -0.3404
 7629WAT      O31221   5.323   3.498   4.297  0.1579 -0.1191  0.2411
 7629WAT     H131222   5.387   3.477   4.241  0.1853  0.9891 -0.1623
 7629WAT     H231223   5.356   3.565   4.342 -1.6658  2.4639 -1.9188
 7629WAT    EPW31224   5.337   3.505   4.295  0.9142  0.3676  0.1489
 7630WAT      O31225   4.420   6.494   3.654  0.2468 -0.0476 -0.1672
 7630WAT     H131226   4.356   6.522   3.706  0.6306 -0.8345  0.7468
 7630WAT     H231227   4.486   6.548   3.671  0.7003 -0.9252  0.9370
 7630WAT    EPW31228   4.420   6.506   3.664 -0.2046 -0.6629 -0.4463
 7631WAT      O31229   3.945   6.057   5.283  0.1389  0.2564 -0.1378
 7631WAT     H131230   3.937   5.976   5.252 -0.7371 -0.4886  1.8420
 7631WAT     H231231   3.863   6.084   5.291  0.4372  1.4624 -1.0103
 7631WAT    EPW31232   3.932   6.049   5.280  0.9916 -0.2216  0.1676
 7632WAT      O31233   3.637   4.603   6.725 -0.1599 -0.0123  0.0283
 7632WAT     H131234   3.606   4.683   6.742 -0.8357 -0.5344  1.3706
 7632WAT     H231235   3.723   4.615   6.722 -0.1401  0.5590  1.6810
 7632WAT    EPW31236   3.645   4.616   6.727  0.2912 -0.0267 -0.2647
 7633WAT      O31237   4.352   2.643   5.902  0.1981 -0.5620 -0.1278
 7633WAT     H131238   4.385   2.719   5.874 -0.4341 -0.6519 -1.1534
 7633WAT     H231239   4.310   2.612   5.833 -1.0396 -1.0126  0.7982
 7633WAT    EPW31240   4.351   2.650   5.888 -0.0224  0.0824 -0.1918
 7634WAT      O31241   5.342   4.238   6.154 -0.1249 -0.3452 -0.0698
 7634WAT     H131242   5.418   4.277   6.174 -0.0119 -0.0675 -1.0178
 7634WAT     H231243   5.338   4.243   6.067 -1.0757 -0.6614 -0.0560
 7634WAT    EPW31244   5.352   4.244   6.144  0.0106 -0.7871 -0.1153
 7635WAT      O31245   2.745   0.934   2.283 -0.3674  0.5126 -0.8795
 7635WAT     H131246   2.747   0.953   2.198 -1.0754  0.5460 -0.8946
 7635WAT     H231247   2.750   0.847   2.284 -0.0822  0.5283 -0.9434
 7635WAT    EPW31248   2.746   0.924   2.271 -0.0216  0.2602  0.1186
 7636WAT      O31249   3.486   1.792   7.303 -0.1281  0.1057  0.2194
 7636WAT     H131250   3.489   1.705   7.297  1.4164  0.1168  0.2915
 7636WAT     H231251   3.476   1.818   7.220  2.4916 -0.1303 -0.2633
 7636WAT    EPW31252   3.485   1.783   7.290  0.4380 -0.2709 -0.0710
 7637WAT      O31253   3.416   4.491   2.940 -0.4416  0.1624 -0.3691
 7637WAT     H131254   3.459   4.417   2.925 -0.3805  0.1146  0.0408
 7637WAT     H231255   3.467   4.534   2.996 -0.9326  0.0961  0.1397
 7637WAT    EPW31256   3.430   4.487   2.946 -0.0264  0.0771 -0.6648
 7638WAT      O31257   4.347   3.336   1.575 -0.4816 -0.6371 -0.3332
 7638WAT     H131258   4.360   3.409   1.620 -1.2660 -0.0175 -1.0728
 7638WAT     H231259   4.374   3.273   1.629 -1.5211  0.0634  1.0703
 7638WAT    EPW31260   4.353   3.337   1.590  0.3131 -0.0107  0.2231
 7639WAT      O31261   1.886   0.271   3.741  0.3402  0.2317 -0.4059
 7639WAT     H131262   1.940   0.204   3.756 -1.2456 -0.8278  0.9535
 7639WAT     H231263   1.868   0.300   3.821 -0.6217  0.9491 -0.8712
 7639WAT    EPW31264   1.891   0.265   3.755 -0.5317 -0.4282 -0.2106
 7640WAT      O31265   4.109   2.732   3.529  0.1036 -0.5910 -0.0986
 7640WAT     H131266   4.149   2.785   3.472 -0.1754  1.0936  1.1865
 7640WAT     H231267   4.109   2.778   3.603 -1.5484 -1.7809  0.6984
 7640WAT    EPW31268   4.115   2.747   3.532 -0.6411  0.1569 -0.3984
 7641WAT      O31269   1.260   4.688   2.800 -0.3916 -0.1081  0.4761
 7641WAT     H131270   1.270   4.684   2.714  1.8431 -1.0552  0.7101
 7641WAT     H231271   1.288   4.610   2.827  0.1059  0.6121  2.1578
 7641WAT    EPW31272   1.265   4.676   2.792 -0.6264 -0.2304  0.3690
 7642WAT      O31273   5.739   1.259   0.031 -0.1082  0.1648  0.3163
 7642WAT     H131274   5.757   1.197   0.089 -0.4044 -0.2449 -0.0233
 7642WAT     H231275   5.803   1.252  -0.027  0.3724  0.7925  0.7569
 7642WAT    EPW31276   5.751   1.249   0.031  0.2571  0.2870 -0.6766
 7643WAT      O31277   6.546   1.858   1.078  0.0428  0.5598  0.0046
 7643WAT     H131278   6.506   1.785   1.103  2.1028 -0.5256  0.3123
 7643WAT     H231279   6.484   1.900   1.032 -1.3976 -1.0356  0.3682
 7643WAT    EPW31280   6.531   1.854   1.075 -0.0155  0.6783  0.0026
 7644WAT      O31281   5.388   4.455   3.558 -0.1302  0.6253 -0.6241
 7644WAT     H131282   5.363   4.404   3.624  0.3996  0.5961 -0.4407
 7644WAT     H231283   5.474   4.443   3.555 -0.0269  1.3692 -0.7007
 7644WAT    EPW31284   5.397   4.445   3.567 -0.9513 -0.4183 -0.7689
 7645WAT      O31285   2.348   2.240   2.972 -0.1671 -0.4704 -0.0083
 7645WAT     H131286   2.382   2.307   2.928 -0.6903  0.9135  1.5825
 7645WAT     H231287   2.408   2.222   3.033 -1.1173  0.3197  1.2103
 7645WAT    EPW31288   2.362   2.247   2.974  0.1337 -0.4314 -0.4580
 7646WAT      O31289   2.448   7.559   3.289 -0.6517 -0.5778 -0.2151
 7646WAT     H131290   2.509   7.513   3.331  0.2739 -0.6787 -1.6385
 7646WAT     H231291   2.410   7.501   3.236 -0.6259 -0.0811 -0.7894
 7646WAT    EPW31292   2.451   7.544   3.288  0.0530 -0.2934  0.6118
 7647WAT      O31293   5.662   4.562   5.316 -0.0398 -0.3286  0.2996
 7647WAT     H131294   5.586   4.561   5.273  0.1010 -0.2223  0.0438
 7647WAT     H231295   5.644   4.519   5.390  0.1972 -2.2579 -0.7037
 7647WAT    EPW31296   5.648   4.555   5.321 -0.0165  0.4369 -0.0218
 7648WAT      O31297   4.255   4.072   5.444  0.4817  0.0678 -0.0241
 7648WAT     H131298   4.210   4.123   5.389 -0.6934 -0.1447  0.7113
 7648WAT     H231299   4.203   4.003   5.455  0.5336  0.2580  1.6084
 7648WAT    EPW31300   4.241   4.069   5.437  0.3648  0.9015  0.5813
 7649WAT      O31301   2.073   3.167   7.185  0.1563  0.7184 -0.1519
 7649WAT     H131302   2.035   3.218   7.245  0.7768  0.1644  0.7407
 7649WAT     H231303   2.158   3.169   7.207  0.4192  0.6488 -1.1260
 7649WAT    EPW31304   2.080   3.175   7.197  0.8140  0.4567 -0.1224
 7650WAT      O31305   5.271   6.460   4.026  0.2870  0.2223 -0.8924
 7650WAT     H131306   5.193   6.486   3.996  0.6798 -0.0793 -2.2575
 7650WAT     H231307   5.299   6.404   3.965  1.7961  0.7115 -0.6904
 7650WAT    EPW31308   5.263   6.455   4.013 -0.1864 -0.2252  0.1823
 7651WAT      O31309   4.251   2.606   4.943  0.0127 -0.3028 -0.1373
 7651WAT     H131310   4.192   2.658   4.981 -0.2541  0.2669 -1.2978
 7651WAT     H231311   4.310   2.594   5.006 -0.3437  0.7172  0.4224
 7651WAT    EPW31312   4.251   2.612   4.958 -0.2961  0.2347 -0.5510
 7652WAT      O31313   4.670   1.821   2.787  0.0057 -0.1263 -0.1205
 7652WAT     H131314   4.703   1.895   2.820  1.1215 -0.2900 -0.7885
 7652WAT     H231315   4.695   1.824   2.703 -0.7601 -0.8113 -0.3802
 7652WAT    EPW31316   4.679   1.832   2.780  0.7023 -0.5844 -0.3196
 7653WAT      O31317   2.771   4.590   1.739 -0.2592 -0.0495 -0.0168
 7653WAT     H131318   2.780   4.628   1.817  0.0943  0.7107 -0.4131
 7653WAT     H231319   2.842   4.614   1.696 -1.5275  1.5253 -1.3605
 7653WAT    EPW31320   2.783   4.599   1.744  0.1384 -0.0104  0.1107
 7654WAT      O31321   1.515   6.225   7.863  0.0747  0.6671 -0.2099
 7654WAT     H131322   1.526   6.279   7.795  1.2937  0.4113 -0.2296
 7654WAT     H231323   1.590   6.231   7.907  0.1862 -0.8898 -0.1373
 7654WAT    EPW31324   1.528   6.234   7.859  0.0314  0.1544 -0.1802
 7655WAT      O31325   4.581   1.733   1.494 -0.3877 -0.3973 -0.2024
 7655WAT     H131326   4.552   1.671   1.439 -0.2618 -1.6848  1.1103
 7655WAT     H231327   4.664   1.711   1.509  0.3678  1.4133 -1.4318
 7655WAT    EPW31328   4.589   1.720   1.488 -0.1601  0.7282  0.1669
 7656WAT      O31329   1.152   7.968   4.078  1.0922  0.2562  0.3403
 7656WAT     H131330   1.138   7.960   3.992 -1.9023  1.4536  0.5903
 7656WAT     H231331   1.122   7.892   4.110  0.2667  0.6167  0.4497
 7656WAT    EPW31332   1.145   7.955   4.070 -0.2605  0.2407  0.2282
 7657WAT      O31333   3.996   2.913   3.735  0.2453  0.3382 -0.7025
 7657WAT     H131334   4.033   2.975   3.784 -1.5802 -0.4124  1.8360
 7657WAT     H231335   3.911   2.936   3.734 -0.2664 -1.4408 -0.7306
 7657WAT    EPW31336   3.989   2.926   3.742  0.3667  0.2250  0.2298
 7658WAT      O31337   5.200   2.593   2.317  0.4777 -0.0838  0.2471
 7658WAT     H131338   5.287   2.591   2.328  0.4877 -2.0537  0.1377
 7658WAT     H231339   5.170   2.549   2.385 -0.4075  0.0199 -0.0638
 7658WAT    EPW31340   5.209   2.586   2.329 -0.5837  0.0429 -0.5222
 7659WAT      O31341   3.907   2.588   2.429 -0.4543  0.5689 -0.1834
 7659WAT     H131342   3.820   2.589   2.429 -0.4901 -0.6775 -0.8409
 7659WAT     H231343   3.927   2.542   2.501 -0.4971 -2.5201 -1.9636
 7659WAT    EPW31344   3.897   2.581   2.440  0.0789  0.1990 -0.0542
 7660WAT      O31345   4.797   1.545   4.814 -0.0801  0.1427 -0.0580
 7660WAT     H131346   4.833   1.575   4.887  2.1220 -0.2884 -0.8921
 7660WAT     H231347   4.748   1.478   4.840  0.1924  0.3813  1.0843
 7660WAT    EPW31348   4.795   1.540   4.828  0.3309 -0.1949 -0.1546
 7661WAT      O31349   7.302   2.185   3.209  1.0744 -0.0741 -0.7175
 7661WAT     H131350   7.330   2.210   3.287  0.6657 -1.1509 -0.2001
 7661WAT     H231351   7.334   2.245   3.154  1.0912  0.8696  0.3121
 7661WAT    EPW31352   7.310   2.197   3.212  0.4032 -0.0702 -0.1868
 7662WAT      O31353   6.017   1.534   2.419  0.3120  0.0674 -0.1031
 7662WAT     H131354   6.062   1.495   2.356  2.1036  1.5802  0.1559
 7662WAT     H231355   6.049   1.499   2.492  1.2797  1.2893  0.0931
 7662WAT    EPW31356   6.028   1.523   2.421  0.4927 -0.2429  0.3569
 7663WAT      O31357   4.470   0.958   1.856  0.4761 -0.5048 -0.2738
 7663WAT     H131358   4.534   0.962   1.797  1.3167  2.4046  0.6960
 7663WAT     H231359   4.406   1.004   1.820  1.1096  1.5771  1.1015
 7663WAT    EPW31360   4.470   0.965   1.842  0.1416 -0.7229  0.2268
 7664WAT      O31361   2.113   2.434   3.452 -0.0440  0.3528  0.3700
 7664WAT     H131362   2.157   2.368   3.488  0.5676 -0.0751 -1.0787
 7664WAT     H231363   2.171   2.499   3.450 -0.0087  0.3162  0.0263
 7664WAT    EPW31364   2.128   2.434   3.457 -0.7939  0.2656 -0.3412
 7665WAT      O31365   4.207   2.970   1.761  0.5705 -0.3808 -0.2794
 7665WAT     H131366   4.156   3.006   1.821  0.4953  0.0853 -0.6173
 7665WAT     H231367   4.274   3.025   1.755  0.0249  0.1929 -1.4338
 7665WAT    EPW31368   4.209   2.984   1.769  0.3627  0.8701 -0.3492
 7666WAT      O31369   0.979   4.564   2.942 -0.4592 -0.1744  0.0094
 7666WAT     H131370   0.998   4.485   2.909  1.3231  0.2524 -0.0926
 7666WAT     H231371   0.907   4.550   2.989 -0.2811 -1.8356 -0.1529
 7666WAT    EPW31372   0.972   4.550   2.944 -0.3390 -0.0513 -0.3893
 7667WAT      O31373   3.077   7.449   2.003  0.0097  0.2404 -0.6221
 7667WAT     H131374   3.142   7.393   1.990  0.0941 -0.0684  0.9311
 7667WAT     H231375   3.092   7.479   2.084 -0.9801  1.2384 -0.7852
 7667WAT    EPW31376   3.089   7.445   2.013  0.2193 -0.4270  0.3786
 7668WAT      O31377   1.970   7.938   5.588  0.5826  0.2383 -0.2395
 7668WAT     H131378   1.936   7.865   5.621  0.0785  0.3750 -0.4431
 7668WAT     H231379   2.055   7.928   5.600  0.4355  0.2182  0.9847
 7668WAT    EPW31380   1.977   7.926   5.595 -0.9998 -0.2316 -0.2851
 7669WAT      O31381   5.059   7.206   3.054  0.4645  0.7871 -0.1979
 7669WAT     H131382   5.131   7.166   3.024  0.2696  0.8802 -0.8005
 7669WAT     H231383   5.085   7.289   3.063  0.0680  1.1184 -1.7511
 7669WAT    EPW31384   5.074   7.212   3.051 -0.3492 -0.2842 -0.1800
 7670WAT      O31385   4.064   1.519   2.675  0.4753  0.3469  0.7433
 7670WAT     H131386   4.136   1.558   2.644  0.9974 -1.3504 -0.3390
 7670WAT     H231387   4.093   1.472   2.743 -0.6848  4.1479  4.2890
 7670WAT    EPW31388   4.079   1.518   2.680 -0.4100  0.2832  0.5391
 7671WAT      O31389   5.743   6.770   3.380  0.1420 -0.0597 -0.1819
 7671WAT     H131390   5.698   6.812   3.441  0.0332  0.4793 -0.6218
 7671WAT     H231391   5.825   6.798   3.391 -0.0024  0.6229 -0.7532
 7671WAT    EPW31392   5.749   6.781   3.390 -0.5247  0.0107 -0.6848
 7672WAT      O31393   6.300   7.988   5.099  0.1285 -0.2027  0.0274
 7672WAT     H131394   6.363   8.049   5.099  1.0373 -1.0900  1.0744
 7672WAT     H231395   6.254   8.005   5.171 -0.0729 -0.3045 -0.0760
 7672WAT    EPW31396   6.303   8.000   5.110  0.5140 -0.4789  0.1693
 7673WAT      O31397   1.465   1.933   4.077 -0.0774  0.2128  0.1282
 7673WAT     H131398   1.550   1.951   4.088 -0.1608  0.3387  0.5748
 7673WAT     H231399   1.433   1.936   4.158 -0.3024 -0.9275  0.0993
 7673WAT    EPW31400   1.473   1.936   4.091 -0.0223 -0.2857  0.0949
 7674WAT      O31401   5.225   3.012   2.428 -0.1716  0.2556  0.0238
 7674WAT     H131402   5.266   3.077   2.468  1.6912  0.8090 -2.4983
 7674WAT     H231403   5.273   2.942   2.447  0.0215  0.3137 -0.2338
 7674WAT    EPW31404   5.238   3.011   2.437 -0.0436 -0.0913 -0.2890
 7675WAT      O31405   3.287   6.636   7.528 -0.2774  0.2827  0.0031
 7675WAT     H131406   3.256   6.592   7.460 -1.8843  2.7507 -1.0148
 7675WAT     H231407   3.225   6.696   7.544  1.8406  2.4028  1.0004
 7675WAT    EPW31408   3.273   6.639   7.520 -0.7108  0.0358  0.9182
 7676WAT      O31409   5.882   5.093   0.861 -0.4791  0.5609  0.0702
 7676WAT     H131410   5.915   5.019   0.893 -1.4389  0.0433 -0.0684
 7676WAT     H231411   5.909   5.094   0.778 -0.7072  0.1955 -0.0135
 7676WAT    EPW31412   5.891   5.082   0.854 -0.9146  0.1936 -0.3618
 7677WAT      O31413   2.772   1.603   2.483 -0.1085 -0.0786 -0.1485
 7677WAT     H131414   2.706   1.661   2.484 -2.0947 -2.1575 -0.8167
 7677WAT     H231415   2.770   1.569   2.564 -0.1816 -0.4410 -0.2983
 7677WAT    EPW31416   2.762   1.606   2.495 -0.6552 -0.6764 -0.8685
 7678WAT      O31417   3.221   1.761   4.299 -0.1233  0.4060 -0.6761
 7678WAT     H131418   3.294   1.758   4.345 -1.3374 -0.3820  1.3305
 7678WAT     H231419   3.248   1.756   4.216  2.2888  3.7083 -0.2813
 7678WAT    EPW31420   3.235   1.760   4.294  0.0545  0.5900 -0.3410
 7679WAT      O31421   2.336   0.678   3.453 -0.6321  0.4161  0.0454
 7679WAT     H131422   2.279   0.686   3.519  1.0368  0.1417  1.5926
 7679WAT     H231423   2.335   0.592   3.437 -1.9887  0.6329 -1.2259
 7679WAT    EPW31424   2.327   0.666   3.461 -0.0537 -0.1671  0.5800
 7680WAT      O31425   6.015   4.725   0.290  0.1761  0.6101 -0.1076
 7680WAT     H131426   5.958   4.663   0.266 -0.6731  1.0800  0.6228
 7680WAT     H231427   6.092   4.687   0.280 -0.2550 -0.0799 -1.0566
 7680WAT    EPW31428   6.018   4.710   0.285  0.5410 -0.1784 -0.4947
 7681WAT      O31429   3.842   2.592   4.119  0.1783 -0.2368 -0.4588
 7681WAT     H131430   3.850   2.551   4.196  1.9476 -1.8542 -1.4368
 7681WAT     H231431   3.836   2.676   4.141 -0.1649 -0.7226  1.4673
 7681WAT    EPW31432   3.842   2.598   4.134  0.1308 -0.3780 -0.4261
 7682WAT      O31433   4.331   7.538   1.933  0.1706  0.1173  0.4084
 7682WAT     H131434   4.406   7.576   1.957  0.8216 -0.8698  0.0215
 7682WAT     H231435   4.357   7.462   1.900 -1.1243 -1.0282  1.8718
 7682WAT    EPW31436   4.346   7.532   1.932 -0.1224  0.3272 -0.2458
 7683WAT      O31437   3.779   2.831   4.285 -0.1169  0.1400  0.1014
 7683WAT     H131438   3.744   2.797   4.357 -1.7762  2.2178  0.3690
 7683WAT     H231439   3.820   2.902   4.314  0.2897  0.3154 -0.8625
 7683WAT    EPW31440   3.780   2.836   4.300 -0.8891 -0.5564 -0.5871
 7684WAT      O31441   5.852   3.081   1.866  0.0355 -0.0776  0.2854
 7684WAT     H131442   5.770   3.108   1.878 -0.5836 -1.4898 -0.4730
 7684WAT     H231443   5.883   3.135   1.805 -1.0535 -0.7870 -0.9578
 7684WAT    EPW31444   5.844   3.093   1.859 -0.1174 -0.1941  0.4419
 7685WAT      O31445   7.800   7.944   4.412 -0.3200  0.0769  1.1169
 7685WAT     H131446   7.771   7.880   4.465  1.9169 -0.7165  1.5294
 7685WAT     H231447   7.882   7.956   4.439  0.2453  1.0998 -0.8851
 7685WAT    EPW31448   7.808   7.936   4.424  0.3913  0.6244 -0.2787
 7686WAT      O31449   1.092   2.755   4.043 -0.1943 -0.4002  0.3726
 7686WAT     H131450   1.129   2.680   4.018  0.2094  0.0855 -0.5413
 7686WAT     H231451   1.006   2.740   4.033 -0.1415 -0.8522  0.5468
 7686WAT    EPW31452   1.085   2.741   4.038  0.2214 -0.0797  0.4759
 7687WAT      O31453   3.922   1.056   2.961 -0.5006 -0.1569  0.8793
 7687WAT     H131454   3.931   0.995   2.899  0.4688  0.9004 -0.0717
 7687WAT     H231455   3.929   1.131   2.917 -1.4995  0.6555  2.0463
 7687WAT    EPW31456   3.924   1.058   2.945  0.1863  0.4758 -0.6990
 7688WAT      O31457   7.759   0.916   2.162 -0.6854 -0.0336  0.1075
 7688WAT     H131458   7.778   0.914   2.077 -0.9484  1.1324 -0.0011
 7688WAT     H231459   7.793   0.992   2.188  2.5687 -1.8883  1.8450
 7688WAT    EPW31460   7.767   0.927   2.153  0.2811  0.4500  0.1368
 7689WAT      O31461   5.471   3.127   5.727 -0.0143  0.0268 -0.1700
 7689WAT     H131462   5.435   3.169   5.795 -1.6951 -0.8455 -0.4868
 7689WAT     H231463   5.446   3.045   5.737  0.1612 -0.2261 -1.5615
 7689WAT    EPW31464   5.462   3.121   5.739 -0.4512  0.0976  0.6276
 7690WAT      O31465   6.402   0.623   2.483  0.4076 -0.1963  0.3261
 7690WAT     H131466   6.438   0.631   2.562 -0.7363 -2.8386  1.2305
 7690WAT     H231467   6.468   0.642   2.428  1.6156  0.3493  1.8855
 7690WAT    EPW31468   6.417   0.627   2.486  0.0619 -0.1965 -0.2269
 7691WAT      O31469   3.161   0.442   0.974 -0.4503  0.0550  0.0524
 7691WAT     H131470   3.102   0.495   0.936 -1.6635 -0.4720  1.1281
 7691WAT     H231471   3.209   0.497   1.022 -1.4115  0.2690  0.8050
 7691WAT    EPW31472   3.159   0.458   0.975  0.0201 -0.1202 -0.6649
 7692WAT      O31473   7.874   3.685   1.820 -0.5491  0.3334 -0.0534
 7692WAT     H131474   7.832   3.749   1.780  0.8290 -0.2646 -2.7650
 7692WAT     H231475   7.957   3.713   1.822 -0.2637 -0.5075  0.5429
 7692WAT    EPW31476   7.880   3.698   1.814  0.3707  0.1268 -0.3794
 7693WAT      O31477   4.082   2.489   6.851 -0.1645  0.1751 -0.0271
 7693WAT     H131478   4.059   2.513   6.931  0.1150  0.4965 -0.0393
 7693WAT     H231479   4.165   2.516   6.844 -0.4891  1.0250 -0.7702
 7693WAT    EPW31480   4.091   2.496   6.862 -0.1279 -0.3728 -0.4717
 7694WAT      O31481   0.532   2.227   4.027 -0.1592 -0.1854 -0.0505
 7694WAT     H131482   0.494   2.187   3.959  0.2977 -0.5889 -0.0741
 7694WAT     H231483   0.616   2.203   4.020 -0.0100  0.2159  0.3417
 7694WAT    EPW31484   0.539   2.218   4.016 -0.2012  0.4230 -0.5585
 7695WAT      O31485   5.539   0.804   3.631 -0.1770  0.5392  0.6384
 7695WAT     H131486   5.522   0.865   3.571 -0.4421  0.0558  0.2125
 7695WAT     H231487   5.626   0.792   3.624 -0.2808  0.0765 -0.0705
 7695WAT    EPW31488   5.549   0.811   3.621 -0.0361  0.0610 -0.0525
 7696WAT      O31489   5.998   1.161   4.215 -0.3620 -0.1764  0.0765
 7696WAT     H131490   5.917   1.168   4.247  0.1890  0.8467  1.3704
 7696WAT     H231491   6.036   1.236   4.238  0.6615 -0.1839 -1.4209
 7696WAT    EPW31492   5.992   1.173   4.223  0.4185  0.0825 -0.2374
 7697WAT      O31493   3.297   2.065   3.307 -0.4397  0.0905  0.0222
 7697WAT     H131494   3.303   2.141   3.264  1.0703  0.2287  0.4050
 7697WAT     H231495   3.379   2.035   3.307 -0.8607 -1.1433  0.6152
 7697WAT    EPW31496   3.310   2.072   3.300 -0.3987 -0.1945  0.6634
 7698WAT      O31497   4.032   1.887   6.771 -0.2583 -0.2026 -0.0514
 7698WAT     H131498   4.063   1.966   6.791  1.5974 -0.8166 -0.3481
 7698WAT     H231499   3.945   1.898   6.771 -0.0135  2.0669 -1.1272
 7698WAT    EPW31500   4.024   1.900   6.774 -0.7733  0.3865  0.1437
 7699WAT      O31501   5.820   2.186   4.558  0.3591  0.2862 -0.2896
 7699WAT     H131502   5.822   2.271   4.576  1.2065  0.0795  0.6599
 7699WAT     H231503   5.737   2.163   4.573  0.4573  0.6525  0.8406
 7699WAT    EPW31504   5.808   2.195   4.563 -0.0144 -0.8956 -0.2362
 7700WAT      O31505   3.829   2.382   3.181 -0.2080 -0.3163  0.1062
 7700WAT     H131506   3.793   2.458   3.159 -1.1986 -0.9023 -0.3943
 7700WAT     H231507   3.824   2.381   3.268 -2.2383 -0.7408  0.0200
 7700WAT    EPW31508   3.823   2.393   3.191 -0.0031  0.0540 -0.7830
 7701WAT      O31509   4.139   2.966   3.226  0.4497 -0.4193 -0.3786
 7701WAT     H131510   4.116   3.047   3.205  0.5062  0.1458  1.5699
 7701WAT     H231511   4.071   2.918   3.200  1.1979 -0.0867 -3.2834
 7701WAT    EPW31512   4.125   2.971   3.219 -0.1692 -0.3949 -0.3874
 7702WAT      O31513   5.125   0.076   0.977 -0.6024  0.1497  0.7024
 7702WAT     H131514   5.156   0.074   0.896 -0.7196  0.6584  0.6418
 7702WAT     H231515   5.129  -0.007   1.003  0.2068  0.1151  0.4707
 7702WAT    EPW31516   5.130   0.063   0.969  0.4781 -0.2520 -0.3246
 7703WAT      O31517   7.016   1.521   2.453 -0.0256  0.4443 -0.2118
 7703WAT     H131518   7.060   1.523   2.529  1.2299  2.1650 -0.9269
 7703WAT     H231519   7.079   1.512   2.393 -0.9441 -0.1452 -1.1250
 7703WAT    EPW31520   7.032   1.520   2.456 -0.0903 -0.0783 -0.1835
 7704WAT      O31521   3.103   7.980   5.543 -0.5962 -0.3510 -0.3893
 7704WAT     H131522   3.056   8.039   5.500  0.5874  1.7941  1.0989
 7704WAT     H231523   3.162   7.955   5.484 -0.4059  0.8476 -0.7356
 7704WAT    EPW31524   3.105   7.985   5.528  0.4033 -0.9070 -0.1222
 7705WAT      O31525   7.391   7.003   3.927  0.2827  0.1957  0.0416
 7705WAT     H131526   7.323   7.053   3.946 -0.1121  0.3298 -1.5353
 7705WAT     H231527   7.356   6.929   3.896  0.8615 -0.5510  1.1062
 7705WAT    EPW31528   7.376   6.999   3.925  0.2341 -0.3876  0.2729
 7706WAT      O31529   4.441   6.163   3.133 -0.5126  0.5862 -0.1318
 7706WAT     H131530   4.440   6.240   3.091  1.0085  1.2110  0.8702
 7706WAT     H231531   4.498   6.115   3.086  0.5409  0.9985  0.6767
 7706WAT    EPW31532   4.449   6.167   3.120  0.2495  0.0682  0.0809
 7707WAT      O31533   6.098   1.239   5.441 -0.6773 -0.5772 -0.3573
 7707WAT     H131534   6.142   1.221   5.514 -0.4249 -0.5091 -0.4917
 7707WAT     H231535   6.032   1.182   5.442 -0.9103 -0.2989  0.1324
 7707WAT    EPW31536   6.094   1.228   5.452  0.3398  0.8795 -0.0255
 7708WAT      O31537   2.873   2.583   0.738  0.0731 -0.4313 -0.4374
 7708WAT     H131538   2.822   2.550   0.800  0.1669 -0.3212 -0.3026
 7708WAT     H231539   2.819   2.595   0.671  0.4498 -3.0306 -1.3010
 7708WAT    EPW31540   2.858   2.580   0.737 -0.7249  0.0810  0.4027
 7709WAT      O31541   4.511   5.220   6.470 -0.7247 -0.1240 -0.3012
 7709WAT     H131542   4.512   5.175   6.396 -1.8620  0.4886 -0.7097
 7709WAT     H231543   4.446   5.184   6.516  0.4693 -1.0145  0.7507
 7709WAT    EPW31544   4.501   5.208   6.466  0.2264 -0.0142 -0.2683
 7710WAT      O31545   0.356   1.978   4.353  0.2048 -0.0255 -0.3391
 7710WAT     H131546   0.281   1.994   4.395  0.1052 -1.3701  0.0414
 7710WAT     H231547   0.386   2.058   4.335  0.4899  0.6978  2.7223
 7710WAT    EPW31548   0.349   1.992   4.357 -0.0626 -0.0724  0.2961
 7711WAT      O31549   4.702   1.800   7.710  0.8881  0.1448 -0.3862
 7711WAT     H131550   4.750   1.832   7.644  0.2213  0.3133 -0.7927
 7711WAT     H231551   4.620   1.805   7.681  0.7102 -1.4535 -0.2608
 7711WAT    EPW31552   4.697   1.806   7.696 -0.6175 -0.6607  0.6475
 7712WAT      O31553   4.173   2.926   2.947 -0.2607  0.5003 -0.0877
 7712WAT     H131554   4.159   2.943   3.032 -0.8606 -1.1813  0.1934
 7712WAT     H231555   4.092   2.912   2.917 -0.2674  2.8264 -1.4115
 7712WAT    EPW31556   4.159   2.926   2.955  0.3260 -0.8715  0.5876
 7713WAT      O31557   4.900   1.908   7.542 -0.6203  0.3054 -0.1124
 7713WAT     H131558   4.888   1.892   7.457 -0.3887  2.0376 -0.5124
 7713WAT     H231559   4.896   1.995   7.547 -2.0460  0.1771  1.9005
 7713WAT    EPW31560   4.898   1.918   7.530  0.2706 -0.3521  0.3118
 7714WAT      O31561   5.152   5.351   3.879  0.3494  0.8943 -0.0524
 7714WAT     H131562   5.150   5.274   3.921 -0.0651  1.1984  0.4943
 7714WAT     H231563   5.068   5.373   3.874  0.4314  1.0884 -0.6400
 7714WAT    EPW31564   5.139   5.343   3.884 -0.5646  0.1378 -0.1014
 7715WAT      O31565   2.594   0.979   3.384 -0.3035  0.2134 -0.2346
 7715WAT     H131566   2.614   0.921   3.446 -2.8133 -1.7873 -1.1437
 7715WAT     H231567   2.539   1.033   3.424  1.0372  1.2788  0.2521
 7715WAT    EPW31568   2.589   0.979   3.399  0.3680  0.0276 -0.2751
 7716WAT      O31569   2.198   3.948   2.257  0.5120  0.1198  0.3075
 7716WAT     H131570   2.234   3.869   2.270  0.2808 -0.1134 -0.4064
 7716WAT     H231571   2.248   3.982   2.194  0.6576  0.5819  0.6684
 7716WAT    EPW31572   2.211   3.941   2.250 -0.5841  0.0707 -0.2296
 7717WAT      O31573   4.744   3.696   6.038  0.0192  0.5906  0.3493
 7717WAT     H131574   4.676   3.652   6.071  0.3000 -0.0678  0.0740
 7717WAT     H231575   4.790   3.718   6.109 -0.8703  1.7169  0.5955
 7717WAT    EPW31576   4.741   3.693   6.054 -0.1579 -0.3613  0.4470
 7718WAT      O31577   3.925   0.206   2.291  0.2760  0.0812  0.0182
 7718WAT     H131578   3.843   0.233   2.299  0.6650  1.2781  0.1693
 7718WAT     H231579   3.971   0.267   2.333  1.1260 -1.4231  1.4240
 7718WAT    EPW31580   3.920   0.219   2.299 -0.2720 -0.0746 -0.3465
 7719WAT      O31581   2.300   6.466   5.728  0.0246  0.2139 -0.2989
 7719WAT     H131582   2.286   6.492   5.646  0.6340 -0.7810 -0.7352
 7719WAT     H231583   2.283   6.380   5.726 -1.5877  0.4276  1.0091
 7719WAT    EPW31584   2.295   6.457   5.716 -0.0820  0.2212 -0.1580
 7720WAT      O31585   1.652   1.536   5.429 -1.0047 -0.8849  0.6540
 7720WAT     H131586   1.685   1.547   5.509  3.1074  0.9443 -0.9638
 7720WAT     H231587   1.633   1.451   5.425 -0.7339 -1.1422  3.3394
 7720WAT    EPW31588   1.654   1.525   5.440  0.6017 -0.0244 -0.1884
 7721WAT      O31589   3.709   2.624   5.642  0.0478  0.6290  0.2717
 7721WAT     H131590   3.681   2.544   5.664 -3.3920  1.3286 -0.9237
 7721WAT     H231591   3.777   2.637   5.696  0.2365 -2.7028  1.0978
 7721WAT    EPW31592   3.715   2.614   5.653 -0.0615  0.2006 -0.1705
 7722WAT      O31593   7.005   4.205   2.387  0.4963  0.0774  0.1195
 7722WAT     H131594   6.991   4.201   2.473  1.5525  1.5009  0.3947
 7722WAT     H231595   7.083   4.243   2.381  0.3745  0.1290 -1.4803
 7722WAT    EPW31596   7.014   4.210   2.399 -0.4323  0.2378 -0.3249
 7723WAT      O31597   2.404   5.724   0.118  0.7176 -0.0560 -0.1091
 7723WAT     H131598   2.445   5.795   0.148  0.0005  0.9833 -1.4622
 7723WAT     H231599   2.333   5.717   0.168  0.9386  0.0137  0.2114
 7723WAT    EPW31600   2.400   5.733   0.130 -0.1434 -0.6641  0.0970
 7724WAT      O31601   5.944   2.545   3.611  0.1820  0.0287  0.3333
 7724WAT     H131602   5.951   2.613   3.557  1.8803 -1.4255 -1.4164
 7724WAT     H231603   5.975   2.575   3.687 -1.4642  1.8778  0.3572
 7724WAT    EPW31604   5.949   2.560   3.614  0.6389 -0.0281  0.1485
 7725WAT      O31605   4.057   2.801   5.028 -0.3876  0.1328  0.0117
 7725WAT     H131606   4.023   2.732   5.070 -0.2341  2.1393  3.7870
 7725WAT     H231607   3.987   2.836   4.989 -1.1250 -0.2958  0.8914
 7725WAT    EPW31608   4.042   2.796   5.028 -0.0353 -0.0527 -0.2801
 7726WAT      O31609   1.711   0.434   3.149 -0.0173  0.4235 -0.6040
 7726WAT     H131610   1.711   0.370   3.090  0.0074  2.5637 -3.0947
 7726WAT     H231611   1.773   0.489   3.121  0.7033  1.1026  2.0098
 7726WAT    EPW31612   1.720   0.433   3.136  0.8730 -0.5133 -0.0300
 7727WAT      O31613   4.700   1.823   4.743 -0.0513 -0.3501 -0.4718
 7727WAT     H131614   4.673   1.750   4.783 -0.7220  0.7058  1.1384
 7727WAT     H231615   4.688   1.807   4.659 -0.4109 -2.0050 -0.1354
 7727WAT    EPW31616   4.695   1.810   4.737  0.3105 -0.0448  0.0758
 7728WAT      O31617   3.504   2.093   4.949  0.7145  0.1201 -0.0968
 7728WAT     H131618   3.431   2.131   4.976  2.4315  3.6848  0.1993
 7728WAT     H231619   3.535   2.055   5.020 -0.2352 -0.3510  0.0768
 7728WAT    EPW31620   3.498   2.093   4.963  0.1237  0.5394  0.1550
 7729WAT      O31621   6.552   5.968   2.848 -0.5258 -0.2112 -0.1900
 7729WAT     H131622   6.583   6.041   2.811  0.5709 -0.8649 -0.6249
 7729WAT     H231623   6.476   5.993   2.883 -1.3195  0.5960 -2.3385
 7729WAT    EPW31624   6.546   5.983   2.848  0.1958 -0.2840  0.5897
 7730WAT      O31625   4.678   6.891   4.408 -0.5576  0.3776  0.3634
 7730WAT     H131626   4.760   6.920   4.417 -0.0815 -1.1675  1.3832
 7730WAT     H231627   4.666   6.889   4.321  1.4586 -1.8240  0.0342
 7730WAT    EPW31628   4.688   6.895   4.396 -0.2544  0.6740 -0.5187
 7731WAT      O31629   7.091   4.559   1.569  0.4425  0.2212 -0.3024
 7731WAT     H131630   7.078   4.576   1.654  1.8457  0.4993 -0.1181
 7731WAT     H231631   7.011   4.561   1.535 -0.1205  0.3194  0.9793
 7731WAT    EPW31632   7.077   4.562   1.576 -0.7592 -0.3970 -0.7735
 7732WAT      O31633   2.433   3.129   6.059 -0.3739 -0.1963 -0.3895
 7732WAT     H131634   2.515   3.131   6.090 -1.0090 -2.2303  1.7300
 7732WAT     H231635   2.437   3.070   5.995 -0.3816 -1.2023  0.5161
 7732WAT    EPW31636   2.446   3.121   6.054  0.7716  0.1201  0.1325
 7733WAT      O31637   5.833   2.460   4.596  0.2400  0.3058  0.7978
 7733WAT     H131638   5.780   2.479   4.529  1.7702  0.8549 -0.3276
 7733WAT     H231639   5.804   2.512   4.660 -0.2163  1.0502  0.0147
 7733WAT    EPW31640   5.821   2.471   4.596 -0.0004  0.2097  0.1023
 7734WAT      O31641   2.144   3.571   6.519 -0.0915 -0.1090 -0.5022
 7734WAT     H131642   2.179   3.624   6.459  0.1361 -0.0337 -0.3070
 7734WAT     H231643   2.179   3.493   6.499  1.1532  0.1784  0.4169
 7734WAT    EPW31644   2.155   3.567   6.507 -0.6996  0.7706  0.4033
 7735WAT      O31645   2.881   7.542   4.760 -0.6330 -0.3762 -0.8130
 7735WAT     H131646   2.898   7.533   4.675 -0.9388  0.1268 -0.9367
 7735WAT     H231647   2.943   7.597   4.787  0.0329 -1.2577 -0.4977
 7735WAT    EPW31648   2.892   7.549   4.751 -0.2054 -0.2924  0.5583
 7736WAT      O31649   2.402   0.596   2.775 -1.1425  0.4105  0.7180
 7736WAT     H131650   2.343   0.647   2.736 -1.6148 -0.5660  0.0986
 7736WAT     H231651   2.476   0.641   2.770 -0.9484 -0.0780 -2.2732
 7736WAT    EPW31652   2.404   0.610   2.769 -0.0260  0.1089 -0.0685
 7737WAT      O31653   2.240   2.603   2.979  0.2564  0.0129  0.2952
 7737WAT     H131654   2.229   2.560   2.904 -1.5442 -0.6462  0.8728
 7737WAT     H231655   2.201   2.551   3.037  1.1922  0.7431  1.6172
 7737WAT    EPW31656   2.232   2.589   2.976  0.5507 -0.0783 -0.3680
 7738WAT      O31657   4.083   7.510   4.183  0.0173  0.5111  0.5906
 7738WAT     H131658   4.033   7.581   4.197  0.3460  0.6343  1.1425
 7738WAT     H231659   4.053   7.480   4.106 -1.0141  0.4899  0.9822
 7738WAT    EPW31660   4.071   7.516   4.174 -0.0244 -0.2187 -0.1281
 7739WAT      O31661   5.977   2.824   3.434 -0.2279 -0.1560 -0.8175
 7739WAT     H131662   5.990   2.866   3.509 -0.1501  0.2097 -1.0306
 7739WAT     H231663   5.995   2.885   3.373 -0.8456 -0.2719 -1.1248
 7739WAT    EPW31664   5.981   2.839   3.436  0.2208 -0.2001 -0.0780
 7740WAT      O31665   0.361   7.104   3.006  0.1489 -0.3046  0.1132
 7740WAT     H131666   0.277   7.084   2.992 -0.3353  1.8046 -0.4711
 7740WAT     H231667   0.372   7.088   3.091 -0.3252 -2.2163 -0.1525
 7740WAT    EPW31668   0.350   7.099   3.016 -0.1482  0.2677  0.0587
 7741WAT      O31669   5.358   2.582   2.726  0.2935  0.0362  0.8071
 7741WAT     H131670   5.428   2.627   2.752  0.2875  0.3944  0.2168
 7741WAT     H231671   5.389   2.502   2.713  0.4828  0.0700  1.0423
 7741WAT    EPW31672   5.373   2.577   2.728 -0.3953 -0.5136  0.4646
 7742WAT      O31673   5.563   2.049   0.981  1.1255  0.0033 -0.1350
 7742WAT     H131674   5.490   2.008   0.955 -0.9087  2.3822  1.3208
 7742WAT     H231675   5.605   2.066   0.907  0.9737 -2.6319 -0.9212
 7742WAT    EPW31676   5.558   2.045   0.966 -0.7814 -0.6037  0.5818
 7743WAT      O31677   3.941   7.237   0.891 -0.0360 -0.0019 -0.6835
 7743WAT     H131678   4.011   7.202   0.852  0.0622 -0.0196 -0.4960
 7743WAT     H231679   3.975   7.281   0.958 -0.3145 -1.7961  0.7504
 7743WAT    EPW31680   3.956   7.238   0.895 -0.0987 -0.2752 -0.6394
 7744WAT      O31681   2.305   4.646   7.137 -0.3842 -0.5359  0.3803
 7744WAT     H131682   2.302   4.684   7.058  0.0554 -1.5177 -0.1238
 7744WAT     H231683   2.224   4.654   7.167 -1.4294 -2.9237 -1.5189
 7744WAT    EPW31684   2.293   4.653   7.130  0.3941 -0.0745  0.1344
 7745WAT      O31685   4.119   6.405   4.410 -0.1325  0.2490  0.7873
 7745WAT     H131686   4.135   6.488   4.430  1.3497  0.3865 -0.7181
 7745WAT     H231687   4.123   6.365   4.487 -2.7779  1.7563  1.8270
 7745WAT    EPW31688   4.122   6.411   4.424 -0.2438  0.9924 -0.0493
 7746WAT      O31689   1.484   3.423   3.243  0.0368  0.2532 -0.2938
 7746WAT     H131690   1.486   3.505   3.215  0.3585  0.2283 -0.3522
 7746WAT     H231691   1.439   3.428   3.318 -0.0732  0.4570 -0.3719
 7746WAT    EPW31692   1.478   3.436   3.250 -0.5275  0.2150 -0.1719
 7747WAT      O31693   3.999   1.360   4.279 -0.1690  0.1260  0.6704
 7747WAT     H131694   4.041   1.319   4.214 -1.7091 -2.3038  1.0437
 7747WAT     H231695   4.059   1.364   4.342  1.6737  3.4243 -1.0588
 7747WAT    EPW31696   4.014   1.354   4.279 -0.9599  0.3673  0.0039
 7748WAT      O31697   2.608   4.149   3.303  0.3343  0.2666 -0.1941
 7748WAT     H131698   2.688   4.148   3.338 -0.0744 -0.6219  0.7610
 7748WAT     H231699   2.571   4.076   3.333 -1.0980  1.0285  0.0070
 7748WAT    EPW31700   2.614   4.138   3.312  0.7269  0.2772 -0.0871
 7749WAT      O31701   4.920   1.936   1.130  0.0615 -0.3631 -0.3527
 7749WAT     H131702   4.888   2.011   1.161  0.6896  0.0320 -0.6384
 7749WAT     H231703   4.927   1.951   1.044 -0.8861 -1.1553 -0.5901
 7749WAT    EPW31704   4.917   1.949   1.122 -0.2800 -0.3534  0.6917
 7750WAT      O31705   7.782   2.776   4.169 -1.1739  0.0266  0.4221
 7750WAT     H131706   7.832   2.818   4.111 -3.6286  1.5366 -0.7263
 7750WAT     H231707   7.801   2.815   4.245  0.2639 -0.3040  0.2664
 7750WAT    EPW31708   7.793   2.788   4.172  0.6053  0.1094  0.0968
 7751WAT      O31709   4.029   4.087   0.081  1.1426  0.0237  0.5634
 7751WAT     H131710   4.075   4.143   0.130 -0.3963  2.5569 -0.6906
 7751WAT     H231711   4.044   4.113  -0.000  0.8105 -1.8193 -0.1456
 7751WAT    EPW31712   4.038   4.099   0.076 -0.4318 -0.1654 -0.3687
 7752WAT      O31713   7.832   1.121   3.753  0.1542  0.4826  0.1158
 7752WAT     H131714   7.884   1.051   3.746 -2.5747 -1.6177 -1.4205
 7752WAT     H231715   7.835   1.157   3.673  0.3374  1.1952  0.4367
 7752WAT    EPW31716   7.840   1.116   3.740  0.1000 -0.0170 -0.4299
 7753WAT      O31717   4.650   7.379   6.377  0.0314 -0.2839 -0.2524
 7753WAT     H131718   4.736   7.363   6.374 -0.1441 -1.5255  0.7720
 7753WAT     H231719   4.634   7.416   6.299  2.0660  3.1847  0.7880
 7753WAT    EPW31720   4.661   7.382   6.365  0.3161 -0.6572 -0.2942
 7754WAT      O31721   5.293   4.066   5.550 -0.1613 -0.0293  0.1472
 7754WAT     H131722   5.313   4.149   5.569  2.1215 -0.3015 -0.6715
 7754WAT     H231723   5.283   4.066   5.464 -0.7270 -0.5126  0.2037
 7754WAT    EPW31724   5.295   4.078   5.540 -0.5054 -0.6213  0.0224
 7755WAT      O31725   2.934   2.109   3.776  0.1073 -0.0062  0.2376
 7755WAT     H131726   2.875   2.128   3.838  2.2683  1.2393  2.0643
 7755WAT     H231727   2.996   2.066   3.819  2.3210  2.0722 -0.6696
 7755WAT    EPW31728   2.934   2.106   3.791  0.1524 -0.3973 -0.0226
 7756WAT      O31729   6.826   3.956   2.735  0.7802  0.4432  0.7024
 7756WAT     H131730   6.905   3.919   2.722  0.4827 -0.2722  0.8608
 7756WAT     H231731   6.842   4.041   2.728  1.1710  0.2487 -1.4663
 7756WAT    EPW31732   6.840   3.963   2.732 -0.3224  0.6563  0.3675
 7757WAT      O31733   3.495   6.115   3.438 -1.1607 -0.3877  0.1220
 7757WAT     H131734   3.498   6.035   3.403 -0.3171 -0.2078 -0.2668
 7757WAT     H231735   3.578   6.130   3.461 -1.0100  0.9052 -1.0866
 7757WAT    EPW31736   3.508   6.106   3.436 -0.2311 -0.0397 -0.4863
 7758WAT      O31737   2.516   1.929   6.607 -0.4620  0.7050 -0.0901
 7758WAT     H131738   2.436   1.948   6.635 -0.8854  0.6823 -1.2126
 7758WAT     H231739   2.532   1.989   6.546 -0.3997 -0.3885 -1.1997
 7758WAT    EPW31740   2.507   1.941   6.602  0.4885  0.5454 -0.1455
 7759WAT      O31741   4.572   7.635   0.629 -0.4145 -0.1153 -0.1513
 7759WAT     H131742   4.587   7.572   0.688  1.2360  0.0305 -0.3797
 7759WAT     H231743   4.601   7.601   0.555  0.2922  0.8271 -0.3215
 7759WAT    EPW31744   4.578   7.620   0.627 -0.3516 -0.5274 -0.0717
 7760WAT      O31745   3.538   3.434   7.672 -0.1434  0.1374  0.4533
 7760WAT     H131746   3.500   3.358   7.653  0.1497  0.2067 -0.4616
 7760WAT     H231747   3.470   3.489   7.680 -0.3079  0.0042  0.0298
 7760WAT    EPW31748   3.522   3.431   7.670  0.6833  0.3181 -0.0209
 7761WAT      O31749   1.648   7.425   3.393 -0.0021 -0.2371  0.0760
 7761WAT     H131750   1.615   7.447   3.471 -1.1319  1.4604 -0.8185
 7761WAT     H231751   1.578   7.413   3.343  0.6964  0.4456 -1.1186
 7761WAT    EPW31752   1.633   7.426   3.397  0.1025  0.6064  0.1999
 7762WAT      O31753   2.246   2.831   4.354  0.3025  0.1890  0.1570
 7762WAT     H131754   2.185   2.784   4.312 -0.8269  0.3765  1.5284
 7762WAT     H231755   2.264   2.895   4.297 -1.5566  0.7310  0.1088
 7762WAT    EPW31756   2.240   2.833   4.339 -0.2720  0.3967 -0.7506
 7763WAT      O31757   1.987   3.805   2.558  0.0974  0.4840  0.8727
 7763WAT     H131758   1.962   3.873   2.606  1.8225  1.2256  0.7962
 7763WAT     H231759   2.047   3.765   2.609 -0.6204 -0.7803  0.7664
 7763WAT    EPW31760   1.992   3.809   2.573  0.2672  0.0127 -0.0585
 7764WAT      O31761   1.727   2.619   7.104  0.6215  0.1618  0.4666
 7764WAT     H131762   1.678   2.548   7.093 -1.4373  1.5859 -0.0963
 7764WAT     H231763   1.698   2.653   7.179  0.7673  1.0069  0.1523
 7764WAT    EPW31764   1.715   2.614   7.113  0.4124  0.3995  0.2917
 7765WAT      O31765   3.044   3.555   3.253  0.4190  0.5235 -0.0093
 7765WAT     H131766   3.019   3.564   3.336 -0.3191 -0.8838 -0.0427
 7765WAT     H231767   3.017   3.629   3.216 -2.1362 -0.1140  0.3799
 7765WAT    EPW31768   3.036   3.567   3.260  0.1754  0.0977  0.0544
 7766WAT      O31769   3.700   4.567   2.732  0.6116 -0.0346  0.1086
 7766WAT     H131770   3.748   4.582   2.660  0.0659 -0.3754 -0.3325
 7766WAT     H231771   3.761   4.552   2.793  1.0802 -0.1436 -0.3682
 7766WAT    EPW31772   3.716   4.567   2.730 -0.0018 -0.1949 -0.0346
 7767WAT      O31773   4.971   7.849   1.202 -0.4200 -0.5951 -0.1414
 7767WAT     H131774   4.942   7.810   1.275  0.2650 -1.0419 -0.0959
 7767WAT     H231775   4.924   7.811   1.139 -1.4620  0.2380  0.1040
 7767WAT    EPW31776   4.959   7.838   1.203  0.2377 -0.3788  0.1249
 7768WAT      O31777   3.644   2.647   2.421 -0.0289  0.1385 -0.2985
 7768WAT     H131778   3.639   2.679   2.503  2.1325 -0.8035  0.2665
 7768WAT     H231779   3.574   2.594   2.416 -0.2529  0.2777  0.9055
 7768WAT    EPW31780   3.633   2.644   2.433 -0.2232 -0.6850 -0.1464
 7769WAT      O31781   2.663   3.462   6.883  0.2767  0.4128  0.5781
 7769WAT     H131782   2.728   3.422   6.841 -0.3325  1.0492 -1.0869
 7769WAT     H231783   2.704   3.516   6.938  1.1325  0.0015  0.3550
 7769WAT    EPW31784   2.679   3.464   6.885 -0.0868  0.5849  0.5852
 7770WAT      O31785   5.946   0.997   4.644 -0.0851  0.2216  0.0959
 7770WAT     H131786   5.863   0.979   4.624 -0.1287 -0.5849  0.8901
 7770WAT     H231787   5.989   0.984   4.569 -0.6138  0.1896 -0.2074
 7770WAT    EPW31788   5.940   0.992   4.630  0.0055 -0.2088  0.1323
 7771WAT      O31789   4.805   2.579   4.132  0.4171  0.0287  0.5337
 7771WAT     H131790   4.732   2.626   4.131  0.3298 -0.1077  0.5512
 7771WAT     H231791   4.868   2.640   4.124  0.2707  0.0492 -0.6634
 7771WAT    EPW31792   4.804   2.595   4.131 -0.3548  0.3204  0.4193
 7772WAT      O31793   1.797   1.497   6.190 -0.9770  0.0540  0.1282
 7772WAT     H131794   1.750   1.530   6.255 -0.0275  1.4417  0.1656
 7772WAT     H231795   1.874   1.538   6.198  0.0118 -1.6202 -0.3398
 7772WAT    EPW31796   1.802   1.508   6.201 -0.1093  0.0109  0.5623
 7773WAT      O31797   5.231   2.459   5.057 -0.0895 -0.1410 -0.1152
 7773WAT     H131798   5.161   2.503   5.087  0.8463  1.0442  0.4176
 7773WAT     H231799   5.297   2.516   5.069  0.7743 -0.7628 -1.7316
 7773WAT    EPW31800   5.230   2.474   5.063  0.0437  0.5354  0.0711
 7774WAT      O31801   5.239   5.261   1.417 -0.2091  0.3195 -0.0198
 7774WAT     H131802   5.291   5.209   1.463 -3.3411 -1.3463  2.0028
 7774WAT     H231803   5.181   5.207   1.381 -0.1012  1.9515 -3.0692
 7774WAT    EPW31804   5.238   5.245   1.418 -0.2764 -0.3677  0.3150
 7775WAT      O31805   3.761   5.952   5.633 -0.1633  0.4090 -0.3619
 7775WAT     H131806   3.756   5.896   5.700 -1.1355  0.0563 -0.7174
 7775WAT     H231807   3.815   5.913   5.578  0.8194  0.8006  0.2927
 7775WAT    EPW31808   3.768   5.938   5.635  0.0181  0.2528 -0.1755
 7776WAT      O31809   5.186   1.008   5.513 -0.0279  0.2785 -0.5758
 7776WAT     H131810   5.227   1.008   5.435  0.1725 -2.5919 -0.5872
 7776WAT     H231811   5.252   1.015   5.570  0.1754 -0.7600 -0.6571
 7776WAT    EPW31812   5.202   1.009   5.510  0.8954  0.0337 -0.2355
 7777WAT      O31813   5.810   3.410   4.134  0.6115  0.4309 -0.1650
 7777WAT     H131814   5.724   3.405   4.123  0.6430 -2.1125  0.1918
 7777WAT     H231815   5.835   3.468   4.074 -1.0763 -0.5408 -1.9353
 7777WAT    EPW31816   5.801   3.418   4.124  0.1461 -0.4904 -0.3968
 7778WAT      O31817   5.218   7.913   6.966  0.6077 -0.5804  0.0701
 7778WAT     H131818   5.279   7.971   6.992  0.0414 -0.4014  1.0351
 7778WAT     H231819   5.146   7.961   6.961  0.7706 -0.4655 -2.4802
 7778WAT    EPW31820   5.217   7.929   6.969  0.0923 -0.0895 -0.2055
 7779WAT      O31821   4.953   6.338   5.717  0.6482  0.6215 -0.0302
 7779WAT     H131822   4.963   6.264   5.672 -1.3882  0.4537 -0.2567
 7779WAT     H231823   4.919   6.393   5.660 -0.3376  0.9361  0.8295
 7779WAT    EPW31824   4.950   6.335   5.702 -0.5326 -0.1995 -0.2164
 7780WAT      O31825   5.773   0.928   5.735  0.0654  0.2082  0.0244
 7780WAT     H131826   5.727   0.991   5.774 -1.2842 -0.2129 -0.8435
 7780WAT     H231827   5.806   0.968   5.665 -0.0400  0.1829 -0.0395
 7780WAT    EPW31828   5.771   0.944   5.730 -0.8193 -0.3050 -0.4927
 7781WAT      O31829   3.493   1.501   5.094 -0.4749 -0.1680 -0.1444
 7781WAT     H131830   3.493   1.514   5.180 -3.2009 -1.0946  0.0842
 7781WAT     H231831   3.505   1.581   5.061  1.3300  0.0999  1.0287
 7781WAT    EPW31832   3.495   1.515   5.102  0.4630  0.3759  0.2867
 7782WAT      O31833   6.786   4.439   2.703  0.2035 -0.0664 -0.1148
 7782WAT     H131834   6.827   4.516   2.702 -0.0993  0.0965  0.0096
 7782WAT     H231835   6.715   4.452   2.654 -1.8465  0.8539  2.8352
 7782WAT    EPW31836   6.782   4.452   2.696 -0.0376  0.0941 -0.2082
 7783WAT      O31837   1.962   2.317   1.282 -0.4809 -0.0706 -0.4428
 7783WAT     H131838   1.949   2.395   1.320  1.5420  1.2082 -2.1240
 7783WAT     H231839   1.902   2.315   1.219 -0.6504  0.0071 -0.2881
 7783WAT    EPW31840   1.951   2.328   1.279  0.1872  0.2751  0.4234
 7784WAT      O31841   1.762   2.954   2.417  0.9742  0.5664 -0.2138
 7784WAT     H131842   1.748   2.874   2.384  1.1519  0.7833 -0.8387
 7784WAT     H231843   1.707   3.005   2.372 -0.8511  0.4819  1.7822
 7784WAT    EPW31844   1.752   2.950   2.405  0.0413  0.3414  0.2486
 7785WAT      O31845   7.987   7.705   3.895 -0.5933  0.4998 -0.4137
 7785WAT     H131846   8.072   7.693   3.908 -0.8394 -0.8381  0.1415
 7785WAT     H231847   7.980   7.718   3.809  0.2701  1.7712 -0.3182
 7785WAT    EPW31848   7.998   7.705   3.884 -0.3678  0.8294 -0.0016
 7786WAT      O31849   2.169   0.014   7.102 -0.0306  0.4395  0.1995
 7786WAT     H131850   2.108   0.075   7.089 -0.0969  0.4346  0.4803
 7786WAT     H231851   2.213   0.013   7.026 -2.1701 -1.6253 -1.1657
 7786WAT    EPW31852   2.167   0.023   7.089  0.0883  0.8331 -0.1500
 7787WAT      O31853   6.412   1.597   0.790 -0.0827 -0.0495  0.7911
 7787WAT     H131854   6.497   1.577   0.791  0.5600  2.2778 -0.8993
 7787WAT     H231855   6.373   1.519   0.795  2.1563 -1.3185 -0.2177
 7787WAT    EPW31856   6.419   1.582   0.791  0.1823 -0.3414  0.2197
 7788WAT      O31857   5.000   2.402   3.297  0.5504 -1.0267  0.1950
 7788WAT     H131858   5.002   2.470   3.242  0.2235 -0.6018  0.7005
 7788WAT     H231859   4.937   2.423   3.353  0.1309 -1.9673  0.0874
 7788WAT    EPW31860   4.991   2.415   3.297 -0.0623  0.2433  0.1395
 7789WAT      O31861   3.147   2.023   1.671 -0.4986 -0.2182 -0.1429
 7789WAT     H131862   3.227   2.056   1.682 -0.6566 -0.2029  1.0930
 7789WAT     H231863   3.146   1.955   1.726 -0.9353 -0.9438 -1.0345
 7789WAT    EPW31864   3.159   2.018   1.681  0.4161  0.6696  0.4082
 7790WAT      O31865   3.904   5.085   2.137 -0.4053 -0.3443  0.0756
 7790WAT     H131866   3.937   5.042   2.068  1.5568  1.4459 -0.2324
 7790WAT     H231867   3.837   5.130   2.103 -0.2753 -0.4980 -0.3963
 7790WAT    EPW31868   3.899   5.086   2.122 -0.0391 -0.5435 -0.3319
 7791WAT      O31869   5.186   3.092   7.739  0.2334 -0.3170 -0.3057
 7791WAT     H131870   5.168   3.174   7.717 -1.9712  0.1604  2.6648
 7791WAT     H231871   5.127   3.045   7.696  2.2831 -0.6828 -3.0310
 7791WAT    EPW31872   5.175   3.097   7.730 -0.1372  0.3055 -0.1336
 7792WAT      O31873   2.854   2.470   6.356  0.7108  0.2155 -0.2554
 7792WAT     H131874   2.860   2.414   6.289 -0.7988 -0.9395  0.5230
 7792WAT     H231875   2.932   2.464   6.394  0.4042 -1.8873  0.1647
 7792WAT    EPW31876   2.867   2.461   6.351  0.0888 -1.2455 -0.1528
 7793WAT      O31877   2.988   2.529   1.633 -0.1138  1.1026 -0.2470
 7793WAT     H131878   3.072   2.520   1.655 -0.3523  0.4539  0.4533
 7793WAT     H231879   2.954   2.451   1.652 -0.7608  1.1879 -1.0519
 7793WAT    EPW31880   2.995   2.516   1.639  0.0949 -0.2661  0.7323
 7794WAT      O31881   5.351   2.170   4.195  0.8108 -0.0303 -0.4269
 7794WAT     H131882   5.347   2.123   4.122 -0.4749 -0.3747 -0.1570
 7794WAT     H231883   5.432   2.156   4.224  0.9577 -0.8077 -1.1811
 7794WAT    EPW31884   5.363   2.161   4.188  0.8540 -0.3152 -0.1110
 7795WAT      O31885   1.635   1.036   3.351  0.1373 -0.2028  0.1207
 7795WAT     H131886   1.576   1.023   3.289 -0.4990 -1.0601  0.8633
 7795WAT     H231887   1.658   0.955   3.375  1.5028  0.1097 -0.0337
 7795WAT    EPW31888   1.630   1.022   3.346  0.5332 -0.3269  0.4310
 7796WAT      O31889   7.435   3.220   3.616  0.0008 -0.2654  0.0791
 7796WAT     H131890   7.491   3.257   3.560  0.0241 -1.7889 -0.9536
 7796WAT     H231891   7.483   3.209   3.688  0.3401  0.5390 -0.0085
 7796WAT    EPW31892   7.451   3.224   3.618 -0.7237 -0.5002  0.3383
 7797WAT      O31893   3.546   1.996   0.418 -0.0246  0.4653 -0.2240
 7797WAT     H131894   3.630   1.978   0.399  0.0935  1.1079 -0.3639
 7797WAT     H231895   3.511   2.015   0.341 -0.3331  0.0743 -0.1800
 7797WAT    EPW31896   3.554   1.996   0.404 -0.2901  0.3110 -0.0289
 7798WAT      O31897   1.816   3.301   2.967 -0.3906 -0.1135 -0.4721
 7798WAT     H131898   1.751   3.316   2.910 -0.2851 -0.4203 -0.6751
 7798WAT     H231899   1.801   3.360   3.030 -0.6481  0.0701 -0.6984
 7798WAT    EPW31900   1.804   3.312   2.968  0.2955 -0.0275 -0.0918
 7799WAT      O31901   3.589   1.318   0.436 -0.1923 -0.4931  0.1913
 7799WAT     H131902   3.509   1.322   0.403  0.0996 -2.0328 -0.7709
 7799WAT     H231903   3.616   1.401   0.435 -0.8466 -0.2716 -1.8047
 7799WAT    EPW31904   3.581   1.331   0.431  0.2134 -0.2088  0.0266
 7800WAT      O31905   6.141   2.291   3.179 -0.3828  0.0521 -0.3761
 7800WAT     H131906   6.108   2.310   3.258  1.6612 -1.0524  0.8333
 7800WAT     H231907   6.071   2.289   3.127 -1.8496  0.4396  1.4764
 7800WAT    EPW31908   6.126   2.294   3.183 -0.7790  0.1678 -0.0721
 7801WAT      O31909   2.039   0.096   2.622 -0.0067 -0.1756 -0.4038
 7801WAT     H131910   2.050   0.171   2.665  0.1642 -0.7620  0.6105
 7801WAT     H231911   2.019   0.122   2.541  2.0768  0.9757 -0.6305
 7801WAT    EPW31912   2.038   0.111   2.617 -0.2076 -0.0299  0.3946
 7802WAT      O31913   6.657   3.370   2.335  0.5593  0.3122 -0.2515
 7802WAT     H131914   6.640   3.360   2.420  0.5741 -2.4241 -0.4835
 7802WAT     H231915   6.604   3.435   2.311 -2.4667 -1.4811  1.0648
 7802WAT    EPW31916   6.647   3.378   2.344  0.1717  0.1849 -0.3000
 7803WAT      O31917   3.698   7.759   2.674 -0.2138  0.1647  0.2951
 7803WAT     H131918   3.611   7.762   2.671 -0.2519 -1.0585 -0.4084
 7803WAT     H231919   3.715   7.708   2.742 -0.0838 -0.4532 -0.1904
 7803WAT    EPW31920   3.688   7.752   2.684  0.1389  0.1591 -0.1809
 7804WAT      O31921   3.286   7.876   1.060  1.0850  0.1716 -0.1635
 7804WAT     H131922   3.247   7.808   1.021  4.5681 -0.8499 -2.2130
 7804WAT     H231923   3.244   7.945   1.027 -0.3691 -0.8334 -0.5424
 7804WAT    EPW31924   3.274   7.876   1.049 -0.0759  0.1928 -0.0175
 7805WAT      O31925   2.352   4.340   0.916  0.1366 -0.0448  0.0796
 7805WAT     H131926   2.301   4.411   0.918 -0.4199 -0.4482  0.6221
 7805WAT     H231927   2.302   4.279   0.879  0.8172 -0.0146 -0.9372
 7805WAT    EPW31928   2.337   4.341   0.911 -0.7243 -0.5970 -0.2092
 7806WAT      O31929   6.799   7.408   4.597  0.1536 -0.0099  0.0056
 7806WAT     H131930   6.743   7.450   4.544 -1.9864  1.5015  3.1234
 7806WAT     H231931   6.860   7.469   4.613  0.2996 -0.1483 -0.0286
 7806WAT    EPW31932   6.800   7.423   4.591  0.7214 -0.2304  0.7050
 7807WAT      O31933   5.028   3.911   0.113  0.0707 -0.3518 -0.4921
 7807WAT     H131934   4.976   3.849   0.146 -1.6147 -0.5117 -3.1391
 7807WAT     H231935   4.989   3.986   0.137  1.2148 -0.3055  1.3468
 7807WAT    EPW31936   5.014   3.913   0.121 -0.1553  0.2558  0.2108
 7808WAT      O31937   1.080   2.807   1.464  0.5096 -0.4291 -0.7174
 7808WAT     H131938   1.105   2.876   1.417  0.5412 -0.5154 -0.8293
 7808WAT     H231939   1.125   2.814   1.538  0.4060 -0.2521 -0.6701
 7808WAT    EPW31940   1.090   2.818   1.468 -0.5911 -0.1184  0.3447
 7809WAT      O31941   4.486   2.543   1.291  0.0770  0.0346  0.0167
 7809WAT     H131942   4.467   2.470   1.247 -1.4320  0.6895 -0.4916
 7809WAT     H231943   4.470   2.520   1.374 -1.7476  0.1173 -0.2561
 7809WAT    EPW31944   4.481   2.528   1.297  0.0662  0.4311 -0.0329
 7810WAT      O31945   4.185   6.709   7.021 -0.0209 -0.4933  0.2717
 7810WAT     H131946   4.257   6.740   7.060 -0.0734  0.3303 -0.2663
 7810WAT     H231947   4.207   6.626   7.002  1.1383 -0.0039 -0.6916
 7810WAT    EPW31948   4.199   6.701   7.024  0.0087  0.2540  0.6705
 7811WAT      O31949   2.791   7.404   1.606 -0.6138  0.0673  0.1489
 7811WAT     H131950   2.874   7.428   1.609 -0.8271  1.0377 -1.2282
 7811WAT     H231951   2.747   7.479   1.600 -1.4433 -0.4913 -1.4381
 7811WAT    EPW31952   2.797   7.418   1.606  0.5955  0.0711  0.3054
 7812WAT      O31953   2.421   7.250   5.348 -0.4288  0.7515  0.4643
 7812WAT     H131954   2.459   7.179   5.315 -1.6074  0.7648 -1.0234
 7812WAT     H231955   2.379   7.220   5.419  0.8629  0.4164  1.1161
 7812WAT    EPW31956   2.421   7.235   5.354  0.5578  0.2961 -0.8311
 7813WAT      O31957   2.682   1.944   4.137 -0.1325  0.1527  0.5035
 7813WAT     H131958   2.757   1.985   4.152 -0.2751  0.5798  0.1072
 7813WAT     H231959   2.629   1.974   4.200  0.1490 -0.4987  1.0618
 7813WAT    EPW31960   2.685   1.954   4.148  0.2558 -0.8050 -0.5357
 7814WAT      O31961   4.237   4.571   1.805  0.4320 -0.3004  0.0207
 7814WAT     H131962   4.229   4.651   1.839  0.6813 -0.5205  0.6088
 7814WAT     H231963   4.155   4.548   1.788  0.1544 -0.7156  1.7395
 7814WAT    EPW31964   4.224   4.579   1.808 -0.4394 -0.8754 -0.1803
 7815WAT      O31965   0.857   3.355   2.689  0.1828 -0.2386  0.1245
 7815WAT     H131966   0.811   3.397   2.750  1.4215  0.4352  0.6521
 7815WAT     H231967   0.898   3.293   2.733  1.7561  0.7852  0.1970
 7815WAT    EPW31968   0.856   3.352   2.704 -0.0237  0.3049 -0.6670
 7816WAT      O31969   5.679   6.680   4.622 -0.0772 -0.1553 -0.2435
 7816WAT     H131970   5.622   6.659   4.560 -0.0139 -1.0987 -0.0011
 7816WAT     H231971   5.751   6.702   4.576 -0.1100 -0.5993 -0.5254
 7816WAT    EPW31972   5.681   6.680   4.606 -0.0352 -0.3547 -0.2262
 7817WAT      O31973   1.686   0.762   3.326 -0.9687  0.0103 -0.4177
 7817WAT     H131974   1.763   0.723   3.315 -1.3063 -1.4680  1.8315
 7817WAT     H231975   1.655   0.770   3.245  0.2692 -2.0211 -1.1618
 7817WAT    EPW31976   1.693   0.758   3.313  0.1841  0.3135  0.1105
 7818WAT      O31977   5.572   1.059   4.870  0.3884  0.2159  0.0314
 7818WAT     H131978   5.646   1.098   4.894 -0.8480  2.0572  1.0613
 7818WAT     H231979   5.550   1.099   4.796 -1.0606  1.8937  1.2665
 7818WAT    EPW31980   5.579   1.070   4.863 -0.1167  0.4185  0.3954
 7819WAT      O31981   0.465   2.325   2.466  0.1356  0.0950  0.2050
 7819WAT     H131982   0.528   2.282   2.425  0.4559  0.4552  0.3182
 7819WAT     H231983   0.394   2.308   2.418  0.6761  1.3749 -1.1167
 7819WAT    EPW31984   0.464   2.316   2.453 -0.1442 -0.3555  0.0847
 7820WAT      O31985   3.873   0.990   5.248 -0.1267 -0.4362 -0.0242
 7820WAT     H131986   3.951   1.007   5.282 -0.7853  1.2091  0.7725
 7820WAT     H231987   3.829   1.064   5.259 -1.8194 -1.3200 -0.4544
 7820WAT    EPW31988   3.878   1.003   5.254 -0.0300  0.4634  0.4701
 7821WAT      O31989   6.836   5.945   4.109  0.1033 -0.8393  0.3396
 7821WAT     H131990   6.864   6.026   4.090 -0.5729 -0.0710  2.2769
 7821WAT     H231991   6.879   5.894   4.053  0.2096  0.8969 -1.2470
 7821WAT    EPW31992   6.847   5.950   4.098  0.2090  0.0147  0.1980
 7822WAT      O31993   1.185   5.715   0.741  0.5173 -0.0195  0.3141
 7822WAT     H131994   1.252   5.704   0.795 -0.2625  0.8049  1.5016
 7822WAT     H231995   1.196   5.796   0.711 -0.7615  0.7609  1.7805
 7822WAT    EPW31996   1.196   5.725   0.744 -0.2847  0.4176  0.0950
 7823WAT      O31997   0.781   7.090   2.017  0.2479  0.3642  0.0222
 7823WAT     H131998   0.761   7.104   1.933 -1.4431 -0.7133  0.1999
 7823WAT     H231999   0.734   7.019   2.037 -0.0328  1.0899  2.1119
 7823WAT    EPW32000   0.771   7.081   2.007 -0.1171 -0.1651  0.2075
 7824WAT      O32001   6.815   0.730   1.124  0.2135 -0.0098  0.1286
 7824WAT     H132002   6.901   0.742   1.130 -0.0456  1.3738  2.3204
 7824WAT     H232003   6.804   0.648   1.152  0.8184 -0.1597 -0.0693
 7824WAT    EPW32004   6.826   0.720   1.129  0.2153  0.7382 -1.0744
 7825WAT      O32005   5.189   7.701   5.055  0.1791  0.0218  0.6908
 7825WAT     H132006   5.197   7.729   4.973  2.3432 -0.1537  0.7887
 7825WAT     H232007   5.213   7.617   5.050  0.3803  0.0225  1.5124
 7825WAT    EPW32008   5.193   7.692   5.042 -0.1880  0.6282  0.5207
 7826WAT      O32009   4.364   1.043   0.167  0.3269 -0.2128  0.2354
 7826WAT     H132010   4.447   1.058   0.144 -0.2434  2.2313 -0.5801
 7826WAT     H232011   4.338   1.120   0.199 -2.1728 -0.3015 -1.3202
 7826WAT    EPW32012   4.372   1.057   0.168  0.2759  0.0177  0.0314
 7827WAT      O32013   1.819   2.096   3.702  0.2431 -0.0909  0.0165
 7827WAT     H132014   1.865   2.169   3.688 -0.0881  0.1492  0.1877
 7827WAT     H232015   1.858   2.038   3.650 -0.1335  0.4627 -0.9158
 7827WAT    EPW32016   1.832   2.098   3.692 -0.0391  0.1451  0.2284
 7828WAT      O32017   7.389   3.258   2.936 -0.1211  0.2340 -0.0155
 7828WAT     H132018   7.462   3.263   2.889  0.1740 -0.5152  0.3524
 7828WAT     H232019   7.399   3.320   2.997  0.5913 -0.4048  0.5424
 7828WAT    EPW32020   7.401   3.268   2.938  0.6119  0.2375 -0.7021
 7829WAT      O32021   0.622   0.327   2.428  0.0360  0.2659  0.1608
 7829WAT     H132022   0.697   0.343   2.469 -0.1568 -1.0151  1.0659
 7829WAT     H232023   0.634   0.248   2.392 -0.3403  0.7154 -1.0049
 7829WAT    EPW32024   0.634   0.318   2.429  0.5582  0.0112  0.3461
 7830WAT      O32025   4.715   5.891   0.211  0.8423  0.2210  0.1680
 7830WAT     H132026   4.781   5.835   0.201  1.1829  0.4431  1.0755
 7830WAT     H232027   4.644   5.841   0.200  1.1189 -0.6356  1.8814
 7830WAT    EPW32028   4.714   5.875   0.208 -0.4136  0.0023 -0.0966
 7831WAT      O32029   5.768   0.010   4.343 -0.1439 -0.2095  0.1234
 7831WAT     H132030   5.753  -0.029   4.420 -0.0481 -1.3095 -0.3986
 7831WAT     H232031   5.855   0.018   4.341 -0.1145 -0.5414 -0.0320
 7831WAT    EPW32032   5.778   0.005   4.354  0.2094  0.0630 -0.2799
 7832WAT      O32033   2.714   7.067   4.537 -0.2454 -0.5385  0.4951
 7832WAT     H132034   2.792   7.073   4.576  0.2600  0.1030 -0.5770
 7832WAT     H232035   2.727   7.009   4.474  0.4061  2.0541 -1.9549
 7832WAT    EPW32036   2.727   7.060   4.534 -0.0925  0.3447  0.1520
 7833WAT      O32037   2.927   0.086   6.121  0.0311 -0.2220 -0.2902
 7833WAT     H132038   2.854   0.129   6.140  1.1754  1.0030  1.7958
 7833WAT     H232039   2.915   0.058   6.040 -2.2206  1.0237 -0.4481
 7833WAT    EPW32040   2.915   0.089   6.112  0.5489  0.1001 -0.0282
 7834WAT      O32041   4.584   3.017   6.592  0.4544 -0.1918 -0.3695
 7834WAT     H132042   4.628   2.974   6.654 -0.0257 -0.9328 -0.5195
 7834WAT     H232043   4.515   3.049   6.634 -0.3109 -1.3923 -0.6415
 7834WAT    EPW32044   4.580   3.015   6.607  0.0337 -0.0894 -0.2638
 7835WAT      O32045   4.569   2.324   3.624  0.4008 -0.0265  0.0872
 7835WAT     H132046   4.608   2.367   3.690  0.6955 -2.1524  1.3756
 7835WAT     H232047   4.578   2.379   3.556  0.1901  2.1891  1.7520
 7835WAT    EPW32048   4.576   2.339   3.623  0.2619  0.3598  0.0924
 7836WAT      O32049   3.107   6.817   2.600 -0.0785 -0.2916  0.9998
 7836WAT     H132050   3.172   6.876   2.610  0.0883 -0.4050  0.6011
 7836WAT     H232051   3.050   6.839   2.662 -0.4641  0.8902  0.2527
 7836WAT    EPW32052   3.108   6.829   2.611 -0.1140  0.0213  0.3059
 7837WAT      O32053   4.422   1.268   2.689  0.1855  0.2144  0.1738
 7837WAT     H132054   4.348   1.223   2.700  0.3054 -0.0035  0.0967
 7837WAT     H232055   4.485   1.208   2.701  0.3408  0.2568 -0.4105
 7837WAT    EPW32056   4.421   1.253   2.692  0.0101  0.4708  0.1867
 7838WAT      O32057   4.440   7.327   1.089  0.0671  0.7048  0.1661
 7838WAT     H132058   4.445   7.246   1.121 -0.6701  0.4201 -0.4136
 7838WAT     H232059   4.425   7.376   1.160 -0.2978  0.2398  0.4150
 7838WAT    EPW32060   4.439   7.322   1.104  0.2238 -0.4055  0.7171
 7839WAT      O32061   2.911   4.270   7.217 -0.1922  0.4833  0.5882
 7839WAT     H132062   2.831   4.303   7.228  0.1279  1.7878 -0.6518
 7839WAT     H232063   2.908   4.233   7.138 -0.1820 -1.5145  1.4577
 7839WAT    EPW32064   2.899   4.270   7.207 -0.1305 -0.7406 -0.6826
 7840WAT      O32065   3.164   2.700   2.660  0.1172  0.0828 -0.5270
 7840WAT     H132066   3.190   2.715   2.578  1.5416  0.4921 -0.0215
 7840WAT     H232067   3.204   2.625   2.681 -0.7485 -0.3614 -0.3985
 7840WAT    EPW32068   3.174   2.691   2.651  0.1145 -0.2979  0.3259
 7841WAT      O32069   6.971   0.702   3.965 -0.2929  0.2806  0.3284
 7841WAT     H132070   7.050   0.737   3.968  0.2281 -0.6677 -1.1931
 7841WAT     H232071   6.987   0.616   3.966 -1.3552  0.0745  0.8970
 7841WAT    EPW32072   6.985   0.694   3.966 -0.1328  0.3054  0.0828
 7842WAT      O32073   4.546   3.455   7.386 -0.5389  0.6666  0.2163
 7842WAT     H132074   4.625   3.458   7.348 -0.5171  1.1204  0.2995
 7842WAT     H232075   4.564   3.431   7.468 -0.4501  1.1729  0.3458
 7842WAT    EPW32076   4.560   3.452   7.392 -0.2047  0.0420  0.2939
 7843WAT      O32077   1.071   5.258   3.068  0.0834  0.6248 -0.3476
 7843WAT     H132078   0.996   5.302   3.072 -0.3050 -0.0260 -0.3964
 7843WAT     H232079   1.130   5.320   3.055 -0.0462  1.5427  2.5601
 7843WAT    EPW32080   1.069   5.274   3.067  0.3250  0.5439  0.1813
 7844WAT      O32081   2.059   4.996   3.849  0.0569 -0.8340 -0.4279
 7844WAT     H132082   2.101   5.029   3.780 -1.0887 -0.5186 -1.0046
 7844WAT     H232083   2.117   4.941   3.884  1.0496 -0.1879 -0.9975
 7844WAT    EPW32084   2.074   4.993   3.844 -0.1913  0.3764  0.0744
 7845WAT      O32085   0.699   4.531   3.909  0.4666  0.2568  0.1308
 7845WAT     H132086   0.696   4.444   3.917  2.2910  0.0004 -1.3369
 7845WAT     H232087   0.741   4.556   3.980 -2.0728  0.2637  1.7745
 7845WAT    EPW32088   0.705   4.522   3.920  0.6341  0.6323  0.1052
 7846WAT      O32089   3.041   1.784   3.603  0.5858 -0.0016 -0.5094
 7846WAT     H132090   3.065   1.866   3.587 -0.3019  0.3041 -0.3158
 7846WAT     H232091   2.955   1.790   3.621  0.6516 -0.8806  0.1852
 7846WAT    EPW32092   3.032   1.797   3.603  0.4775 -0.0515 -0.3298
 7847WAT      O32093   6.041   1.964   0.177 -0.6307 -0.3381  0.0030
 7847WAT     H132094   5.958   1.935   0.177 -0.0322 -2.1882 -0.4824
 7847WAT     H232095   6.079   1.916   0.115  1.0739 -0.3351  0.9923
 7847WAT    EPW32096   6.034   1.953   0.168 -0.5091 -0.1300  0.4265
 7848WAT      O32097   6.526   3.130   0.863  0.2717  0.0223 -1.3500
 7848WAT     H132098   6.566   3.128   0.940 -1.0913  0.4598 -0.5947
 7848WAT     H232099   6.531   3.214   0.839 -0.6674  0.2051 -0.9613
 7848WAT    EPW32100   6.533   3.142   0.871 -0.3317  0.5105  0.1541
 7849WAT      O32101   5.032   2.993   4.822  0.1687  0.3581  0.0971
 7849WAT     H132102   4.948   3.017   4.830  0.1032  0.2288 -0.2129
 7849WAT     H232103   5.041   2.976   4.737 -0.1703 -2.1747  0.5044
 7849WAT    EPW32104   5.021   2.994   4.811  0.0603 -0.6384 -0.2302
 7850WAT      O32105   0.052   5.264   3.213 -0.1241  0.1012  0.2322
 7850WAT     H132106  -0.033   5.260   3.230 -0.0000  0.9723  1.2218
 7850WAT     H232107   0.074   5.182   3.197 -0.9795 -0.2753  0.9070
 7850WAT    EPW32108   0.043   5.252   3.213 -0.1687 -0.0805  0.6084
 7851WAT      O32109   1.174   3.302   1.481  0.3647 -0.0766  0.1721
 7851WAT     H132110   1.257   3.327   1.468  0.0568  0.9174  0.0923
 7851WAT     H232111   1.134   3.325   1.407  0.1184 -1.0692 -0.0174
 7851WAT    EPW32112   1.181   3.309   1.468 -0.4373 -0.1645  0.4866
 7852WAT      O32113   4.130   0.038   7.369 -0.6716 -0.3181  0.3329
 7852WAT     H132114   4.217   0.028   7.364 -0.8357 -1.3782 -0.8527
 7852WAT     H232115   4.119   0.122   7.345 -0.0360 -0.4682 -0.5786
 7852WAT    EPW32116   4.141   0.049   7.364  1.0309 -0.1215 -0.0292
 7853WAT      O32117   4.957   6.656   2.808  0.9456  0.2200 -0.3903
 7853WAT     H132118   5.003   6.727   2.829  0.6304  0.0442  0.9793
 7853WAT     H232119   5.011   6.590   2.826  0.8801  0.0719 -0.7207
 7853WAT    EPW32120   4.972   6.657   2.814  0.1533 -0.3894 -0.6417
 7854WAT      O32121   2.042   4.756   4.150  0.2081  0.2204 -0.1069
 7854WAT     H132122   2.079   4.773   4.228  1.1988  2.0102 -0.9018
 7854WAT     H232123   1.985   4.821   4.141 -1.7341 -1.3669  0.1754
 7854WAT    EPW32124   2.039   4.768   4.160  0.0406 -0.6040 -0.1972
 7855WAT      O32125   3.951   2.170   3.660 -0.6671  0.2881 -0.0184
 7855WAT     H132126   3.897   2.121   3.611 -1.2405 -1.3082  2.0627
 7855WAT     H232127   4.028   2.129   3.653  0.2506  2.2082 -2.4765
 7855WAT    EPW32128   3.954   2.156   3.652  0.0653 -0.4655 -0.1746
 7856WAT      O32129   6.795   1.186   2.630  0.9126  0.2970 -0.2214
 7856WAT     H132130   6.769   1.103   2.621 -0.4224  0.6994 -0.1377
 7856WAT     H232131   6.873   1.178   2.669 -0.1167 -0.8558  1.7298
 7856WAT    EPW32132   6.803   1.173   2.634  0.2122 -0.1007  0.3270
 7857WAT      O32133   4.303   1.561   1.834  0.2195  0.1355  0.0638
 7857WAT     H132134   4.352   1.490   1.819  0.4043  0.4194 -0.7142
 7857WAT     H232135   4.223   1.535   1.810 -0.0210 -0.3137  1.2920
 7857WAT    EPW32136   4.299   1.546   1.828  0.2264  0.0709  0.0432
 7858WAT      O32137   1.985   6.852   4.147  0.1507  0.1580 -0.3435
 7858WAT     H132138   1.899   6.870   4.138 -0.2776 -0.1883  2.3228
 7858WAT     H232139   2.016   6.923   4.188  0.8958 -0.2153 -0.2552
 7858WAT    EPW32140   1.977   6.865   4.152 -0.5333  0.3522 -0.2657
 7859WAT      O32141   6.340   2.150   0.892  0.0105  0.6003 -0.5174
 7859WAT     H132142   6.349   2.191   0.969  0.8765  1.5125 -1.0714
 7859WAT     H232143   6.421   2.126   0.872 -0.1283  0.8169 -1.3706
 7859WAT    EPW32144   6.353   2.153   0.901  0.1001 -0.0125  0.0487
 7860WAT      O32145   2.436   7.969   4.007  0.0357 -0.8637 -0.3755
 7860WAT     H132146   2.432   8.048   3.971 -2.6982  0.1853  1.8209
 7860WAT     H232147   2.522   7.951   4.008  0.6915  1.7339 -1.5713
 7860WAT    EPW32148   2.448   7.978   4.002  0.6548 -0.1677  0.1787
 7861WAT      O32149   4.277   1.725   2.541 -0.1622 -0.2616 -0.1169
 7861WAT     H132150   4.303   1.759   2.465 -0.8021  0.8514  0.1334
 7861WAT     H232151   4.322   1.770   2.600 -0.1995 -0.6246  0.1944
 7861WAT    EPW32152   4.288   1.737   2.538  0.2000 -0.1382 -0.1367
 7862WAT      O32153   4.971   5.184   6.696  0.2928 -0.9476 -0.0374
 7862WAT     H132154   5.042   5.161   6.651  1.7107  1.5907  0.7054
 7862WAT     H232155   5.003   5.215   6.771 -1.5588  0.5962  0.2027
 7862WAT    EPW32156   4.986   5.185   6.700  0.3754 -0.6500  0.2019
 7863WAT      O32157   5.258   2.790   2.125 -0.2832  0.1041  0.0028
 7863WAT     H132158   5.249   2.731   2.188  0.4857  1.3196  1.3297
 7863WAT     H232159   5.288   2.744   2.058 -1.0251 -1.2221  0.5378
 7863WAT    EPW32160   5.261   2.775   2.125 -0.1877 -0.0717  0.1130
 7864WAT      O32161   0.926   3.892   5.250 -0.0421 -0.6588  0.0133
 7864WAT     H132162   0.970   3.897   5.325 -0.6025 -1.5356  0.4088
 7864WAT     H232163   0.977   3.936   5.194  0.6905 -0.5400  0.7531
 7864WAT    EPW32164   0.940   3.899   5.253  0.3088  0.3129  0.0268
 7865WAT      O32165   6.527   2.239   2.481  0.1682 -0.0585  0.1470
 7865WAT     H132166   6.602   2.265   2.444  0.2006  1.5008  1.1750
 7865WAT     H232167   6.473   2.229   2.414  1.1464 -0.6611 -0.5677
 7865WAT    EPW32168   6.530   2.242   2.466  0.0967 -0.0105 -0.5842
 7866WAT      O32169   1.573   3.990   2.024 -0.0396  0.5428 -0.1518
 7866WAT     H132170   1.627   4.053   1.998  0.0213  0.2416 -0.7804
 7866WAT     H232171   1.544   4.019   2.101  1.4916  0.4138  0.5150
 7866WAT    EPW32172   1.577   4.004   2.032 -0.3343 -0.1855  0.1920
 7867WAT      O32173   7.673   0.867   3.001  0.1527 -0.2741 -0.3262
 7867WAT     H132174   7.737   0.926   2.994  1.0650 -0.7456  2.6211
 7867WAT     H232175   7.615   0.907   3.053  0.8558 -1.9073  1.8473
 7867WAT    EPW32176   7.674   0.882   3.008  0.3860 -0.0993  0.5242
 7868WAT      O32177   2.036   5.062   4.516 -0.4416 -0.5168 -0.1890
 7868WAT     H132178   2.097   5.115   4.548 -0.9361 -0.5291  0.8307
 7868WAT     H232179   1.972   5.066   4.576 -1.5706 -0.2770 -1.3479
 7868WAT    EPW32180   2.035   5.071   4.529  0.3102 -0.5045 -0.8538
 7869WAT      O32181   1.553   2.052   2.361 -0.2312 -0.2030  0.2376
 7869WAT     H132182   1.612   2.032   2.300 -2.3255 -2.1248 -1.3159
 7869WAT     H232183   1.570   1.996   2.425  0.8205  0.6081  0.7117
 7869WAT    EPW32184   1.564   2.041   2.361 -0.5575  0.0793 -0.4732
 7870WAT      O32185   6.373   7.234   5.005 -0.4974  0.0038 -0.1655
 7870WAT     H132186   6.449   7.192   5.006 -1.1041 -1.1189 -0.1725
 7870WAT     H232187   6.392   7.311   4.968  0.8031  0.0981  0.6343
 7870WAT    EPW32188   6.387   7.239   5.000  0.4744 -0.7105 -0.0078
 7871WAT      O32189   1.359   0.699   4.646 -0.1933 -1.0136 -0.8311
 7871WAT     H132190   1.368   0.784   4.625  2.2965 -1.1979 -0.8555
 7871WAT     H232191   1.406   0.659   4.584 -0.7813 -2.3639 -0.4225
 7871WAT    EPW32192   1.367   0.706   4.634  1.0220  0.4854 -0.5581
 7872WAT      O32193   6.670   5.534   2.656 -0.0809  0.4854  0.1839
 7872WAT     H132194   6.705   5.508   2.731  2.3184 -2.6572 -1.7820
 7872WAT     H232195   6.739   5.555   2.607 -1.3422  0.0232 -1.9340
 7872WAT    EPW32196   6.686   5.533   2.660 -0.3770 -0.1915 -0.0788
 7873WAT      O32197   5.930   0.936   3.126 -0.0184  0.5094 -0.3638
 7873WAT     H132198   5.974   0.988   3.072  2.3130 -0.0177  0.9287
 7873WAT     H232199   5.926   0.981   3.200 -2.4451  0.8725 -0.6253
 7873WAT    EPW32200   5.936   0.950   3.129  0.4514 -0.6528  0.0381
 7874WAT      O32201   6.228   1.552   1.611 -0.3231 -1.1154  0.9915
 7874WAT     H132202   6.200   1.484   1.563 -1.2529  0.2298 -0.4724
 7874WAT     H232203   6.167   1.613   1.598  2.3007  1.3667 -0.8917
 7874WAT    EPW32204   6.215   1.551   1.602  0.2171  0.0910 -0.0530
 7875WAT      O32205   2.362   2.581   4.645  0.7965  0.4899  0.0642
 7875WAT     H132206   2.373   2.496   4.629 -1.4909  0.4568 -1.9994
 7875WAT     H232207   2.393   2.619   4.574 -3.0260  0.8866 -1.6439
 7875WAT    EPW32208   2.368   2.574   4.632  0.6913  0.1116 -0.0733
 7876WAT      O32209   7.860   0.494   3.433  0.3984 -0.1248  0.1432
 7876WAT     H132210   7.838   0.559   3.379  1.2567  1.0083  1.1221
 7876WAT     H232211   7.823   0.516   3.508 -0.2701 -1.3840  0.2170
 7876WAT    EPW32212   7.851   0.507   3.436 -0.5223 -0.2488 -0.3046
 7877WAT      O32213   4.872   1.335   7.029 -0.0134  0.4513  0.0064
 7877WAT     H132214   4.924   1.396   7.063  0.9125 -0.2962 -0.0054
 7877WAT     H232215   4.854   1.364   6.949 -0.8326  1.4222  0.5281
 7877WAT    EPW32216   4.877   1.348   7.022  0.5764  0.5408 -0.3081
 7878WAT      O32217   1.143   3.602   3.068  0.2468  0.0379  0.9577
 7878WAT     H132218   1.138   3.549   3.137 -0.5563 -0.7347  0.3452
 7878WAT     H232219   1.224   3.589   3.038  0.2248 -0.4748  1.1134
 7878WAT    EPW32220   1.154   3.592   3.074  0.0340  0.4643 -0.1426
 7879WAT      O32221   4.102   7.031   7.458  0.1513 -0.2503 -0.1518
 7879WAT     H132222   4.103   6.981   7.530 -0.0999  0.5628  0.4331
 7879WAT     H232223   4.032   7.003   7.415  1.5216 -2.2568 -1.2104
 7879WAT    EPW32224   4.092   7.019   7.463  0.1480 -0.7502  0.4775
 7880WAT      O32225   2.984   4.834   2.860  0.0148  0.0782  0.4006
 7880WAT     H132226   3.017   4.795   2.931 -1.1565 -1.6244  0.0792
 7880WAT     H232227   2.998   4.919   2.875  3.0425 -0.3956  0.9801
 7880WAT    EPW32228   2.991   4.841   2.873  0.5728 -0.1596 -0.2100
 7881WAT      O32229   0.454   2.528   1.653 -1.1667 -0.1505  0.0203
 7881WAT     H132230   0.395   2.502   1.712 -0.2834 -0.9594  0.5841
 7881WAT     H232231   0.405   2.565   1.591 -2.0561  1.7520  1.7409
 7881WAT    EPW32232   0.438   2.530   1.653 -0.1992 -0.6207  0.2416
 7882WAT      O32233   0.857   2.047   3.606  0.5520 -0.0947 -0.4378
 7882WAT     H132234   0.918   2.096   3.566  0.5452  2.1234  1.9176
 7882WAT     H232235   0.890   1.967   3.604  2.4223  0.6380 -1.3376
 7882WAT    EPW32236   0.871   2.043   3.600  0.0602  0.5697 -0.0922
 7883WAT      O32237   5.573   7.364   0.864 -0.3297 -0.5477  0.2508
 7883WAT     H132238   5.528   7.405   0.927 -1.8527  0.3487 -1.3307
 7883WAT     H232239   5.646   7.411   0.858 -1.4775  1.2658 -0.6296
 7883WAT    EPW32240   5.577   7.377   0.873  0.3609 -0.5133  0.0176
 7884WAT      O32241   5.541   7.027   1.449 -0.4271 -0.0439 -0.0520
 7884WAT     H132242   5.493   6.990   1.511 -1.2108 -0.0931 -0.6748
 7884WAT     H232243   5.582   6.960   1.410 -0.5158 -0.0847 -0.0732
 7884WAT    EPW32244   5.540   7.012   1.452  0.7663  0.1079  0.3744
 7885WAT      O32245   3.417   1.522   0.810 -0.2326  0.1480  0.0236
 7885WAT     H132246   3.389   1.565   0.739 -1.6984 -2.4577 -1.1021
 7885WAT     H232247   3.504   1.517   0.797 -0.0834  2.1260 -0.0986
 7885WAT    EPW32248   3.426   1.528   0.797  0.0795  0.5230  0.3173
 7886WAT      O32249   3.319   4.568   2.410  0.2410 -0.4351 -0.2778
 7886WAT     H132250   3.315   4.548   2.325 -2.6276  1.6061 -0.7916
 7886WAT     H232251   3.377   4.633   2.413  1.0753 -1.1474 -0.4560
 7886WAT    EPW32252   3.327   4.575   2.398  0.1602  0.3329  0.0293
 7887WAT      O32253   7.594   3.113   2.356  0.3792 -0.3528  0.0739
 7887WAT     H132254   7.637   3.056   2.308  0.3086 -0.9177  0.6682
 7887WAT     H232255   7.628   3.102   2.436 -0.2481 -0.1911  0.3682
 7887WAT    EPW32256   7.605   3.103   2.361 -0.8544 -0.3652  0.1475
 7888WAT      O32257   1.996   3.066   3.043 -0.0012 -0.1707  0.6897
 7888WAT     H132258   2.045   3.028   2.981  0.5468  0.8664  0.4542
 7888WAT     H232259   1.930   3.100   2.998  0.9719  1.5455  0.4735
 7888WAT    EPW32260   1.994   3.065   3.027 -0.5115 -0.5676  0.4364
 7889WAT      O32261   6.610   1.438   0.402 -0.3369  0.8608 -0.0523
 7889WAT     H132262   6.655   1.369   0.375 -0.6127  0.3449  0.7566
 7889WAT     H232263   6.527   1.409   0.402 -0.4205  1.0874  0.5830
 7889WAT    EPW32264   6.604   1.423   0.398 -0.4649  0.2955 -0.0786
 7890WAT      O32265   3.519   4.823   1.102  0.1102  0.4947  0.9664
 7890WAT     H132266   3.565   4.753   1.123 -0.4091 -0.7406 -1.6431
 7890WAT     H232267   3.460   4.829   1.166  0.2409 -1.3790  1.3088
 7890WAT    EPW32268   3.517   4.814   1.114  0.4336 -0.2888  0.5398
 7891WAT      O32269   4.864   7.759   4.127  0.5410 -0.1006 -0.4104
 7891WAT     H132270   4.911   7.692   4.158  1.0670  0.2714 -0.3873
 7891WAT     H232271   4.843   7.734   4.046  0.8687 -0.2290 -0.4566
 7891WAT    EPW32272   4.868   7.745   4.120  0.0520  0.5812 -0.2343
 7892WAT      O32273   5.380   3.172   2.590  0.1664  0.1934  0.4299
 7892WAT     H132274   5.466   3.160   2.596  0.2314  0.4200  0.0099
 7892WAT     H232275   5.362   3.225   2.656 -0.1541 -2.2481  2.4573
 7892WAT    EPW32276   5.390   3.178   2.601  0.2281 -0.0085 -0.4198
 7893WAT      O32277   7.129   3.625   1.866 -0.6638  0.0423  0.8714
 7893WAT     H132278   7.204   3.670   1.872 -0.8873  0.3581  1.3026
 7893WAT     H232279   7.143   3.572   1.797  0.4831 -0.8879  1.7668
 7893WAT    EPW32280   7.142   3.624   1.857 -0.0769  0.5259  0.7111
 7894WAT      O32281   6.234   6.910   2.676 -0.0114 -0.2067  0.5650
 7894WAT     H132282   6.178   6.978   2.676 -1.2797 -1.1228 -1.7939
 7894WAT     H232283   6.188   6.845   2.711  0.4006 -0.4000  0.7543
 7894WAT    EPW32284   6.219   6.911   2.681 -0.3435 -0.4875  0.0034
 7895WAT      O32285   3.080   2.950   4.583  0.6684 -0.1028  0.6772
 7895WAT     H132286   3.019   2.891   4.603 -1.1681  1.0619 -1.1559
 7895WAT     H232287   3.083   3.002   4.653 -1.1662  0.3591  0.4641
 7895WAT    EPW32288   3.072   2.949   4.596  0.0101 -0.4007  0.3278
 7896WAT      O32289   1.903   1.748   2.250 -0.0027 -0.5017  0.2743
 7896WAT     H132290   1.934   1.667   2.238 -0.8500 -0.8096  0.0397
 7896WAT     H232291   1.822   1.743   2.217  0.3538  0.7795 -0.8425
 7896WAT    EPW32292   1.896   1.735   2.243  0.7868 -0.2836 -0.1418
 7897WAT      O32293   5.161   7.126   3.469  0.0465 -0.2701  0.3545
 7897WAT     H132294   5.095   7.175   3.440 -0.0402 -0.7546 -0.2960
 7897WAT     H232295   5.208   7.111   3.397  0.5186 -0.4638  0.6964
 7897WAT    EPW32296   5.159   7.131   3.454  0.4990  0.2551  0.3666
 7898WAT      O32297   3.692   3.102   5.972  0.1995 -0.0673  0.3109
 7898WAT     H132298   3.716   3.184   5.988 -1.0726  0.6136 -0.9896
 7898WAT     H232299   3.606   3.102   5.990  0.3523 -1.3851  1.2131
 7898WAT    EPW32300   3.683   3.114   5.977  0.0909 -0.8775 -0.8518
 7899WAT      O32301   5.120   3.520   1.003  0.0561  0.3417  0.1474
 7899WAT     H132302   5.199   3.528   0.969 -0.1942 -2.5260 -1.4156
 7899WAT     H232303   5.071   3.495   0.936 -1.3931 -1.4399  1.7437
 7899WAT    EPW32304   5.124   3.517   0.988  0.0305 -0.3837  0.5978
 7900WAT      O32305   3.508   7.927   4.223  0.0702 -0.7668 -0.6195
 7900WAT     H132306   3.486   7.843   4.233  0.4165 -0.8536 -0.5878
 7900WAT     H232307   3.463   7.967   4.287 -0.6577 -0.8276 -1.0800
 7900WAT    EPW32308   3.498   7.921   4.234 -0.2892  0.1168 -0.4597
 7901WAT      O32309   4.948   1.907   0.422 -0.2233 -0.2128  0.2758
 7901WAT     H132310   4.873   1.863   0.425 -0.9291  0.9576  0.4127
 7901WAT     H232311   4.953   1.934   0.339  1.6757 -2.9099 -0.6441
 7901WAT    EPW32312   4.938   1.904   0.410  0.8777  0.1544 -0.1171
 7902WAT      O32313   1.764   0.690   1.830 -0.4925 -0.3023  0.1662
 7902WAT     H132314   1.812   0.679   1.902 -0.0009 -0.6074 -0.2016
 7902WAT     H232315   1.685   0.710   1.861 -0.1520  0.1219  0.7781
 7902WAT    EPW32316   1.759   0.691   1.845  0.3258 -0.0613  0.3352
 7903WAT      O32317   2.581   4.218   0.746 -0.1888  0.1756  0.0907
 7903WAT     H132318   2.498   4.243   0.759 -0.5095 -1.1400  0.7451
 7903WAT     H232319   2.627   4.281   0.785 -0.8573  1.1586 -0.6731
 7903WAT    EPW32320   2.575   4.231   0.754  0.2206  0.0983  0.7439
 7904WAT      O32321   4.794   2.050   2.856 -0.2502  0.2701 -0.1137
 7904WAT     H132322   4.752   2.121   2.884  1.3127  1.0989  0.2358
 7904WAT     H232323   4.825   2.014   2.929  1.0483  0.6215 -0.4527
 7904WAT    EPW32324   4.793   2.055   2.871 -0.2664 -1.0099  0.0998
 7905WAT      O32325   3.625   6.830   1.873 -0.3314 -0.0799 -0.4763
 7905WAT     H132326   3.555   6.834   1.821 -0.0586  0.3252 -0.8065
 7905WAT     H232327   3.626   6.908   1.912  2.1252  1.4258 -3.2836
 7905WAT    EPW32328   3.615   6.842   1.871 -0.6274 -0.2741  0.4202
 7906WAT      O32329   2.656   3.855   1.143  0.0161  0.1023  1.0964
 7906WAT     H132330   2.605   3.793   1.177 -0.3555 -0.6023 -0.6297
 7906WAT     H232331   2.599   3.908   1.102  0.5793 -0.1758 -0.0742
 7906WAT    EPW32332   2.640   3.854   1.142  0.1317 -0.0062  0.0474
 7907WAT      O32333   3.619   1.760   2.396 -0.0319  0.6073 -0.4420
 7907WAT     H132334   3.663   1.821   2.353  0.4383  1.4956  1.2304
 7907WAT     H232335   3.637   1.776   2.479  0.1588 -1.8690  0.0627
 7907WAT    EPW32336   3.628   1.771   2.402  0.2538 -0.3630  0.4798
 7908WAT      O32337   3.217   1.393   4.103  0.3622 -0.3626 -0.0521
 7908WAT     H132338   3.135   1.422   4.094 -0.2891 -2.3654 -1.2652
 7908WAT     H232339   3.220   1.322   4.052  2.4296 -1.2019  1.0885
 7908WAT    EPW32340   3.205   1.386   4.094  0.0557  0.2870 -0.7047
 7909WAT      O32341   0.267   1.364   2.685  0.2343  0.3577  0.7991
 7909WAT     H132342   0.248   1.307   2.622 -1.1086  1.3698  0.2512
 7909WAT     H232343   0.354   1.364   2.687  0.3085  0.3394 -1.0816
 7909WAT    EPW32344   0.277   1.356   2.676  0.6061  0.3722  0.3441
 7910WAT      O32345   3.824   6.555   2.508 -0.2495  0.0156 -0.4743
 7910WAT     H132346   3.822   6.643   2.507  2.3758  0.1912  0.7966
 7910WAT     H232347   3.791   6.535   2.586 -0.6073 -0.1099 -0.6584
 7910WAT    EPW32348   3.819   6.565   2.520  0.0338 -0.1059 -0.5404
 7911WAT      O32349   4.448   3.071   2.134 -0.3600 -0.9881  0.7110
 7911WAT     H132350   4.465   3.146   2.094  1.7774 -1.3845  0.7440
 7911WAT     H232351   4.420   3.096   2.213 -2.1802 -0.2437 -0.1196
 7911WAT    EPW32352   4.447   3.085   2.140  0.3193 -0.7106  0.0854
 7912WAT      O32353   5.155   3.841   4.781 -0.7004  0.2356 -0.8226
 7912WAT     H132354   5.076   3.848   4.817 -0.3388 -1.1274  0.2894
 7912WAT     H232355   5.169   3.755   4.778  0.6871  0.4503 -1.1599
 7912WAT    EPW32356   5.146   3.829   4.786 -0.0073 -0.5947  0.1156
 7913WAT      O32357   5.986   0.208   5.382 -0.2583 -0.5692  0.3695
 7913WAT     H132358   5.947   0.158   5.442 -0.0704 -1.1713 -0.0044
 7913WAT     H232359   5.920   0.241   5.336 -0.4270  0.2706  1.1912
 7913WAT    EPW32360   5.971   0.205   5.384 -0.0563  0.1999  1.0008
 7914WAT      O32361   5.756   7.448   0.605  0.2689  0.3712 -0.2158
 7914WAT     H132362   5.815   7.443   0.541  0.2260 -1.3064 -0.1763
 7914WAT     H232363   5.757   7.368   0.639 -1.1127  0.6839  0.6121
 7914WAT    EPW32364   5.765   7.435   0.600 -0.0543 -0.3804  0.0135
 7915WAT      O32365   6.279   6.136   2.967  0.2742  0.0127  0.5725
 7915WAT     H132366   6.252   6.094   3.038 -0.4561 -1.1018 -0.3332
 7915WAT     H232367   6.212   6.130   2.912  1.4916 -0.8374 -0.9116
 7915WAT    EPW32368   6.265   6.129   2.969 -0.2294  0.1758 -0.0272
 7916WAT      O32369   3.017   3.708   0.854 -0.1300  0.3261  1.0518
 7916WAT     H132370   3.039   3.659   0.923 -2.9373 -0.2033  1.6876
 7916WAT     H232371   3.000   3.650   0.792  1.6967  0.7855  0.0399
 7916WAT    EPW32372   3.018   3.693   0.855 -0.2126  0.1386 -0.1006
 7917WAT      O32373   4.722   1.830   0.116  0.3654 -0.7322  0.2121
 7917WAT     H132374   4.753   1.895   0.068 -0.6252 -0.9051 -0.7121
 7917WAT     H232375   4.734   1.760   0.066  0.1314 -1.0503  0.5937
 7917WAT    EPW32376   4.728   1.829   0.102  0.1542  0.2246  0.2099
 7918WAT      O32377   4.572   0.842   2.700 -0.2642  0.1826  0.0970
 7918WAT     H132378   4.592   0.778   2.756  0.6302 -0.0085 -0.4308
 7918WAT     H232379   4.509   0.808   2.651  0.3913 -0.4115 -0.3602
 7918WAT    EPW32380   4.566   0.828   2.701 -0.8596  0.1494  0.7681
 7919WAT      O32381   5.238   6.518   7.318  1.2873  0.1482  0.0883
 7919WAT     H132382   5.259   6.472   7.389 -0.8780 -0.4968  0.3866
 7919WAT     H232383   5.237   6.459   7.254  1.8241  0.4571 -0.2155
 7919WAT    EPW32384   5.241   6.503   7.319 -0.1660 -0.0205 -0.6004
 7920WAT      O32385   6.260   1.863   4.317 -0.3698 -0.1631 -0.1948
 7920WAT     H132386   6.181   1.875   4.282 -0.5692 -0.9673 -0.0362
 7920WAT     H232387   6.251   1.892   4.399  0.3147  2.4910 -0.9510
 7920WAT    EPW32388   6.247   1.869   4.324  0.2778 -0.1714 -0.0039
 7921WAT      O32389   3.316   2.055   2.539  0.3506  0.1143  0.1723
 7921WAT     H132390   3.380   2.113   2.551  0.2085  0.1914  0.5812
 7921WAT     H232391   3.332   1.994   2.599 -0.2794  0.4207  0.6699
 7921WAT    EPW32392   3.328   2.055   2.550 -0.1019 -0.1807  0.3930
 7922WAT      O32393   1.574   0.069   3.034 -0.8813  0.4473 -0.1045
 7922WAT     H132394   1.634   0.017   2.998 -1.3149  0.1145 -0.3496
 7922WAT     H232395   1.498   0.029   3.017 -1.0506 -0.6822  2.6869
 7922WAT    EPW32396   1.572   0.056   3.026 -0.3972  0.3349 -0.0762
 7923WAT      O32397   5.363   4.234   5.058 -0.4555 -0.1065  0.3369
 7923WAT     H132398   5.353   4.184   4.987 -3.0466  0.7502  0.0137
 7923WAT     H232399   5.440   4.273   5.044 -0.0760 -1.2669 -1.1397
 7923WAT    EPW32400   5.373   4.232   5.045 -0.2937 -0.0035 -0.1660
 7924WAT      O32401   6.787   6.278   4.781 -0.1589 -0.1810  0.1204
 7924WAT     H132402   6.776   6.346   4.834  0.1465 -0.4540  0.5383
 7924WAT     H232403   6.756   6.306   4.705  0.2725  0.5450  0.2061
 7924WAT    EPW32404   6.780   6.292   4.778  0.1683  0.3028  0.4277
 7925WAT      O32405   7.605   7.367   1.249  0.0144 -0.1595  0.0124
 7925WAT     H132406   7.642   7.439   1.216  0.5648 -1.4813 -2.4933
 7925WAT     H232407   7.552   7.399   1.311  0.9361  2.3041 -0.3246
 7925WAT    EPW32408   7.603   7.383   1.253 -0.4400 -0.5877  0.9687
 7926WAT      O32409   4.686   5.286   2.903 -0.4258 -0.8897  0.3462
 7926WAT     H132410   4.716   5.278   2.821  0.4556  0.2040  0.5374
 7926WAT     H232411   4.602   5.308   2.891  0.0372  0.6462 -0.3190
 7926WAT    EPW32412   4.678   5.288   2.889  0.2472  0.0881 -0.3447
 7927WAT      O32413   0.880   6.337   2.619  0.5778 -0.9016  0.1232
 7927WAT     H132414   0.940   6.380   2.572  0.3403  1.6091  1.9048
 7927WAT     H232415   0.843   6.284   2.561  2.6084 -0.5057 -1.6734
 7927WAT    EPW32416   0.883   6.335   2.603 -0.1953 -0.6098 -0.3546
 7928WAT      O32417   0.671   7.303   2.594  0.2843  0.5228  0.2700
 7928WAT     H132418   0.652   7.317   2.678 -0.2272 -1.5813  0.5441
 7928WAT     H232419   0.753   7.273   2.596 -0.1762 -0.7753  0.1620
 7928WAT    EPW32420   0.681   7.301   2.606  0.0740  0.5038  0.3918
 7929WAT      O32421   3.519   3.522   3.060  0.2730 -0.0301 -0.2223
 7929WAT     H132422   3.558   3.577   3.115 -0.1157  1.2304 -1.1469
 7929WAT     H232423   3.450   3.493   3.105  1.4912 -1.2357  0.9399
 7929WAT    EPW32424   3.515   3.526   3.075  0.6932  0.8399  0.9931
 7930WAT      O32425   7.692   2.252   2.092 -0.0493 -0.5944  0.1181
 7930WAT     H132426   7.662   2.170   2.091  0.2311 -0.6914 -0.2304
 7930WAT     H232427   7.626   2.297   2.127 -1.1473 -0.5902 -1.8224
 7930WAT    EPW32428   7.678   2.247   2.097 -0.3896  0.0649  0.5678
 7931WAT      O32429   3.193   4.986   3.391  0.2615  0.0219  0.4344
 7931WAT     H132430   3.211   4.989   3.477 -2.1326 -0.8701  1.0614
 7931WAT     H232431   3.227   4.910   3.366  0.1915 -0.1367  0.8108
 7931WAT    EPW32432   3.201   4.975   3.400  0.0712  0.1365 -0.0976
 7932WAT      O32433   4.318   6.266   2.879  0.0326 -0.2666 -0.3786
 7932WAT     H132434   4.360   6.316   2.822  0.2073 -0.0723 -0.0827
 7932WAT     H232435   4.241   6.307   2.890  0.1007 -0.1652 -0.2801
 7932WAT    EPW32436   4.313   6.280   2.872  0.5863 -0.4843 -0.4669
 7933WAT      O32437   7.602   0.707   2.255  0.2863 -0.1271  0.5158
 7933WAT     H132438   7.656   0.655   2.300 -0.5220 -0.2622  1.3640
 7933WAT     H232439   7.656   0.764   2.217  1.0071  0.2569  2.0168
 7933WAT    EPW32440   7.618   0.708   2.256  0.1114  0.4520  0.0023
 7934WAT      O32441   7.388   3.795   3.808  0.1405 -0.0713  0.0753
 7934WAT     H132442   7.324   3.809   3.750  1.6239 -0.2456 -1.7220
 7934WAT     H232443   7.358   3.729   3.857 -0.4496 -1.2669 -1.7785
 7934WAT    EPW32444   7.374   3.787   3.806 -0.2551  0.0806  0.2411
 7935WAT      O32445   6.210   3.706   0.631  0.6232 -0.4497  0.7135
 7935WAT     H132446   6.268   3.761   0.667  1.9111  0.2912 -2.1701
 7935WAT     H232447   6.259   3.643   0.597  0.0788  0.7661 -2.8028
 7935WAT    EPW32448   6.226   3.705   0.631  0.7253  0.0920  0.3851
 7936WAT      O32449   1.663   6.354   2.217  0.3934  0.0040  0.6216
 7936WAT     H132450   1.594   6.391   2.179 -0.3361 -1.5312  0.3393
 7936WAT     H232451   1.709   6.322   2.150  0.1526 -0.9709  0.9010
 7936WAT    EPW32452   1.660   6.355   2.201 -0.6520 -0.4999 -0.3661
 7937WAT      O32453   2.005   3.602   7.229 -0.0544 -0.2230  0.2891
 7937WAT     H132454   2.068   3.596   7.170 -0.7379 -0.6445 -0.4183
 7937WAT     H232455   1.938   3.559   7.193 -0.7451  0.1972  1.0154
 7937WAT    EPW32456   2.004   3.595   7.215  0.1610  0.5136  0.1387
 7938WAT      O32457   2.348   2.223   0.794 -0.6574  0.9979 -0.1159
 7938WAT     H132458   2.382   2.177   0.859  0.8142  1.0137 -0.8246
 7938WAT     H232459   2.387   2.189   0.723  0.0161  2.8865 -0.7069
 7938WAT    EPW32460   2.359   2.211   0.793  0.1113  0.1133  0.2330
 7939WAT      O32461   5.677   0.777   6.800  0.1165  0.2675  0.1186
 7939WAT     H132462   5.601   0.813   6.825 -0.9641 -1.2415 -0.7856
 7939WAT     H232463   5.693   0.718   6.863  2.0289  2.3599  1.7539
 7939WAT    EPW32464   5.668   0.773   6.813  0.3985  0.4678  0.2448
 7940WAT      O32465   1.656   3.000   0.942  0.0689  0.0945 -0.0640
 7940WAT     H132466   1.607   3.018   0.873 -0.5793 -0.6928  0.1722
 7940WAT     H232467   1.659   2.913   0.944 -1.0242  0.0292  1.6067
 7940WAT    EPW32468   1.649   2.990   0.932  0.2790 -0.4588 -0.6337
 7941WAT      O32469   5.879   2.502   3.294 -0.0569  0.0938  0.6690
 7941WAT     H132470   5.817   2.452   3.257  0.3688 -0.1168  0.2241
 7941WAT     H232471   5.923   2.446   3.344  1.4581 -0.3950 -1.0889
 7941WAT    EPW32472   5.877   2.486   3.296  0.0183 -0.4705  0.3806
 7942WAT      O32473   5.502   7.712   2.343 -0.6763 -0.2175  0.6434
 7942WAT     H132474   5.423   7.680   2.363 -1.2734  0.9340  0.2446
 7942WAT     H232475   5.484   7.787   2.301  0.5952 -0.6608 -0.8196
 7942WAT    EPW32476   5.488   7.719   2.339 -0.3248  0.9332  0.2792
 7943WAT      O32477   1.080   7.414   0.366 -0.1695  0.4301  0.6227
 7943WAT     H132478   1.031   7.480   0.396  1.1799  1.2449  1.1667
 7943WAT     H232479   1.141   7.455   0.317 -1.2162 -0.7000 -1.8088
 7943WAT    EPW32480   1.082   7.430   0.363 -0.8395 -0.1340 -0.2382
 7944WAT      O32481   3.666   1.754   4.099 -0.1023  0.5668 -0.0927
 7944WAT     H132482   3.726   1.744   4.036  0.7086 -1.3604  0.8873
 7944WAT     H232483   3.614   1.685   4.088 -0.7490  0.9484  0.5377
 7944WAT    EPW32484   3.667   1.742   4.088 -0.1024  0.0463  0.5744
 7945WAT      O32485   0.027   2.148   4.058  0.4214  0.2882  0.0858
 7945WAT     H132486  -0.036   2.208   4.067 -0.7989 -0.8528 -0.4692
 7945WAT     H232487  -0.001   2.082   4.107  0.0001 -1.1109 -1.9121
 7945WAT    EPW32488   0.013   2.147   4.067 -0.0088  0.1052 -0.2375
 7946WAT      O32489   2.191   2.142   0.320  0.3142  0.2711  0.1148
 7946WAT     H132490   2.152   2.107   0.390 -0.1082  1.6132  0.5702
 7946WAT     H232491   2.147   2.216   0.307  1.7298  1.0716 -0.2873
 7946WAT    EPW32492   2.179   2.148   0.329  0.3781 -0.6422  0.2959
 7947WAT      O32493   3.541   5.532   6.310  0.2446  0.5680 -0.0765
 7947WAT     H132494   3.559   5.485   6.239  0.5012  0.7192 -0.1125
 7947WAT     H232495   3.618   5.566   6.332  0.7043 -1.3703  1.6585
 7947WAT    EPW32496   3.555   5.530   6.303 -0.0654  0.4618  0.3197
 7948WAT      O32497   4.538   4.718   0.673 -0.1735 -0.0976  0.4885
 7948WAT     H132498   4.470   4.771   0.663  0.2874  0.2167 -1.2803
 7948WAT     H232499   4.604   4.762   0.638  0.3583 -1.5324 -0.4309
 7948WAT    EPW32500   4.538   4.732   0.666  0.0966  0.8464 -0.5522
 7949WAT      O32501   4.943   2.373   7.024  0.9796 -0.4797 -0.0750
 7949WAT     H132502   5.023   2.356   7.054  0.7219 -2.6523 -0.4189
 7949WAT     H232503   4.912   2.294   7.002  0.1584  0.6252 -3.4928
 7949WAT    EPW32504   4.950   2.359   7.025 -0.0020 -0.0004 -0.1179
 7950WAT      O32505   4.791   1.377   4.365 -0.1961  0.0572 -0.2275
 7950WAT     H132506   4.764   1.408   4.289 -4.0554 -2.1261  0.0001
 7950WAT     H232507   4.720   1.339   4.398  1.4653  0.1601  4.1294
 7950WAT    EPW32508   4.776   1.376   4.359 -0.4107 -0.1323  0.2334
 7951WAT      O32509   6.521   0.837   3.943 -0.2069 -0.5830  0.5707
 7951WAT     H132510   6.462   0.900   3.951  1.0011  0.7028 -0.1578
 7951WAT     H232511   6.595   0.874   3.973  0.8127 -1.1748 -1.0627
 7951WAT    EPW32512   6.523   0.852   3.949  0.1660  0.5967 -0.1040
 7952WAT      O32513   6.638   0.702   2.326 -0.0438  0.3730 -0.0486
 7952WAT     H132514   6.586   0.711   2.256 -0.4348  0.9136  0.3039
 7952WAT     H232515   6.660   0.784   2.345 -0.2455  0.2572  0.6868
 7952WAT    EPW32516   6.634   0.716   2.318 -0.0885  0.8290  0.2905
 7953WAT      O32517   7.534   1.822   1.833 -0.3632  0.1497  0.8771
 7953WAT     H132518   7.567   1.861   1.903  0.4561 -0.8906  1.0866
 7953WAT     H232519   7.568   1.742   1.835  1.2222  0.6334 -1.7174
 7953WAT    EPW32520   7.544   1.816   1.844  0.4914 -0.0960 -0.3961
 7954WAT      O32521   0.424   6.498   4.527  0.3283  0.3037 -0.5923
 7954WAT     H132522   0.482   6.534   4.474  0.3634 -0.1094 -0.8406
 7954WAT     H232523   0.413   6.418   4.495 -1.0941  0.6754 -1.1301
 7954WAT    EPW32524   0.431   6.492   4.515  0.0048 -0.3276  0.2731
 7955WAT      O32525   5.640   3.490   4.655 -0.1747  0.2429  0.3255
 7955WAT     H132526   5.667   3.437   4.719  1.6375  2.2412  1.3645
 7955WAT     H232527   5.710   3.540   4.639 -1.6838  2.2042 -0.6544
 7955WAT    EPW32528   5.654   3.490   4.662  0.5079 -0.6297  0.0954
 7956WAT      O32529   4.182   2.928   2.274  0.3262 -0.2743 -0.5614
 7956WAT     H132530   4.212   3.007   2.295  1.2536 -0.7931  0.1394
 7956WAT     H232531   4.125   2.910   2.337 -1.8046  0.8279 -2.0397
 7956WAT    EPW32532   4.178   2.937   2.286  0.5635  0.2737  0.5575
 7957WAT      O32533   2.577   4.517   2.022  0.3805  0.1800 -0.1904
 7957WAT     H132534   2.575   4.583   2.080 -1.8539 -0.3035  0.3901
 7957WAT     H232535   2.523   4.544   1.959  1.9989  0.2512 -1.6203
 7957WAT    EPW32536   2.569   4.531   2.021 -0.2390  0.2288  0.1869
 7958WAT      O32537   2.800   1.206   7.434 -0.0273  0.0904 -0.7391
 7958WAT     H132538   2.823   1.288   7.453 -0.8739  0.4890 -1.3692
 7958WAT     H232539   2.737   1.189   7.491 -0.9026  0.4310 -1.5849
 7958WAT    EPW32540   2.794   1.216   7.445  0.3317  0.5041  0.3570
 7959WAT      O32541   0.750   0.319   3.376 -0.0556 -0.0644  0.4029
 7959WAT     H132542   0.665   0.314   3.394 -0.0099 -0.0556  0.6267
 7959WAT     H232543   0.755   0.294   3.293 -0.2925  0.0699  0.3476
 7959WAT    EPW32544   0.738   0.314   3.367  0.2647 -0.1589 -0.3602
 7960WAT      O32545   0.619   4.752   4.647  0.3232 -0.0449  0.0033
 7960WAT     H132546   0.646   4.677   4.683  0.7172 -0.1114 -0.4212
 7960WAT     H232547   0.534   4.740   4.635  0.3092 -0.2669  0.3196
 7960WAT    EPW32548   0.611   4.739   4.650 -0.0527 -0.5614 -0.3324
 7961WAT      O32549   2.616   0.979   7.894 -0.0323 -0.7272 -0.1845
 7961WAT     H132550   2.692   0.975   7.938  1.1149 -0.2637 -1.9967
 7961WAT     H232551   2.585   0.898   7.901  1.5375 -1.4415 -0.8762
 7961WAT    EPW32552   2.623   0.966   7.902  0.2938  0.1115  0.7408
 7962WAT      O32553   2.186   6.492   2.038  0.0378  0.3910 -0.0215
 7962WAT     H132554   2.100   6.498   2.025 -0.1021 -0.5900  0.3611
 7962WAT     H232555   2.220   6.522   1.964 -0.6612 -0.4644 -0.7167
 7962WAT    EPW32556   2.178   6.497   2.025  0.3971 -0.1539  0.5056
 7963WAT      O32557   2.338   7.203   7.405 -0.5987 -0.3156 -0.5808
 7963WAT     H132558   2.350   7.148   7.338 -2.0299 -0.2873 -0.8933
 7963WAT     H232559   2.260   7.239   7.388  1.0046  3.1788 -1.3408
 7963WAT    EPW32560   2.328   7.200   7.393  1.3972  0.3266 -0.6959
 7964WAT      O32561   3.276   6.781   3.768  0.1794 -0.2011 -0.0126
 7964WAT     H132562   3.335   6.827   3.814 -0.7236  0.5423  0.4442
 7964WAT     H232563   3.201   6.822   3.785 -0.4441 -1.0073 -0.7447
 7964WAT    EPW32564   3.274   6.794   3.778  0.3889  0.3551  0.4017
 7965WAT      O32565   1.573   5.676   3.606 -0.2445 -0.6097 -0.2524
 7965WAT     H132566   1.545   5.651   3.528 -0.4017 -1.9392  0.2067
 7965WAT     H232567   1.632   5.615   3.628  0.1049 -0.0295  0.4835
 7965WAT    EPW32568   1.578   5.664   3.598  0.4149 -0.3754  0.2869
 7966WAT      O32569   2.125   3.981   6.286  0.4805  0.2950 -0.2480
 7966WAT     H132570   2.146   4.017   6.210  1.2331  0.0490 -0.1643
 7966WAT     H232571   2.154   4.038   6.345 -0.1477  0.5106 -0.1345
 7966WAT    EPW32572   2.132   3.994   6.284  0.2038  0.4082 -0.3287
 7967WAT      O32573   2.863   2.871   7.539 -0.2577  0.2228  0.1834
 7967WAT     H132574   2.819   2.879   7.613  0.4188 -1.3486  0.8048
 7967WAT     H232575   2.828   2.801   7.501  1.0546 -0.5293  0.2741
 7967WAT    EPW32576   2.852   2.862   7.544  0.9896  0.0625 -0.5364
 7968WAT      O32577   5.290   5.846   6.137  0.5535 -0.2803 -0.3561
 7968WAT     H132578   5.370   5.811   6.130 -0.7220 -3.8450  0.9046
 7968WAT     H232579   5.256   5.833   6.058  1.6731  3.0364 -1.5607
 7968WAT    EPW32580   5.297   5.839   6.124 -0.0433 -0.2502 -0.4675
 7969WAT      O32581   6.518   3.989   1.206  0.2634  0.4812 -0.0044
 7969WAT     H132582   6.488   3.980   1.287  0.5998  0.0909  0.0773
 7969WAT     H232583   6.547   3.910   1.186 -0.4121  0.4057 -0.7509
 7969WAT    EPW32584   6.518   3.976   1.215  0.2006 -0.4116 -0.1800
 7970WAT      O32585   6.249   4.998   1.001 -0.3260  0.4194  0.0741
 7970WAT     H132586   6.244   5.052   0.932  0.2009 -0.5404 -0.7377
 7970WAT     H232587   6.226   5.049   1.068  0.5757  1.7716 -0.6041
 7970WAT    EPW32588   6.245   5.014   1.001  0.5443  0.3674 -0.5265
 7971WAT      O32589   5.997   2.261   1.560 -0.3078  0.6764  0.3869
 7971WAT     H132590   5.963   2.337   1.534 -2.5443  0.0725  1.3047
 7971WAT     H232591   5.935   2.203   1.540  1.0965 -0.8427  0.2393
 7971WAT    EPW32592   5.983   2.263   1.553  0.5151 -0.5827 -0.2495
 7972WAT      O32593   7.106   2.045   1.117  0.0083  0.2368  0.1271
 7972WAT     H132594   7.076   2.102   1.059  2.4669  1.3173 -0.2058
 7972WAT     H232595   7.055   1.975   1.106 -1.0536  1.2404 -1.6988
 7972WAT    EPW32596   7.094   2.043   1.107 -0.7526 -0.7892  0.0455
 7973WAT      O32597   5.991   0.660   3.164  0.5651 -0.0526 -0.4035
 7973WAT     H132598   5.987   0.746   3.146 -3.7910  0.3500  1.1281
 7973WAT     H232599   6.037   0.657   3.238  2.3227  0.6399 -1.4045
 7973WAT    EPW32600   5.997   0.673   3.172 -0.4683  0.1238  0.0390
 7974WAT      O32601   5.758   7.184   4.924  0.0152 -0.2873  0.4405
 7974WAT     H132602   5.805   7.112   4.941  0.9726  0.0096 -0.7630
 7974WAT     H232603   5.805   7.248   4.960 -0.6785 -0.2204  1.2454
 7974WAT    EPW32604   5.772   7.183   4.932 -0.2143  0.3901 -0.2354
 7975WAT      O32605   4.645   4.364   4.437  0.0421 -0.4419 -0.0255
 7975WAT     H132606   4.614   4.287   4.463  2.3316 -1.2052  0.6826
 7975WAT     H232607   4.697   4.344   4.370 -0.5722  0.7220 -0.8861
 7975WAT    EPW32608   4.648   4.350   4.431 -0.4755 -0.6392 -0.1146
 7976WAT      O32609   0.831   6.487   3.389 -0.9930  0.2227  0.0983
 7976WAT     H132610   0.831   6.405   3.418 -0.5416  0.0091 -0.4881
 7976WAT     H232611   0.750   6.499   3.359 -1.0352 -0.0331  0.1105
 7976WAT    EPW32612   0.819   6.477   3.389 -0.3607  0.3269 -0.1657
 7977WAT      O32613   3.313   1.697   6.129 -0.2347 -0.2814 -0.0316
 7977WAT     H132614   3.240   1.707   6.082 -0.8496  0.4250  1.0380
 7977WAT     H232615   3.285   1.663   6.204  0.1724  2.1092  1.3021
 7977WAT    EPW32616   3.298   1.693   6.133  0.0180  0.2540  0.0282
 7978WAT      O32617   5.814   2.477   0.785 -0.2776  0.4571  0.0807
 7978WAT     H132618   5.901   2.476   0.778 -0.3545 -0.6045 -1.3316
 7978WAT     H232619   5.800   2.475   0.871  1.0980 -0.1835  0.3241
 7978WAT    EPW32620   5.825   2.476   0.796  0.3685 -0.0836 -0.0771
 7979WAT      O32621   7.120   4.821   1.209  0.6821  0.2789 -0.2053
 7979WAT     H132622   7.184   4.817   1.150 -0.6285  0.7875 -1.7542
 7979WAT     H232623   7.069   4.754   1.189  0.4527  0.1764  0.6805
 7979WAT    EPW32624   7.122   4.811   1.198 -0.3448 -0.5151 -0.5942
 7980WAT      O32625   3.980   4.177   6.621 -0.4672 -0.0783 -0.3879
 7980WAT     H132626   3.987   4.203   6.704 -0.8149 -0.5259 -0.2147
 7980WAT     H232627   4.031   4.106   6.618  1.3471  1.1743 -1.1221
 7980WAT    EPW32628   3.988   4.170   6.633  0.4774 -0.5042  0.0920
 7981WAT      O32629   6.982   6.946   1.802 -0.1431 -0.4040  1.1954
 7981WAT     H132630   6.930   6.997   1.850  0.8146  1.9142 -0.0724
 7981WAT     H232631   6.929   6.916   1.740 -0.5829 -0.4904  1.5993
 7981WAT    EPW32632   6.966   6.949   1.800  0.4478  0.1798  0.1494
 7982WAT      O32633   2.966   5.027   7.514  0.4083  0.1969 -0.0020
 7982WAT     H132634   2.925   5.069   7.449 -2.0745 -0.5112  1.0145
 7982WAT     H232635   3.047   5.017   7.483  0.3156  2.9890 -1.5316
 7982WAT    EPW32636   2.972   5.032   7.500  0.6179 -0.3376 -0.1228
 7983WAT      O32637   2.820   5.172   2.393 -0.6503 -0.2894  0.0072
 7983WAT     H132638   2.854   5.238   2.438 -0.1933  0.5874 -1.5295
 7983WAT     H232639   2.754   5.144   2.442  0.2633  0.1146  1.5353
 7983WAT    EPW32640   2.815   5.178   2.407  0.5182  0.3722  0.1071
 7984WAT      O32641   0.771   1.166   4.274  0.3097 -0.4248  0.1209
 7984WAT     H132642   0.814   1.239   4.255 -1.0061  0.1749 -0.7307
 7984WAT     H232643   0.689   1.185   4.252 -0.4343 -1.4478  1.8764
 7984WAT    EPW32644   0.765   1.179   4.268  0.0746  0.3480  0.1812
 7985WAT      O32645   5.275   5.508   1.309 -0.1723  0.0603  0.7585
 7985WAT     H132646   5.267   5.527   1.394  1.4103  0.3345  0.8797
 7985WAT     H232647   5.285   5.421   1.307 -1.2265 -0.0709  0.7473
 7985WAT    EPW32648   5.275   5.498   1.321 -0.0455  0.8656 -0.3014
 7986WAT      O32649   3.839   2.251   1.845  0.0342 -0.0146 -0.5496
 7986WAT     H132650   3.803   2.241   1.923 -1.5242  1.4859 -1.0320
 7986WAT     H232651   3.801   2.322   1.813  2.2133  0.6845 -1.8212
 7986WAT    EPW32652   3.828   2.260   1.852 -0.4143  0.1294  0.2126
 7987WAT      O32653   3.574   6.169   2.430 -0.8158  0.5425 -0.4286
 7987WAT     H132654   3.592   6.178   2.515 -1.9599  0.5704 -0.1782
 7987WAT     H232655   3.521   6.099   2.428 -1.7044  1.2101 -0.9770
 7987WAT    EPW32656   3.569   6.160   2.443  0.0007  0.2647  0.0654
 7988WAT      O32657   5.878   1.860   3.258  0.6192 -0.6542 -0.0958
 7988WAT     H132658   5.874   1.790   3.311 -0.7692 -0.6370 -0.1509
 7988WAT     H232659   5.801   1.859   3.216  0.9315  0.4178 -0.7306
 7988WAT    EPW32660   5.866   1.850   3.260 -0.0074 -0.5650  0.1630
 7989WAT      O32661   6.622   5.152   0.834 -0.7308 -0.1535  0.4265
 7989WAT     H132662   6.706   5.136   0.821 -0.7417  1.1161 -1.5347
 7989WAT     H232663   6.581   5.089   0.789 -0.8088  0.3718 -0.2455
 7989WAT    EPW32664   6.628   5.140   0.826  0.0470  0.2003  0.4661
 7990WAT      O32665   2.769   6.556   4.331 -0.0588  0.0917  0.5310
 7990WAT     H132666   2.856   6.550   4.332 -0.1418 -1.3452  1.2492
 7990WAT     H232667   2.749   6.547   4.246  0.4957  0.5893  0.3454
 7990WAT    EPW32668   2.779   6.554   4.318 -0.5730 -0.0849  0.0325
 7991WAT      O32669   3.048   2.450   3.249  0.2437 -1.1032 -0.0931
 7991WAT     H132670   2.966   2.441   3.221  0.5651 -2.2047 -0.7458
 7991WAT     H232671   3.040   2.458   3.335 -0.5940 -0.3590 -0.2251
 7991WAT    EPW32672   3.035   2.450   3.257  0.1571 -0.1304 -0.0101
 7992WAT      O32673   6.653   3.689   2.075  0.1745 -0.0295 -0.1246
 7992WAT     H132674   6.582   3.668   2.029  0.6112  2.9423 -2.4961
 7992WAT     H232675   6.718   3.653   2.029  0.4154 -0.4332  0.5113
 7992WAT    EPW32676   6.652   3.680   2.061 -0.4568  0.8798  0.2664
 7993WAT      O32677   4.016   6.418   3.107  0.0458  0.0001 -0.0713
 7993WAT     H132678   4.004   6.405   3.022 -0.1730 -1.5371  0.1564
 7993WAT     H232679   3.935   6.425   3.138 -0.1482 -2.9806  0.4393
 7993WAT    EPW32680   4.002   6.417   3.099  0.6953  0.0843  0.1511
 7994WAT      O32681   3.844   0.591   7.095 -0.3660  0.4218  0.1867
 7994WAT     H132682   3.788   0.658   7.103 -1.7240 -0.6530  0.1641
 7994WAT     H232683   3.875   0.581   7.176  0.0791  1.2451  0.1306
 7994WAT    EPW32684   3.840   0.599   7.108 -0.4378 -0.4550  0.1145
 7995WAT      O32685   5.736   7.215   1.531 -0.0092  0.8113 -0.3211
 7995WAT     H132686   5.670   7.160   1.519 -0.0804  0.7412  0.3368
 7995WAT     H232687   5.757   7.241   1.450 -0.0511 -0.0826 -0.6319
 7995WAT    EPW32688   5.730   7.211   1.517  0.2851  0.2130 -0.2402
 7996WAT      O32689   3.864   2.396   2.242  0.4039  0.7081  0.1866
 7996WAT     H132690   3.906   2.425   2.172  1.1401  0.6942  0.6166
 7996WAT     H232691   3.876   2.459   2.301 -0.0793  0.6501  0.3548
 7996WAT    EPW32692   3.872   2.410   2.240  0.7034 -0.6554  0.1403
 7997WAT      O32693   3.018   5.372   7.102  0.2704  0.2394  0.1158
 7997WAT     H132694   2.996   5.455   7.117  3.4766  1.3880 -0.7999
 7997WAT     H232695   3.002   5.362   7.017 -1.0462 -0.4888  0.4122
 7997WAT    EPW32696   3.012   5.383   7.091  0.2591  0.2767 -0.2281
 7998WAT      O32697   7.803   7.915   3.430 -0.6104 -0.2307  0.1189
 7998WAT     H132698   7.790   7.971   3.496 -0.0327 -1.2551  1.1500
 7998WAT     H232699   7.756   7.949   3.365 -1.1727  0.8411  1.0365
 7998WAT    EPW32700   7.794   7.929   3.430  0.5526 -0.1058 -0.4997
 7999WAT      O32701   4.806   6.225   7.125  0.0181  0.4364  0.0729
 7999WAT     H132702   4.726   6.204   7.152 -0.2197 -0.7299 -1.4329
 7999WAT     H232703   4.852   6.152   7.135  0.9315  1.1024  0.9610
 7999WAT    EPW32704   4.801   6.211   7.130  0.1113 -0.2001 -0.0779
 8000WAT      O32705   0.271   3.717   1.475 -0.2254  0.0172  0.7735
 8000WAT     H132706   0.230   3.640   1.487 -1.1236  0.1423 -1.1747
 8000WAT     H232707   0.219   3.774   1.516 -0.5006 -0.1857  0.7116
 8000WAT    EPW32708   0.257   3.714   1.483 -0.0157  0.6009 -0.0552
 8001WAT      O32709   5.038   7.445   0.854 -0.0165  0.2805 -0.0525
 8001WAT     H132710   5.092   7.498   0.811  1.1882 -0.6293  0.2757
 8001WAT     H232711   5.085   7.418   0.922  0.2927 -2.8086 -1.2765
 8001WAT    EPW32712   5.053   7.449   0.857 -0.0744 -0.4665  0.1142
 8002WAT      O32713   3.767   1.492   7.762 -1.0323  0.3534 -0.2953
 8002WAT     H132714   3.761   1.463   7.679 -3.4955 -0.3090  0.0494
 8002WAT     H232715   3.685   1.506   7.785 -0.4595 -0.0709  2.2758
 8002WAT    EPW32716   3.754   1.489   7.753  0.1808 -0.6126  0.2917
 8003WAT      O32717   2.154   1.418   6.334 -0.5855 -0.1574  0.0355
 8003WAT     H132718   2.236   1.405   6.306  0.5578  2.1073  1.9629
 8003WAT     H232719   2.128   1.488   6.288 -0.9241 -0.0476  0.3880
 8003WAT    EPW32720   2.163   1.427   6.323 -0.2628  0.6096  0.3937
 8004WAT      O32721   2.286   2.735   6.267 -0.4735 -0.3733  0.6940
 8004WAT     H132722   2.301   2.817   6.293 -0.2632 -0.5628  1.1723
 8004WAT     H232723   2.269   2.744   6.181  1.5944 -0.0753  0.2800
 8004WAT    EPW32724   2.286   2.749   6.258  0.1997 -0.0506  1.0906
 8005WAT      O32725   4.239   1.400   0.623  0.2844  0.4611 -0.0869
 8005WAT     H132726   4.265   1.438   0.697  0.7296 -0.2350  0.1194
 8005WAT     H232727   4.209   1.467   0.576 -4.9107  0.4974  2.5777
 8005WAT    EPW32728   4.238   1.416   0.627 -0.0760  0.7879 -0.5108
 8006WAT      O32729   1.592   4.945   1.294 -0.0236 -0.1768  0.8538
 8006WAT     H132730   1.661   4.907   1.256  0.5978  0.4834  1.3072
 8006WAT     H232731   1.529   4.885   1.284  0.3479 -0.4046 -0.3976
 8006WAT    EPW32732   1.593   4.930   1.287  0.4065  0.2505  0.1199
 8007WAT      O32733   2.615   3.429   3.048 -0.2771  0.5009  0.3806
 8007WAT     H132734   2.629   3.507   3.012 -1.6894  0.8537  0.5569
 8007WAT     H232735   2.695   3.395   3.054  0.1960  1.1915 -1.3382
 8007WAT    EPW32736   2.629   3.436   3.044  0.6423  0.2370  0.1655
 8008WAT      O32737   0.697   0.834   1.631  0.3754 -0.1975  0.8086
 8008WAT     H132738   0.639   0.776   1.662 -0.8692  0.0381 -0.9360
 8008WAT     H232739   0.704   0.892   1.696 -0.3380 -0.9390  1.5678
 8008WAT    EPW32740   0.689   0.834   1.645  0.1483  0.4390  0.3428
 8009WAT      O32741   3.381   3.244   1.961  0.6301 -0.1226 -0.2380
 8009WAT     H132742   3.453   3.197   1.944  0.5110 -0.4722  0.1971
 8009WAT     H232743   3.383   3.253   2.048  0.0270 -0.3333 -0.1973
 8009WAT    EPW32744   3.392   3.239   1.971  0.2934 -0.6236 -0.0545
 8010WAT      O32745   2.906   0.953   1.787 -0.0100  0.2526  0.2535
 8010WAT     H132746   2.924   1.037   1.770  0.2435 -0.0392 -0.9552
 8010WAT     H232747   2.861   0.957   1.862 -2.8712  1.7625 -1.4157
 8010WAT    EPW32748   2.902   0.966   1.796  0.1095  0.5747  0.6770
 8011WAT      O32749   1.038   1.191   2.040 -0.0614  0.2907  0.0411
 8011WAT     H132750   1.004   1.122   2.081 -1.3319  0.3587 -0.8378
 8011WAT     H232751   0.968   1.231   2.007  0.7345  1.5309 -0.1769
 8011WAT    EPW32752   1.023   1.186   2.041  0.5098  0.2375  1.0065
 8012WAT      O32753   7.844   2.916   3.075 -0.3807  0.3804 -0.5721
 8012WAT     H132754   7.817   2.943   3.153 -0.5577  1.3918 -0.9740
 8012WAT     H232755   7.879   2.988   3.039 -0.8295  0.0780 -1.6508
 8012WAT    EPW32756   7.845   2.931   3.081  0.1031 -0.5947  0.1833
 8013WAT      O32757   4.859   3.626   1.303  0.2461 -0.1257  0.2310
 8013WAT     H132758   4.928   3.673   1.278 -0.6568  1.3791  0.4603
 8013WAT     H232759   4.867   3.623   1.390 -0.3608  0.7253  0.3311
 8013WAT    EPW32760   4.871   3.632   1.312  0.3638 -0.0634 -0.3225
 8014WAT      O32761   4.848   2.478   8.056 -0.6890 -0.1961  0.3734
 8014WAT     H132762   4.895   2.449   7.988 -0.1614 -1.7196  1.3308
 8014WAT     H232763   4.907   2.519   8.105 -0.5174 -1.2966  1.1194
 8014WAT    EPW32764   4.864   2.480   8.053  0.0639 -0.0464  0.3568
 8015WAT      O32765   5.566   3.353   6.577 -0.9227 -0.1315 -0.2310
 8015WAT     H132766   5.565   3.440   6.581 -0.9148 -0.1688  2.1667
 8015WAT     H232767   5.635   3.331   6.627 -1.5885 -1.5262  0.1190
 8015WAT    EPW32768   5.576   3.362   6.585  0.0404 -0.5889 -0.4287
 8016WAT      O32769   2.779   2.709   0.312  0.2698  0.0223 -0.6419
 8016WAT     H132770   2.730   2.744   0.249  0.5276  0.5329 -0.5689
 8016WAT     H232771   2.850   2.680   0.270  0.7848  1.0356 -0.5038
 8016WAT    EPW32772   2.782   2.710   0.297  0.6872  0.2314 -0.3473
 8017WAT      O32773   4.176   1.955   3.395  0.0717  0.3563  0.1690
 8017WAT     H132774   4.174   2.017   3.334 -0.8181  0.8873  0.7116
 8017WAT     H232775   4.110   1.902   3.374 -0.0449  0.3699  0.4816
 8017WAT    EPW32776   4.166   1.957   3.383  0.6019  0.4473  1.1014
 8018WAT      O32777   4.406   3.906   2.625  0.1906 -0.4057 -0.3171
 8018WAT     H132778   4.427   3.919   2.709  0.5107  2.3688 -0.7251
 8018WAT     H232779   4.463   3.957   2.582  0.1682 -1.9148 -2.2653
 8018WAT    EPW32780   4.417   3.916   2.631 -0.0532 -0.7827  0.0783
 8019WAT      O32781   4.539   0.731   0.640  0.5921 -0.4163 -0.1257
 8019WAT     H132782   4.570   0.800   0.683  0.4551 -0.2446 -0.3029
 8019WAT     H232783   4.496   0.687   0.702 -1.3924  0.8877 -0.4808
 8019WAT    EPW32784   4.538   0.735   0.656  0.1177 -0.5041 -0.6557
 8020WAT      O32785   2.150   4.180   1.728  0.1762  0.4394 -0.1532
 8020WAT     H132786   2.212   4.125   1.756  0.8691  0.8147 -0.9324
 8020WAT     H232787   2.193   4.254   1.712 -0.8125  1.4110  1.3532
 8020WAT    EPW32788   2.165   4.183   1.730  0.0471  0.3653 -0.0546
 8021WAT      O32789   3.662   0.434   3.292  0.1808  0.2022  0.1393
 8021WAT     H132790   3.625   0.506   3.326 -1.3031 -0.3279 -0.2945
 8021WAT     H232791   3.649   0.442   3.207 -1.3192 -1.2675  0.1982
 8021WAT    EPW32792   3.655   0.446   3.285 -0.3347 -0.5110 -0.3082
 8022WAT      O32793   1.471   7.763   2.778  0.4529  0.3285  0.1773
 8022WAT     H132794   1.420   7.692   2.782  0.3502  0.3963  0.0628
 8022WAT     H232795   1.524   7.754   2.847  0.0042  0.4719  0.5440
 8022WAT    EPW32796   1.472   7.751   2.789  0.2519  0.4641 -0.3272
 8023WAT      O32797   2.860   2.749   4.813  0.4626  0.5664  0.7383
 8023WAT     H132798   2.891   2.691   4.756 -0.8213  0.6190 -0.0392
 8023WAT     H232799   2.795   2.788   4.771 -0.8757  0.2591  2.3932
 8023WAT    EPW32800   2.855   2.746   4.799  0.5962  0.2932  0.4930
 8024WAT      O32801   2.030   6.662   1.681  0.1843  0.5426 -0.0968
 8024WAT     H132802   2.112   6.651   1.709  0.6562  2.3587 -0.6472
 8024WAT     H232803   2.004   6.735   1.720 -1.3942 -0.2844  0.4825
 8024WAT    EPW32804   2.039   6.671   1.691 -0.0412 -0.2017  0.5394
 8025WAT      O32805   3.994   2.107   2.213  0.2160  0.0531  0.0413
 8025WAT     H132806   4.051   2.121   2.278  0.9147  0.3872 -0.6232
 8025WAT     H232807   3.966   2.187   2.193 -0.6323 -0.1262  0.4784
 8025WAT    EPW32808   3.998   2.121   2.220  0.2278 -0.2281  0.1702
 8026WAT      O32809   3.724   5.295   7.938 -0.1495  0.8562  0.0138
 8026WAT     H132810   3.717   5.225   7.989  0.3692 -0.5014 -1.7068
 8026WAT     H232811   3.803   5.327   7.957 -0.1560  0.6487  0.3878
 8026WAT    EPW32812   3.734   5.290   7.948 -0.5052  0.7727 -0.2947
 8027WAT      O32813   3.108   7.705   4.811 -0.9213 -0.2798  0.4792
 8027WAT     H132814   3.096   7.788   4.835  1.7673  0.7472 -1.2533
 8027WAT     H232815   3.158   7.673   4.874 -2.8949 -1.0651  1.7622
 8027WAT    EPW32816   3.113   7.712   4.824 -0.4175  0.1863  0.1388
 8028WAT      O32817   3.760   1.470   1.887  0.3319  0.2290 -0.2327
 8028WAT     H132818   3.719   1.399   1.916 -1.6964  0.8412 -1.3998
 8028WAT     H232819   3.723   1.534   1.934  1.3772  0.6316  0.0599
 8028WAT    EPW32820   3.749   1.469   1.899 -0.6725 -0.1807  0.3622
 8029WAT      O32821   2.066   6.270   3.741  0.0634 -0.1671 -0.1798
 8029WAT     H132822   2.014   6.226   3.796 -0.1054  0.1056 -0.1209
 8029WAT     H232823   2.120   6.208   3.711  0.1178 -0.3309  0.2424
 8029WAT    EPW32824   2.067   6.254   3.745  0.9977  0.5578 -0.3092
 8030WAT      O32825   3.544   0.675   2.038  0.0023 -0.6417  0.2971
 8030WAT     H132826   3.459   0.656   2.046 -0.4331  0.1524 -1.6322
 8030WAT     H232827   3.550   0.705   1.956  1.9373  0.4551  0.7681
 8030WAT    EPW32828   3.532   0.677   2.027 -0.5216  0.4340 -0.7550
 8031WAT      O32829   4.451   1.878   7.976  0.1354  0.0303  0.6654
 8031WAT     H132830   4.535   1.890   7.995  0.5018 -0.2623 -0.6509
 8031WAT     H232831   4.409   1.914   8.044  1.3050  0.8516  0.9827
 8031WAT    EPW32832   4.457   1.885   7.989  0.6004  0.3481 -0.0554
 8032WAT      O32833   6.282   6.831   1.507  0.3639 -0.2758 -0.1698
 8032WAT     H132834   6.366   6.806   1.510  0.4620  0.0800  0.0999
 8032WAT     H232835   6.242   6.774   1.560  0.3299 -0.8379 -0.7897
 8032WAT    EPW32836   6.289   6.818   1.515 -0.0074  0.7238 -0.4612
 8033WAT      O32837   5.091   2.192   2.313  0.1503 -0.7356  0.1805
 8033WAT     H132838   5.177   2.192   2.329  0.5607  0.5050 -1.6724
 8033WAT     H232839   5.060   2.253   2.366  0.2327 -1.7627  1.4673
 8033WAT    EPW32840   5.099   2.201   2.323 -0.2044 -0.2161  0.9394
 8034WAT      O32841   5.351   3.787   3.319  0.5346 -0.0741 -0.2231
 8034WAT     H132842   5.269   3.815   3.305  0.7223 -0.2814 -2.1121
 8034WAT     H232843   5.345   3.739   3.391 -1.0561 -0.2413 -0.4299
 8034WAT    EPW32844   5.338   3.784   3.327 -0.5578  0.0740 -0.2819
 8035WAT      O32845   7.040   4.331   0.824  0.1217  0.0159 -0.0225
 8035WAT     H132846   7.079   4.357   0.898 -1.0969 -1.1472  1.1046
 8035WAT     H232847   7.105   4.301   0.775  1.0626  1.5682  0.2086
 8035WAT    EPW32848   7.055   4.331   0.828 -0.2178 -0.4685  0.4036
 8036WAT      O32849   3.195   4.066   0.586 -0.5066  0.3282  0.3115
 8036WAT     H132850   3.280   4.048   0.577 -0.9678 -2.3144  0.4562
 8036WAT     H232851   3.175   4.106   0.511  0.4999 -0.6348 -0.5026
 8036WAT    EPW32852   3.205   4.069   0.573 -0.6102  0.3090  0.3656
 8037WAT      O32853   3.919   0.183   5.697  0.2927  0.7331 -0.3719
 8037WAT     H132854   3.954   0.103   5.701  1.0640  1.1145  1.9928
 8037WAT     H232855   3.837   0.167   5.670  0.6425 -0.7603 -0.6850
 8037WAT    EPW32856   3.912   0.169   5.694 -0.3738 -0.0350  0.4304
 8038WAT      O32857   0.512   3.903   4.730 -0.0581  0.3073 -0.2784
 8038WAT     H132858   0.452   3.852   4.768  1.8746 -0.8930  1.3639
 8038WAT     H232859   0.540   3.855   4.663  0.8851 -0.3192  0.5339
 8038WAT    EPW32860   0.507   3.888   4.726 -0.2746  0.0103  0.2938
 8039WAT      O32861   3.409   6.494   7.732 -0.2710  0.2820 -0.8342
 8039WAT     H132862   3.348   6.528   7.678  1.7438  1.9647 -2.2166
 8039WAT     H232863   3.408   6.409   7.713 -0.8423  0.5796 -2.2769
 8039WAT    EPW32864   3.400   6.486   7.721  0.2165 -0.4563 -0.4935
 8040WAT      O32865   2.819   0.474   1.523 -0.2022  0.1942  0.1433
 8040WAT     H132866   2.818   0.391   1.496  1.1311  0.1769  0.0740
 8040WAT     H232867   2.741   0.484   1.561 -1.0975 -0.5447 -1.4151
 8040WAT    EPW32868   2.807   0.463   1.525 -0.7003 -0.1573  0.7299
 8041WAT      O32869   4.622   1.482   4.131 -0.1369 -0.3538 -0.4680
 8041WAT     H132870   4.691   1.476   4.077 -0.3658  0.5017 -0.8584
 8041WAT     H232871   4.649   1.537   4.193  0.5000 -2.1148  0.9024
 8041WAT    EPW32872   4.636   1.489   4.132  0.3562 -0.4535  0.3135
 8042WAT      O32873   4.238   7.940   4.743  0.5115 -0.3289 -0.0454
 8042WAT     H132874   4.226   8.015   4.785  1.6473  0.1948 -0.6065
 8042WAT     H232875   4.268   7.886   4.805 -0.3259 -0.3435  0.3611
 8042WAT    EPW32876   4.241   7.943   4.758 -0.3440 -0.3536  0.3812
 8043WAT      O32877   0.172   0.744   0.831 -0.5408 -0.0236  0.0284
 8043WAT     H132878   0.123   0.816   0.828  0.0454  0.3708 -0.1362
 8043WAT     H232879   0.250   0.771   0.805 -0.5308 -0.9041 -0.9155
 8043WAT    EPW32880   0.176   0.759   0.827 -0.2497  0.4608 -0.0585
 8044WAT      O32881   2.885   0.234   4.046 -0.4240  0.4385  0.7747
 8044WAT     H132882   2.971   0.222   4.047 -0.3385  1.0696  1.3558
 8044WAT     H232883   2.865   0.248   4.130 -1.2897 -1.0451  0.8502
 8044WAT    EPW32884   2.895   0.234   4.058  0.4365 -0.3913 -0.2634
 8045WAT      O32885   6.619   1.994   3.460  0.4537  0.0321  0.0045
 8045WAT     H132886   6.693   1.973   3.502 -0.5927 -0.2321  1.8003
 8045WAT     H232887   6.645   2.056   3.405  2.0401 -0.1141  0.5138
 8045WAT    EPW32888   6.634   2.000   3.458  0.2918  0.1158  0.0335
 8046WAT      O32889   4.648   0.487   3.965 -0.3567 -0.4694  0.2324
 8046WAT     H132890   4.674   0.433   4.028  0.2221 -0.3166  0.1231
 8046WAT     H232891   4.593   0.438   3.918 -2.2413 -0.0792  1.8703
 8046WAT    EPW32892   4.643   0.472   3.968 -0.0601 -0.1509 -0.6340
 8047WAT      O32893   5.244   2.839   0.814  0.1919  0.1125  0.2585
 8047WAT     H132894   5.166   2.858   0.847  0.6360 -0.5566  1.7990
 8047WAT     H232895   5.234   2.852   0.728  0.0348  5.5912  0.8016
 8047WAT    EPW32896   5.231   2.843   0.806 -0.0040 -0.0740  0.3626
 8048WAT      O32897   7.425   6.968   0.502 -0.6011 -0.0440 -0.2581
 8048WAT     H132898   7.427   7.027   0.437 -0.0666  0.2500  0.0202
 8048WAT     H232899   7.475   7.004   0.564  1.5712 -1.7778 -0.9131
 8048WAT    EPW32900   7.432   6.982   0.502 -0.6146  0.3633  0.7312
 8049WAT      O32901   3.825   1.686   1.586  0.5684  0.3554  0.1381
 8049WAT     H132902   3.770   1.621   1.602  1.1814 -0.4233 -0.7916
 8049WAT     H232903   3.903   1.654   1.609  0.8036  0.9771  0.2377
 8049WAT    EPW32904   3.829   1.672   1.591  0.2481  0.0238 -0.3896
 8050WAT      O32905   3.073   4.728   2.439 -0.1411 -0.0946  0.3046
 8050WAT     H132906   3.125   4.660   2.422 -0.6235 -0.9055  1.8439
 8050WAT     H232907   3.105   4.792   2.389  1.6373 -0.8759  0.3675
 8050WAT    EPW32908   3.086   4.728   2.429  0.0004  0.0501 -0.2958
 8051WAT      O32909   6.725   1.529   2.710  0.4415  0.0616 -0.2716
 8051WAT     H132910   6.663   1.565   2.761 -0.0140  0.2043 -0.9125
 8051WAT     H232911   6.685   1.459   2.677  1.1551 -0.7549  0.5525
 8051WAT    EPW32912   6.710   1.524   2.713 -0.8906 -0.4006 -0.2601
 8052WAT      O32913   2.176   0.693   2.626 -0.2247  0.0946  0.2611
 8052WAT     H132914   2.191   0.748   2.560  0.0617  1.9705  1.8012
 8052WAT     H232915   2.185   0.615   2.590  0.9672  1.0568 -1.6827
 8052WAT    EPW32916   2.179   0.690   2.611 -0.4622 -0.2369  0.1973
 8053WAT      O32917   1.891   2.826   4.944  0.5646 -0.1855  0.1070
 8053WAT     H132918   1.974   2.845   4.927  0.6759 -1.1790 -0.5256
 8053WAT     H232919   1.851   2.836   4.867 -0.0016  0.6602  0.4782
 8053WAT    EPW32920   1.897   2.830   4.930 -0.2139  0.1867  0.0781
 8054WAT      O32921   2.719   1.240   0.142  0.2568 -0.5866  0.0293
 8054WAT     H132922   2.752   1.316   0.171  0.0485 -0.5270  0.1094
 8054WAT     H232923   2.774   1.181   0.175  0.2940 -0.4856  0.1521
 8054WAT    EPW32924   2.732   1.243   0.151  0.1613  0.0868 -0.1485
 8055WAT      O32925   2.591   0.528   2.504  0.2859 -0.1850 -0.0878
 8055WAT     H132926   2.505   0.513   2.498  0.3118 -0.9070  1.0340
 8055WAT     H232927   2.598   0.583   2.572  0.7076 -0.1580 -0.1500
 8055WAT    EPW32928   2.579   0.534   2.513 -0.3841  0.2220  0.0131
 8056WAT      O32929   1.746   7.677   0.645 -0.8236 -0.6122 -0.0586
 8056WAT     H132930   1.696   7.709   0.709  0.0350 -0.7645  0.6949
 8056WAT     H232931   1.735   7.591   0.651 -0.7485 -0.6261 -0.1216
 8056WAT    EPW32932   1.737   7.669   0.655  0.3307 -0.3936  0.5233
 8057WAT      O32933   4.016   0.799   6.824  0.0201 -0.5778  0.3020
 8057WAT     H132934   4.056   0.823   6.750  0.6678 -0.0710  0.8006
 8057WAT     H232935   4.073   0.747   6.863  0.2607  0.2299  1.0688
 8057WAT    EPW32936   4.030   0.795   6.819 -0.1145  0.6262 -0.1112
 8058WAT      O32937   2.429   2.792   0.509 -0.2867  0.0170 -0.2530
 8058WAT     H132938   2.478   2.841   0.562 -1.6864 -0.5807  1.7283
 8058WAT     H232939   2.358   2.775   0.557 -1.0147 -1.7494 -1.8274
 8058WAT    EPW32940   2.426   2.796   0.524  0.0233  0.4691 -0.5892
 8059WAT      O32941   7.621   4.366   1.400  0.5676 -0.4386 -0.8094
 8059WAT     H132942   7.575   4.438   1.413 -1.4038 -1.7191 -0.3097
 8059WAT     H232943   7.574   4.304   1.439  1.6193 -2.1883 -2.1857
 8059WAT    EPW32944   7.608   4.367   1.408 -0.3171 -0.6053 -0.6697
 8060WAT      O32945   4.897   6.979   1.908  0.0186  0.1160  0.5433
 8060WAT     H132946   4.839   7.027   1.863  0.1604  0.6053  0.8763
 8060WAT     H232947   4.951   6.950   1.847 -1.8950 -2.3182 -0.1363
 8060WAT    EPW32948   4.896   6.982   1.892 -0.3101  0.2588 -0.3311
 8061WAT      O32949   3.415   4.297   1.614 -0.0233 -0.3219 -0.8270
 8061WAT     H132950   3.398   4.219   1.648 -0.2012  0.4233  0.9305
 8061WAT     H232951   3.339   4.339   1.619  0.5198  0.5983  0.1329
 8061WAT    EPW32952   3.402   4.292   1.620 -0.4703  0.5586  0.5320
 8062WAT      O32953   2.100   7.954   2.113 -0.6509  0.2084 -0.0995
 8062WAT     H132954   2.115   7.875   2.147 -2.0824  0.3865  1.0291
 8062WAT     H232955   2.180   7.986   2.100 -0.0028 -0.1164  2.5873
 8062WAT    EPW32956   2.114   7.947   2.116  0.3901 -0.2841 -0.3405
 8063WAT      O32957   5.639   6.829   0.150 -0.4007 -0.6867  0.4410
 8063WAT     H132958   5.671   6.775   0.210 -2.8371 -1.2735  1.3354
 8063WAT     H232959   5.626   6.777   0.081  1.2763 -0.2615 -0.2442
 8063WAT    EPW32960   5.642   6.813   0.148 -0.0576 -0.2330  0.0535
 8064WAT      O32961   1.050   0.045   2.251  0.4672 -0.0093  0.0929
 8064WAT     H132962   0.987   0.061   2.309  1.0986  0.5909  0.6505
 8064WAT     H232963   1.022  -0.025   2.208  0.1534 -0.7236  1.3976
 8064WAT    EPW32964   1.037   0.037   2.254 -0.2607 -0.0126 -0.2920
 8065WAT      O32965   0.777   1.023   2.312 -0.3133 -0.7277  0.1875
 8065WAT     H132966   0.698   1.004   2.280 -0.2276 -1.6596  0.4795
 8065WAT     H232967   0.786   0.965   2.377  0.2982 -0.1285  0.6452
 8065WAT    EPW32968   0.767   1.011   2.317 -0.1346 -0.1965  0.0571
 8066WAT      O32969   2.166   7.496   2.619  0.0411  0.3030  0.5467
 8066WAT     H132970   2.225   7.457   2.568  0.2002  0.0130  0.9449
 8066WAT     H232971   2.155   7.574   2.582  1.3352  0.7070  0.9446
 8066WAT    EPW32972   2.173   7.502   2.606 -0.6949 -0.0597 -0.3045
 8067WAT      O32973   2.928   1.316   1.103  0.6673  0.0373  0.3896
 8067WAT     H132974   2.859   1.330   1.154  0.2846 -1.2495  0.2663
 8067WAT     H232975   2.938   1.391   1.060 -0.7686  0.1928  0.2903
 8067WAT    EPW32976   2.919   1.329   1.104 -0.2173  0.4357  0.1277
 8068WAT      O32977   5.809   1.591   5.901  0.8003  0.0147 -0.4153
 8068WAT     H132978   5.885   1.630   5.883  1.0725 -1.1433 -1.9832
 8068WAT     H232979   5.819   1.510   5.869 -1.0886 -0.1585 -0.7113
 8068WAT    EPW32980   5.821   1.585   5.893 -0.3702 -0.3432 -0.1826
 8069WAT      O32981   0.914   0.470   1.377  0.2344  0.1501  0.1493
 8069WAT     H132982   0.836   0.438   1.400  0.2755  0.0811  0.1929
 8069WAT     H232983   0.943   0.414   1.317  0.5297 -0.1769  0.5944
 8069WAT    EPW32984   0.907   0.457   1.371  0.0424 -0.1077  0.5151
 8070WAT      O32985   3.574   2.255   2.013 -0.4461 -0.5460  0.5293
 8070WAT     H132986   3.603   2.248   2.095  2.5624  0.9717 -0.2593
 8070WAT     H232987   3.549   2.338   2.006 -2.9869 -1.2459  0.4930
 8070WAT    EPW32988   3.575   2.266   2.024  0.5567  0.0116  0.1229
 8071WAT      O32989   4.922   4.519   1.122 -0.2890 -0.1778  0.0296
 8071WAT     H132990   4.875   4.533   1.194  0.2170  0.0513  0.3203
 8071WAT     H232991   4.904   4.436   1.101  1.0148 -0.8928  1.5119
 8071WAT    EPW32992   4.912   4.509   1.130  0.7565  0.7325 -0.4253
 8072WAT      O32993   4.454   3.063   1.204 -0.0154 -0.1787  0.2129
 8072WAT     H132994   4.466   2.977   1.195 -0.3503 -0.2902  0.7856
 8072WAT     H232995   4.535   3.094   1.214  0.2703 -0.2133 -1.5757
 8072WAT    EPW32996   4.468   3.055   1.204  0.1972  0.0441  0.2641
 8073WAT      O32997   3.829   5.016   2.606 -0.2861 -0.0141  0.0065
 8073WAT     H132998   3.848   5.100   2.619  3.4789 -0.6402 -0.1915
 8073WAT     H232999   3.799   4.990   2.683  1.2530  0.9763  1.0083
 8073WAT    EPW33000   3.827   5.024   2.619  0.0310  0.5817 -0.9132
 8074WAT      O33001   5.423   1.571   6.894 -0.5461 -0.6939  0.8406
 8074WAT     H133002   5.485   1.579   6.954 -0.0039  0.5928  0.1578
 8074WAT     H233003   5.467   1.547   6.822 -0.5249  1.8058 -0.0722
 8074WAT    EPW33004   5.439   1.568   6.892 -0.1550  0.1314  0.5417
 8075WAT      O33005   3.690   0.940   0.562  0.1723 -0.7035 -0.7128
 8075WAT     H133006   3.725   1.016   0.588 -3.2853  0.8891 -0.1655
 8075WAT     H233007   3.760   0.891   0.542  2.6582  1.7682  1.1438
 8075WAT    EPW33008   3.706   0.944   0.563  0.7454 -0.2596 -0.1505
 8076WAT      O33009   4.151   5.169   3.686  0.7497  0.6209 -0.0361
 8076WAT     H133010   4.080   5.185   3.735  0.7891  3.2131 -0.7093
 8076WAT     H233011   4.216   5.167   3.744  0.2754 -1.0636  0.5001
 8076WAT    EPW33012   4.150   5.171   3.702  0.0292 -0.3796 -0.1787
 8077WAT      O33013   2.490   6.176   4.948 -0.0900 -0.2124 -0.1833
 8077WAT     H133014   2.559   6.167   4.896 -0.6690 -1.1792 -0.8181
 8077WAT     H233015   2.485   6.262   4.961  1.1917 -0.1258 -0.1727
 8077WAT    EPW33016   2.499   6.188   4.942 -0.1488  0.0386 -0.0002
 8078WAT      O33017   2.957   4.526   6.390 -0.3177  0.3406  0.3319
 8078WAT     H133018   3.015   4.482   6.342  0.2287 -0.4293  1.6345
 8078WAT     H233019   2.919   4.463   6.438 -0.3053  1.1596  1.4510
 8078WAT    EPW33020   2.960   4.510   6.390  0.4793  0.4939  0.0514
 8079WAT      O33021   2.570   1.071   0.669  0.0929 -0.3397  0.0019
 8079WAT     H133022   2.498   1.080   0.717  0.1529  0.6686 -0.0734
 8079WAT     H233023   2.591   0.987   0.678  0.3386 -0.0981  2.0613
 8079WAT    EPW33024   2.562   1.060   0.677  0.2655 -0.7921  0.1459
 8080WAT      O33025   2.165   7.722   0.206  0.1532 -0.2036  0.3923
 8080WAT     H133026   2.232   7.673   0.235  0.5294 -0.7136 -1.2120
 8080WAT     H233027   2.171   7.714   0.119  0.3812  2.9328  0.0283
 8080WAT    EPW33028   2.176   7.714   0.197 -0.0501  0.0534 -0.0909
 8081WAT      O33029   6.024   0.469   7.640  0.0294 -0.2199 -0.7880
 8081WAT     H133030   6.069   0.541   7.617 -0.0198 -0.0930 -0.4909
 8081WAT     H233031   5.942   0.489   7.615  0.3166 -0.9378 -2.4580
 8081WAT    EPW33032   6.018   0.483   7.633 -0.1943 -0.4772 -0.8497
 8082WAT      O33033   3.116   2.995   4.188  0.4356  0.0634 -0.3885
 8082WAT     H133034   3.198   2.970   4.204  0.1781 -0.8153 -0.3767
 8082WAT     H233035   3.104   2.974   4.104  0.0934 -0.2005 -0.2765
 8082WAT    EPW33036   3.126   2.988   4.178 -0.5088 -0.5071  0.6795
 8083WAT      O33037   6.803   0.027   3.792 -0.1775  0.6517  0.2730
 8083WAT     H133038   6.841  -0.048   3.815  2.4753  2.3220  1.8639
 8083WAT     H233039   6.799   0.022   3.705  1.3385 -0.7108  0.2330
 8083WAT    EPW33040   6.808   0.015   3.783  0.1391  0.3834  0.2168
 8084WAT      O33041   7.680   2.885   4.830  0.3739 -0.2617 -0.6312
 8084WAT     H133042   7.667   2.837   4.758 -1.1566 -2.9499  1.2740
 8084WAT     H233043   7.714   2.828   4.887  1.9958  1.8891  0.7232
 8084WAT    EPW33044   7.683   2.869   4.828 -0.7815  0.1597  0.5764
 8085WAT      O33045   7.911   1.608   2.309  0.0535  0.3923 -0.0377
 8085WAT     H133046   7.906   1.555   2.240 -0.6043 -0.8809  0.9385
 8085WAT     H233047   7.973   1.573   2.358 -1.4685 -0.4639  1.3776
 8085WAT    EPW33048   7.919   1.595   2.306  0.8801  0.3659  0.3760
 8086WAT      O33049   2.539   6.164   7.387 -0.1799  0.5798 -0.0908
 8086WAT     H133050   2.574   6.177   7.466  2.8539 -0.3009 -1.1317
 8086WAT     H233051   2.562   6.081   7.369 -1.6058  0.4642 -1.5560
 8086WAT    EPW33052   2.548   6.153   7.396 -0.2742  0.5986 -0.2959
 8087WAT      O33053   6.203   0.278   2.828 -0.1408 -0.7840  0.0861
 8087WAT     H133054   6.180   0.357   2.856 -0.4434 -0.9046  0.1761
 8087WAT     H233055   6.158   0.267   2.755 -0.8243 -1.2493  0.5585
 8087WAT    EPW33056   6.193   0.288   2.822 -0.3510 -0.2694 -1.1256
 8088WAT      O33057   2.947   3.425   1.672 -0.5052 -0.1035 -0.0698
 8088WAT     H133058   3.022   3.469   1.668  0.7827 -2.1243  0.4183
 8088WAT     H233059   2.936   3.410   1.757 -1.1598 -0.3571 -0.1900
 8088WAT    EPW33060   2.956   3.429   1.684  0.3292 -0.3036  0.3828
 8089WAT      O33061   3.459   1.102   6.478 -0.3256  0.2001  0.9221
 8089WAT     H133062   3.464   1.184   6.450 -0.4897  0.5877  1.9645
 8089WAT     H233063   3.485   1.055   6.410  0.9153  1.1726  0.6971
 8089WAT    EPW33064   3.463   1.107   6.464 -0.5333  0.3708  0.7965
 8090WAT      O33065   2.680   4.669   4.233  0.1426 -0.4670 -0.8277
 8090WAT     H133066   2.636   4.639   4.164 -0.3726 -0.0542 -0.6823
 8090WAT     H233067   2.699   4.751   4.212 -1.0094  0.0291 -0.0254
 8090WAT    EPW33068   2.676   4.677   4.220  0.0408  0.5672  0.2314
 8091WAT      O33069   5.277   0.888   0.432 -0.0102  0.1852 -0.0163
 8091WAT     H133070   5.236   0.947   0.482  1.9521  3.0351 -1.5152
 8091WAT     H233071   5.360   0.892   0.459  0.3097 -1.5109 -0.6049
 8091WAT    EPW33072   5.283   0.897   0.444  0.3804  0.0118  0.3130
 8092WAT      O33073   2.879   7.004   6.019  0.2254 -0.3297 -0.3120
 8092WAT     H133074   2.949   6.985   5.970  0.4125 -0.5335  0.0330
 8092WAT     H233075   2.855   7.083   5.990  0.7758 -0.1302 -0.2356
 8092WAT    EPW33076   2.886   7.013   6.007  0.2089 -0.1812 -0.7299
 8093WAT      O33077   1.770   5.427   6.239  0.2006  0.3121 -0.4722
 8093WAT     H133078   1.708   5.376   6.206 -1.3537  2.6371 -1.4501
 8093WAT     H233079   1.776   5.401   6.322 -0.6863 -1.2530 -0.8552
 8093WAT    EPW33080   1.762   5.416   6.247 -0.5879  0.2740  0.1459
 8094WAT      O33081   2.289   0.427   0.150 -0.1152 -0.2417 -0.7115
 8094WAT     H133082   2.309   0.508   0.125 -0.4803 -0.1392 -0.6857
 8094WAT     H233083   2.315   0.424   0.234 -1.9183  0.5289 -0.0717
 8094WAT    EPW33084   2.296   0.438   0.159 -0.0660  0.4800  0.0855
 8095WAT      O33085   0.956   1.524   0.830 -0.5020  0.4913  0.5978
 8095WAT     H133086   1.030   1.534   0.876  0.3930  0.2868 -0.7447
 8095WAT     H233087   0.906   1.475   0.882  1.4300 -1.8928  0.3994
 8095WAT    EPW33088   0.960   1.518   0.845  0.4329 -0.6151 -0.1900
 8096WAT      O33089   3.782   4.678   6.374 -0.0885  0.5325  0.2271
 8096WAT     H133090   3.740   4.754   6.358 -2.3900 -1.1700 -3.2003
 8096WAT     H233091   3.813   4.656   6.295  0.8393 -1.9142  1.2014
 8096WAT    EPW33092   3.780   4.686   6.360  0.3223  0.0794 -0.1953
 8097WAT      O33093   0.593   1.778   0.378  0.2003  0.2122 -0.5525
 8097WAT     H133094   0.623   1.697   0.387 -2.0506 -0.8385 -1.7356
 8097WAT     H233095   0.510   1.773   0.406  0.0126  2.0941 -0.6458
 8097WAT    EPW33096   0.585   1.765   0.383 -0.5198  0.1298 -0.0881
 8098WAT      O33097   4.690   2.613   5.439 -0.6550 -0.0856  0.0419
 8098WAT     H133098   4.635   2.654   5.386 -0.3498  0.7964  0.3889
 8098WAT     H233099   4.731   2.678   5.480 -0.3084 -0.7418  0.7611
 8098WAT    EPW33100   4.688   2.629   5.437 -0.2700  0.0314 -0.5954
 8099WAT      O33101   5.171   1.325   2.353 -0.0780  0.1358  0.2007
 8099WAT     H133102   5.110   1.271   2.322 -0.3801  0.8664 -0.5152
 8099WAT     H233103   5.128   1.375   2.410  0.4199 -1.0263  1.6685
 8099WAT    EPW33104   5.156   1.324   2.357  0.5016  0.3507  0.4291
 8100WAT      O33105   4.175   2.517   2.924  0.2957 -0.1218 -0.0593
 8100WAT     H133106   4.136   2.487   2.996  0.5081  3.3592  1.7186
 8100WAT     H233107   4.240   2.566   2.954  0.0634  1.9818 -2.5659
 8100WAT    EPW33108   4.179   2.520   2.939  0.2417 -0.3435  0.1134
 8101WAT      O33109   1.465   4.394   7.773  0.1729 -0.3177  0.8581
 8101WAT     H133110   1.406   4.395   7.838 -0.3828 -0.9980  0.3745
 8101WAT     H233111   1.497   4.474   7.774 -0.1292 -0.1936  1.7144
 8101WAT    EPW33112   1.461   4.406   7.783 -0.3602  0.2738 -0.1189
 8102WAT      O33113   5.129   1.166   0.307 -0.4232  0.7778  0.6456
 8102WAT     H133114   5.115   1.210   0.233  1.3175 -1.1675 -0.9636
 8102WAT     H233115   5.117   1.083   0.285  1.6902 -0.0099  2.0761
 8102WAT    EPW33116   5.125   1.160   0.293 -0.1948  0.6447  0.1354
 8103WAT      O33117   1.597   1.421   1.484  0.4627 -0.1381  0.1459
 8103WAT     H133118   1.664   1.454   1.530  1.2854 -0.3565 -0.8459
 8103WAT     H233119   1.535   1.482   1.492  0.9181  0.2526  0.7747
 8103WAT    EPW33120   1.598   1.435   1.492 -0.3678  0.7441 -0.6171
 8104WAT      O33121   6.895   7.958   4.562  0.2326 -0.2221 -0.1109
 8104WAT     H133122   6.887   8.043   4.547 -2.1561  0.3644  3.3844
 8104WAT     H233123   6.964   7.953   4.616  1.2499 -0.7825 -1.3939
 8104WAT    EPW33124   6.904   7.970   4.568  0.1033  1.1991  0.1411
 8105WAT      O33125   3.391   3.884   7.615  0.2989  0.4959  0.0253
 8105WAT     H133126   3.467   3.887   7.657  1.1162  2.1728 -1.4454
 8105WAT     H233127   3.339   3.933   7.664  0.5212  0.3630  0.3979
 8105WAT    EPW33128   3.395   3.892   7.628 -0.9280  0.6246 -0.5168
 8106WAT      O33129   4.055   0.643   0.700 -0.5138 -0.4662 -0.3672
 8106WAT     H133130   3.992   0.596   0.737 -1.8289 -0.6090 -2.6524
 8106WAT     H233131   4.070   0.707   0.758 -1.6904 -1.2836  0.8699
 8106WAT    EPW33132   4.048   0.646   0.714 -0.2256  0.0058  0.5326
 8107WAT      O33133   5.110   5.906   1.800 -0.0378  0.9607  0.5035
 8107WAT     H133134   5.059   5.931   1.734 -1.0621  0.4458  1.0872
 8107WAT     H233135   5.089   5.961   1.865 -0.2051  0.4280  0.9008
 8107WAT    EPW33136   5.100   5.918   1.800 -0.3589 -0.2390 -0.0949
 8108WAT      O33137   3.641   3.367   6.651  0.2632  0.4439 -0.3583
 8108WAT     H133138   3.640   3.297   6.703  0.5194 -0.0330 -0.9903
 8108WAT     H233139   3.708   3.352   6.597  0.1935  1.0807 -0.6368
 8108WAT    EPW33140   3.651   3.354   6.651  0.2648  0.4209  0.5336
 8109WAT      O33141   3.568   6.101   0.763 -0.2903 -0.6034 -0.0656
 8109WAT     H133142   3.608   6.155   0.819 -0.7548  0.8884 -1.1105
 8109WAT     H233143   3.591   6.022   0.791  1.5304  0.1478  0.7209
 8109WAT    EPW33144   3.577   6.098   0.776 -0.1486  0.3066  0.3560
 8110WAT      O33145   3.742   4.056   7.070 -0.2611  0.0731 -0.3410
 8110WAT     H133146   3.702   4.071   7.147  0.2570 -0.9221  0.1318
 8110WAT     H233147   3.761   4.137   7.042  2.1776  0.4600  1.9685
 8110WAT    EPW33148   3.739   4.070   7.077 -0.2181 -0.1748 -0.0711
 8111WAT      O33149   4.815   5.889   5.026  0.1305 -0.1633  0.1051
 8111WAT     H133150   4.845   5.883   5.107 -0.9072  0.5211  0.5670
 8111WAT     H233151   4.729   5.873   5.035 -0.7650  3.5740 -0.2069
 8111WAT    EPW33152   4.807   5.886   5.039  0.1326  0.0993 -0.2048
 8112WAT      O33153   7.783   0.046   0.737 -0.6301 -0.0709 -0.0064
 8112WAT     H133154   7.799  -0.030   0.776 -0.5260  0.3722  0.8270
 8112WAT     H233155   7.861   0.084   0.733 -0.8009  0.3060  0.2489
 8112WAT    EPW33156   7.797   0.040   0.742 -0.3822 -0.6331 -0.4623
 8113WAT      O33157   5.109   2.666   1.026 -0.0360  0.0673 -0.4728
 8113WAT     H133158   5.168   2.623   0.979  0.1760 -0.8162  0.5553
 8113WAT     H233159   5.043   2.609   1.033 -0.0220  0.1365  0.3490
 8113WAT    EPW33160   5.108   2.651   1.020 -0.1246 -0.0612  0.0371
 8114WAT      O33161   5.040   7.411   0.356 -0.1301  0.4282  0.5876
 8114WAT     H133162   5.127   7.413   0.367  0.0928  0.9592 -1.0366
 8114WAT     H233163   5.029   7.350   0.295 -1.1458 -1.2278  2.2992
 8114WAT    EPW33164   5.051   7.402   0.349 -0.1187 -0.0558  0.2228
 8115WAT      O33165   2.073   0.833   6.209  0.1675  0.4573 -0.5819
 8115WAT     H133166   2.104   0.875   6.278  0.7138  0.1085 -0.6128
 8115WAT     H233167   2.025   0.769   6.244  2.1288 -1.0360 -0.4510
 8115WAT    EPW33168   2.070   0.830   6.224 -0.2213  0.6880 -0.2171
 8116WAT      O33169   3.150   1.615   5.126  0.2153 -0.7139  0.2350
 8116WAT     H133170   3.200   1.549   5.155  3.0181  0.1504 -2.1291
 8116WAT     H233171   3.148   1.602   5.040 -1.0894  1.0504 -0.0389
 8116WAT    EPW33172   3.157   1.603   5.117 -0.3413  0.4776 -0.5531
 8117WAT      O33173   6.475   7.419   0.697  0.6780 -0.2935 -0.3221
 8117WAT     H133174   6.406   7.398   0.649  0.7775 -0.9470 -0.1905
 8117WAT     H233175   6.451   7.492   0.738  0.2944 -0.1844 -0.7446
 8117WAT    EPW33176   6.461   7.426   0.696 -0.3978 -0.6817  0.4607
 8118WAT      O33177   1.322   7.415   7.520  0.2122 -0.6894 -0.5190
 8118WAT     H133178   1.397   7.406   7.564 -0.0329  2.4691  0.7532
 8118WAT     H233179   1.346   7.454   7.446  0.0187 -1.7289 -1.1652
 8118WAT    EPW33180   1.336   7.419   7.516 -0.5667  0.8217  0.4151
 8119WAT      O33181   3.315   0.686   1.080  0.4513 -0.4810  0.1911
 8119WAT     H133182   3.401   0.700   1.068  0.2294  2.8219  1.4407
 8119WAT     H233183   3.278   0.746   1.029 -0.9525  0.4741  2.2106
 8119WAT    EPW33184   3.323   0.697   1.071 -0.2597  0.1628 -0.3754
 8120WAT      O33185   6.163   0.690   7.556 -0.1686 -0.5761  0.5412
 8120WAT     H133186   6.203   0.637   7.499  1.6446 -0.2312  1.4151
 8120WAT     H233187   6.106   0.735   7.506  2.0185  0.4154 -1.2616
 8120WAT    EPW33188   6.160   0.689   7.540  0.1753 -0.2144 -0.1311
 8121WAT      O33189   5.150   0.214   4.342 -0.2007  0.1008  0.0359
 8121WAT     H133190   5.132   0.130   4.353  2.1823 -0.3015  1.6171
 8121WAT     H233191   5.180   0.219   4.261  0.4789 -0.7525  0.2313
 8121WAT    EPW33192   5.152   0.202   4.332 -0.4750  0.0422 -0.7923
 8122WAT      O33193   5.822   2.890   4.777 -0.1919  0.4101 -0.4062
 8122WAT     H133194   5.906   2.914   4.776 -0.7273  2.6484  1.3888
 8122WAT     H233195   5.812   2.853   4.856 -0.6977 -0.8270 -1.0138
 8122WAT    EPW33196   5.833   2.888   4.789 -0.0883 -0.5170  0.7133
 8123WAT      O33197   2.767   5.963   6.264 -0.2785 -0.1485  0.2410
 8123WAT     H133198   2.701   5.938   6.211 -0.2927 -0.5123  0.4262
 8123WAT     H233199   2.726   6.005   6.329 -0.3412 -0.4628  0.4084
 8123WAT    EPW33200   2.751   5.965   6.266  0.1736  0.7657 -0.6029
 8124WAT      O33201  -0.009   7.991   2.838  0.0663  0.2223  0.2516
 8124WAT     H133202   0.051   8.053   2.853 -0.1532  0.6010 -0.4101
 8124WAT     H233203   0.014   7.927   2.893  1.7462 -0.0904 -0.7266
 8124WAT    EPW33204   0.003   7.991   2.848  0.5807 -0.5393  0.3428
 8125WAT      O33205   7.121   7.923   1.622  0.3207  0.6423  0.2355
 8125WAT     H133206   7.122   7.991   1.567  1.6197  0.3038 -0.2010
 8125WAT     H233207   7.198   7.884   1.607  0.5858  0.3713  2.0754
 8125WAT    EPW33208   7.133   7.928   1.612 -0.5856  0.0110 -0.2994
 8126WAT      O33209   7.535   6.233   2.562 -0.3819  0.1219 -0.0435
 8126WAT     H133210   7.542   6.319   2.552 -1.7488  0.4885  1.6820
 8126WAT     H233211   7.495   6.207   2.489 -0.9861  1.1144 -0.0813
 8126WAT    EPW33212   7.531   6.242   2.550  0.2107 -0.1094  0.0851
 8127WAT      O33213   1.689   5.829   7.678  0.0372  0.5924  0.1702
 8127WAT     H133214   1.750   5.885   7.706  1.1714 -0.1953 -0.6324
 8127WAT     H233215   1.669   5.859   7.598 -0.2485  0.5491  0.2247
 8127WAT    EPW33216   1.695   5.842   7.670 -0.1205  0.2847 -0.2902
 8128WAT      O33217   1.905   0.256   7.977 -0.4631 -0.6359  0.0925
 8128WAT     H133218   1.890   0.283   8.058  0.6356 -0.2870  0.1801
 8128WAT     H233219   1.847   0.301   7.929 -0.7010 -0.4028  0.5968
 8128WAT    EPW33220   1.894   0.266   7.982 -0.5591 -0.1638  0.0345
 8129WAT      O33221   5.634   2.692   2.730 -0.1796 -0.1504 -0.2219
 8129WAT     H133222   5.681   2.619   2.724 -0.8587 -0.5750 -0.4528
 8129WAT     H233223   5.653   2.735   2.656 -0.7437 -0.6821 -0.6824
 8129WAT    EPW33224   5.644   2.688   2.718  0.3041  0.5252 -0.3056
 8130WAT      O33225   4.188   5.914   3.481  0.3351 -0.0817 -0.3153
 8130WAT     H133226   4.192   5.993   3.446  0.1204 -0.5972 -1.5722
 8130WAT     H233227   4.112   5.914   3.523  1.0990  0.9166  1.1366
 8130WAT    EPW33228   4.178   5.925   3.482  0.1747 -0.0420 -0.0822
 8131WAT      O33229   2.621   0.054   5.611  0.2368  0.6143  0.5500
 8131WAT     H133230   2.602  -0.016   5.659  0.1303  0.5798  0.4598
 8131WAT     H233231   2.675   0.023   5.550  1.8663  1.0230  1.7379
 8131WAT    EPW33232   2.626   0.039   5.609 -0.5201  0.8061  0.0260
 8132WAT      O33233   4.828   7.592   2.907  0.0071 -0.1903 -0.3311
 8132WAT     H133234   4.756   7.600   2.955 -0.0882 -0.0099 -0.5030
 8132WAT     H233235   4.885   7.646   2.946 -0.3505  0.6426 -0.9484
 8132WAT    EPW33236   4.826   7.601   2.920  0.1786  0.1493  0.1303
 8133WAT      O33237   5.340   1.342   3.637 -0.4054  0.0636 -0.0598
 8133WAT     H133238   5.340   1.420   3.598  1.6210 -0.0497 -0.3814
 8133WAT     H233239   5.290   1.354   3.708 -0.1269  1.6462 -0.0999
 8133WAT    EPW33240   5.332   1.355   3.642 -0.0374  0.3344  0.3568
 8134WAT      O33241   4.303   3.239   5.467 -0.4579 -0.0558  0.5683
 8134WAT     H133242   4.332   3.190   5.533  0.2281  0.7101  0.8405
 8134WAT     H233243   4.220   3.256   5.489 -0.3536 -0.1378  1.0243
 8134WAT    EPW33244   4.295   3.234   5.480 -0.0107  0.3294 -0.6561
 8135WAT      O33245   5.353   1.482   2.599  0.1150  0.1274 -0.1374
 8135WAT     H133246   5.374   1.428   2.664 -0.6984 -2.6902 -2.0444
 8135WAT     H233247   5.267   1.494   2.608  0.3859  1.8497  0.6927
 8135WAT    EPW33248   5.344   1.476   2.610  0.5410  0.2358 -0.0561
 8136WAT      O33249   6.870   3.245   1.111 -0.0403  0.5352  0.5085
 8136WAT     H133250   6.906   3.253   1.032 -0.9181  0.1308  0.0445
 8136WAT     H233251   6.843   3.326   1.129  1.1296  0.8546  0.8949
 8136WAT    EPW33252   6.871   3.258   1.102  0.2623 -0.0915 -0.0320
 8137WAT      O33253   4.258   1.596   2.112  0.5949  0.1740 -0.3362
 8137WAT     H133254   4.186   1.645   2.114 -1.7556 -2.9142 -1.2360
 8137WAT     H233255   4.274   1.586   2.027  1.2877 -0.2460 -0.1676
 8137WAT    EPW33256   4.250   1.602   2.100  0.6824  0.0184  0.5420
 8138WAT      O33257   1.926   0.591   3.102  0.2041 -0.2901  0.0835
 8138WAT     H133258   1.982   0.621   3.161 -0.1008  0.7671 -0.1462
 8138WAT     H233259   1.959   0.620   3.026 -0.6897  0.4322 -0.0468
 8138WAT    EPW33260   1.939   0.600   3.099 -0.1831  0.5612  0.1822
 8139WAT      O33261   1.303   4.507   7.270 -0.3342 -0.1023  0.5701
 8139WAT     H133262   1.228   4.548   7.289 -0.5008  0.2020 -0.6293
 8139WAT     H233263   1.317   4.456   7.339 -2.2849 -1.0768  0.3003
 8139WAT    EPW33264   1.294   4.506   7.283  0.3446 -0.4713 -0.3677
 8140WAT      O33265   0.133   4.522   0.341  0.0299 -0.1821 -0.1252
 8140WAT     H133266   0.143   4.601   0.377 -0.1318 -0.5787  0.8137
 8140WAT     H233267   0.200   4.517   0.285 -0.1925  0.7750 -0.5073
 8140WAT    EPW33268   0.144   4.533   0.338 -0.1484  0.1263 -0.4421
 8141WAT      O33269   4.420   1.697   5.154  0.6623  0.0358  0.2018
 8141WAT     H133270   4.442   1.728   5.075  0.7961 -1.4202 -0.3741
 8141WAT     H233271   4.486   1.644   5.174 -1.1902 -2.9186 -0.6863
 8141WAT    EPW33272   4.433   1.694   5.145 -0.0965 -0.1834  0.3844
 8142WAT      O33273   1.080   4.825   3.919 -0.7335  0.1470 -0.5476
 8142WAT     H133274   1.113   4.853   3.843 -0.5250  1.1738 -0.0946
 8142WAT     H233275   1.057   4.743   3.902 -1.2579  0.5504 -1.9017
 8142WAT    EPW33276   1.082   4.817   3.905 -0.2870  0.4071  0.0736
 8143WAT      O33277   0.705   7.989   0.072 -0.0776  0.3366 -0.3325
 8143WAT     H133278   0.698   8.072   0.048 -0.5132  0.3890 -0.0417
 8143WAT     H233279   0.632   7.952   0.042 -0.1037  0.1627 -0.0679
 8143WAT    EPW33280   0.693   7.996   0.064  0.2361  0.2812 -0.4966
 8144WAT      O33281   0.456   1.599   1.686 -0.6760 -0.0584 -0.4376
 8144WAT     H133282   0.377   1.631   1.703  0.2715  2.2996 -0.0961
 8144WAT     H233283   0.452   1.518   1.717 -2.8901  0.0288 -0.3109
 8144WAT    EPW33284   0.444   1.592   1.693  0.4103 -0.6540 -0.2786
 8145WAT      O33285   7.686   0.616   0.727 -0.2570  0.5129 -0.3847
 8145WAT     H133286   7.613   0.576   0.755 -0.0340  0.8810  0.7709
 8145WAT     H233287   7.673   0.699   0.749  0.5956  0.5425  0.0355
 8145WAT    EPW33288   7.673   0.622   0.735 -0.0590  0.5203  0.5442
 8146WAT      O33289   4.656   1.507   0.519 -0.3956 -0.0982 -0.2124
 8146WAT     H133290   4.672   1.580   0.564 -0.1265 -0.0722 -0.3472
 8146WAT     H233291   4.600   1.532   0.458 -1.1403 -0.2347  0.4020
 8146WAT    EPW33292   4.650   1.521   0.517  0.5170 -0.1069  0.3051
 8147WAT      O33293   3.190   2.345   5.392 -0.4310 -0.5568 -0.1183
 8147WAT     H133294   3.174   2.367   5.309  2.5572 -1.0907 -0.9306
 8147WAT     H233295   3.216   2.420   5.428  0.8758 -0.8376 -0.4311
 8147WAT    EPW33296   3.191   2.360   5.385  0.5051 -0.0102 -0.1259
 8148WAT      O33297   5.597   6.697   7.971  0.3026 -0.2505 -0.2131
 8148WAT     H133298   5.523   6.659   7.945  0.2503 -0.1608 -0.1954
 8148WAT     H233299   5.655   6.632   7.970  0.2776 -0.2699 -0.4559
 8148WAT    EPW33300   5.595   6.682   7.967  0.3304  0.2262  0.0786
 8149WAT      O33301   4.809   1.457   5.699 -0.6951 -0.0834  0.0524
 8149WAT     H133302   4.841   1.517   5.755  0.8786  1.2990 -2.1592
 8149WAT     H233303   4.862   1.464   5.630 -2.6137 -1.6353 -1.6829
 8149WAT    EPW33304   4.822   1.467   5.697 -0.5257  0.0592 -0.4204
 8150WAT      O33305   2.387   2.074   1.375 -0.5001 -0.6702  0.0667
 8150WAT     H133306   2.381   2.007   1.320 -1.3616  1.4466 -2.6372
 8150WAT     H233307   2.471   2.074   1.399 -0.2205 -1.9685 -0.8380
 8150WAT    EPW33308   2.399   2.064   1.371 -0.0831 -0.2360 -0.5810
 8151WAT      O33309   5.512   6.708   2.477  0.7319 -0.0538  0.6959
 8151WAT     H133310   5.575   6.766   2.497 -0.6704  2.2069 -1.0200
 8151WAT     H233311   5.439   6.752   2.493 -0.4065 -0.6833 -2.2322
 8151WAT    EPW33312   5.511   6.723   2.482  0.6249  0.1230  0.0648
 8152WAT      O33313   1.490   1.184   4.221  0.2577  0.4828  0.3819
 8152WAT     H133314   1.558   1.167   4.273  0.1393 -1.9510 -0.1477
 8152WAT     H233315   1.450   1.106   4.214 -1.8156  1.5510 -0.4121
 8152WAT    EPW33316   1.494   1.170   4.228 -0.0054  0.4352  0.1039
 8153WAT      O33317   3.569   1.217   0.869  0.2536 -0.1977  0.4971
 8153WAT     H133318   3.530   1.227   0.792  1.3250  0.9518  0.0723
 8153WAT     H233319   3.504   1.191   0.921 -0.3384 -1.7965 -0.9364
 8153WAT    EPW33320   3.554   1.215   0.865 -0.0535 -0.1125  0.1120
 8154WAT      O33321   4.928   1.631   7.705  0.9004  0.7268  0.2525
 8154WAT     H133322   4.874   1.690   7.741 -0.4171 -0.1605 -0.1989
 8154WAT     H233323   5.005   1.648   7.742  0.3289  2.0715  0.8812
 8154WAT    EPW33324   4.931   1.642   7.715  0.1777 -0.0178 -0.3005
 8155WAT      O33325   3.186   3.159   0.760  0.1126 -0.1852 -0.5245
 8155WAT     H133326   3.192   3.210   0.690 -0.6834  1.7339  0.7247
 8155WAT     H233327   3.123   3.196   0.807 -0.7114 -2.5260  0.3415
 8155WAT    EPW33328   3.178   3.172   0.757  0.0205  0.5504 -0.4855
 8156WAT      O33329   1.184   0.275   3.488 -0.1635 -0.1946  0.1344
 8156WAT     H133330   1.103   0.247   3.507 -0.8288  2.0285  0.9302
 8156WAT     H233331   1.234   0.235   3.547 -0.6510 -1.6050 -0.3668
 8156WAT    EPW33332   1.179   0.265   3.500 -0.7420  0.0363 -0.1350
 8157WAT      O33333   2.217   3.452   1.449 -0.1357 -0.0144  0.0579
 8157WAT     H133334   2.229   3.523   1.399 -0.3629  0.8754  1.2267
 8157WAT     H233335   2.149   3.473   1.499  0.8854 -0.3457  1.6418
 8157WAT    EPW33336   2.209   3.466   1.449 -0.2602 -0.2603  0.0743
 8158WAT      O33337   3.056   6.256   0.539 -0.1836 -0.2942  0.4999
 8158WAT     H133338   3.127   6.240   0.586 -0.0884 -0.7324  0.2191
 8158WAT     H233339   3.056   6.192   0.479 -0.8624 -0.3573  0.5544
 8158WAT    EPW33340   3.066   6.244   0.537 -0.2476  0.1746  0.4473
 8159WAT      O33341   5.410   7.433   1.343  0.2797  0.8293 -0.1184
 8159WAT     H133342   5.334   7.470   1.361  0.1831  1.1449 -1.1056
 8159WAT     H233343   5.414   7.434   1.256  0.1398 -1.7707 -0.2425
 8159WAT    EPW33344   5.400   7.439   1.333 -0.1227 -0.4816  0.2155
 8160WAT      O33345   3.199   1.132   0.701  0.2399 -0.3616 -0.1973
 8160WAT     H133346   3.214   1.197   0.757  1.1452  0.3705 -1.2408
 8160WAT     H233347   3.275   1.123   0.659 -0.1799 -1.3993 -0.7882
 8160WAT    EPW33348   3.213   1.140   0.703  0.2975  0.0980  0.1032
 8161WAT      O33349   3.128   1.279   3.385 -0.4818 -0.5099 -0.0455
 8161WAT     H133350   3.112   1.226   3.452  3.0281  0.2331  1.6597
 8161WAT     H233351   3.096   1.355   3.411 -0.5166 -0.5760  0.1072
 8161WAT    EPW33352   3.121   1.282   3.399 -0.5561  0.1040 -0.6842
 8162WAT      O33353   6.484   3.472   1.325 -0.1769 -0.0017 -0.3284
 8162WAT     H133354   6.477   3.519   1.398  0.3327 -0.3942 -0.0229
 8162WAT     H233355   6.485   3.390   1.353  0.6425 -0.1341 -0.7257
 8162WAT    EPW33356   6.483   3.467   1.340 -0.3722  0.5144 -0.1590
 8163WAT      O33357   4.694   2.410   3.850  0.3298 -0.6086  0.2775
 8163WAT     H133358   4.709   2.483   3.805 -0.6889 -1.5172 -1.6518
 8163WAT     H233359   4.630   2.432   3.906 -1.7131 -0.5640 -1.9429
 8163WAT    EPW33360   4.687   2.424   3.852  0.2972  0.2864  0.5590
 8164WAT      O33361   4.121   1.905   0.717  0.0151  0.2529  0.0280
 8164WAT     H133362   4.069   1.871   0.656  0.0778  0.0787  0.0695
 8164WAT     H233363   4.086   1.983   0.733 -0.0352  0.2776 -0.1898
 8164WAT    EPW33364   4.109   1.911   0.710  0.3505 -0.3356 -0.1502
 8165WAT      O33365   1.110   7.471   3.772  0.0258 -0.0311 -0.1614
 8165WAT     H133366   1.034   7.456   3.732  0.1232  0.2302 -0.4463
 8165WAT     H233367   1.162   7.499   3.707  0.7795 -1.5614 -0.2779
 8165WAT    EPW33368   1.106   7.473   3.756 -0.7273  0.5013  0.0918
 8166WAT      O33369   4.848   6.315   4.012 -0.0560 -0.5241  0.5457
 8166WAT     H133370   4.800   6.335   4.082 -0.4842 -0.4966  0.2541
 8166WAT     H233371   4.799   6.344   3.945  1.8738  2.6965  0.3262
 8166WAT    EPW33372   4.834   6.322   4.012  0.5074 -0.6106  0.1896
 8167WAT      O33373   3.269   0.780   0.013 -0.1925  0.2925  0.4848
 8167WAT     H133374   3.296   0.784   0.096 -0.1987  0.5735  0.4740
 8167WAT     H233375   3.319   0.838  -0.027 -0.1926  0.1590  0.2898
 8167WAT    EPW33376   3.280   0.789   0.019  0.1646 -0.2739  0.9341
 8168WAT      O33377   5.539   4.196   1.988 -0.6352 -0.0466  0.0916
 8168WAT     H133378   5.538   4.266   1.936 -2.8167  0.6014  0.8954
 8168WAT     H233379   5.463   4.156   1.971 -0.1543 -1.3579  0.8190
 8168WAT    EPW33380   5.528   4.200   1.978 -0.2231  0.7295  0.2719
 8169WAT      O33381   2.636   5.548   7.076  0.4281  0.0154  0.4211
 8169WAT     H133382   2.660   5.519   6.998  2.7833  0.2279  0.9903
 8169WAT     H233383   2.562   5.504   7.093  2.2558 -3.6079  0.0332
 8169WAT    EPW33384   2.629   5.537   7.067 -0.1465  0.3847  0.7954
 8170WAT      O33385   5.133   6.727   6.186  0.4266 -0.4726 -0.3566
 8170WAT     H133386   5.083   6.779   6.136 -1.0836  0.7693  2.2228
 8170WAT     H233387   5.131   6.766   6.264  1.3414 -3.1107  1.1109
 8170WAT    EPW33388   5.125   6.741   6.191 -0.6514  0.1106  0.1502
 8171WAT      O33389   1.610   0.917   4.408  0.6433  0.7757  0.0801
 8171WAT     H133390   1.682   0.909   4.458  1.3436  1.2496 -0.8219
 8171WAT     H233391   1.545   0.918   4.466  1.1195 -2.1188  0.8504
 8171WAT    EPW33392   1.611   0.916   4.424  0.0458 -0.0782 -0.2245
 8172WAT      O33393   5.408   1.432   5.844  0.0442  0.4366  0.1137
 8172WAT     H133394   5.464   1.384   5.798 -0.4579 -1.1221  1.0380
 8172WAT     H233395   5.330   1.404   5.817 -0.3016  1.5452 -0.1100
 8172WAT    EPW33396   5.404   1.421   5.833 -0.2038 -0.0133 -0.5379
 8173WAT      O33397   2.439   7.898   4.966  0.4398 -0.3153  1.0949
 8173WAT     H133398   2.432   7.913   4.880  1.4875 -1.3174  0.8228
 8173WAT     H233399   2.451   7.978   5.000  2.2529 -0.1191  0.0668
 8173WAT    EPW33400   2.439   7.912   4.959  0.1519  0.4768 -0.1917
 8174WAT      O33401   3.983   1.366   0.943  0.3997 -0.3188 -0.5689
 8174WAT     H133402   3.933   1.359   0.872  0.3294 -1.5579 -0.4126
 8174WAT     H233403   4.052   1.316   0.925  1.2065  0.7095 -0.4401
 8174WAT    EPW33404   3.986   1.358   0.930  0.3405 -0.2317 -0.0099
 8175WAT      O33405   3.856   6.637   0.152  0.1840  0.2385 -0.6903
 8175WAT     H133406   3.911   6.577   0.121 -0.8487 -0.6392 -0.8777
 8175WAT     H233407   3.779   6.595   0.155  0.1538  0.2253  3.0000
 8175WAT    EPW33408   3.853   6.622   0.148 -0.1063  0.1468  0.4219
 8176WAT      O33409   2.419   1.962   3.942 -0.0867 -0.1653  0.2702
 8176WAT     H133410   2.493   1.972   3.986  0.5846 -1.3143 -0.5562
 8176WAT     H233411   2.361   2.006   3.990  0.7899 -0.5937  1.8022
 8176WAT    EPW33412   2.421   1.970   3.956  0.7693 -0.1095 -0.0610
 8177WAT      O33413   5.679   6.401   4.698 -0.0521  0.0294  0.0183
 8177WAT     H133414   5.701   6.403   4.782  1.2630 -1.5807 -0.2421
 8177WAT     H233415   5.691   6.484   4.672 -2.9379  1.2135  1.9111
 8177WAT    EPW33416   5.684   6.414   4.707  0.4505 -0.3279  0.1195
 8178WAT      O33417   4.929   7.420   1.312 -0.4249  0.2961  0.2597
 8178WAT     H133418   4.906   7.375   1.383 -0.6266  1.1850  0.7770
 8178WAT     H233419   4.866   7.401   1.255  0.0890 -0.9363  0.0803
 8178WAT    EPW33420   4.916   7.410   1.314 -0.6180  0.2042 -0.2161
 8179WAT      O33421   5.030   0.754   1.867  0.1307  0.3463  0.0188
 8179WAT     H133422   4.959   0.804   1.869  0.3290  0.6766 -0.7360
 8179WAT     H233423   5.008   0.686   1.917 -1.7370 -0.8595 -2.2014
 8179WAT    EPW33424   5.016   0.751   1.874  0.4598 -0.5735 -0.0322
 8180WAT      O33425   1.147   7.074   3.447 -0.1543 -0.3569 -0.6089
 8180WAT     H133426   1.219   7.112   3.479 -0.0824 -0.8286 -0.2022
 8180WAT     H233427   1.091   7.140   3.439 -0.5196 -0.3638  1.4356
 8180WAT    EPW33428   1.150   7.089   3.450  0.0942 -0.7529 -0.6857
 8181WAT      O33429   3.591   7.073   6.630 -0.1927  0.1456 -0.4036
 8181WAT     H133430   3.605   7.122   6.559 -1.2946 -0.1024 -0.8211
 8181WAT     H233431   3.625   6.996   6.609 -2.2431 -0.5364 -1.5149
 8181WAT    EPW33432   3.598   7.069   6.617  0.2454 -0.2130 -0.0190
 8182WAT      O33433   1.761   0.538   4.492  0.0869 -0.2823 -0.0592
 8182WAT     H133434   1.750   0.453   4.505  0.2899 -0.3199 -0.1214
 8182WAT     H233435   1.791   0.567   4.568 -0.1932 -0.2255  0.0316
 8182WAT    EPW33436   1.764   0.530   4.505  0.2306  0.3885 -0.0390
 8183WAT      O33437   5.078   1.073   6.681  0.6190 -0.8278  0.0856
 8183WAT     H133438   5.087   1.053   6.596 -2.4305  0.7304 -0.7751
 8183WAT     H233439   5.010   1.025   6.706 -0.4916  0.9454  0.7058
 8183WAT    EPW33440   5.069   1.063   6.672 -0.2084  0.2156 -0.1840
 8184WAT      O33441   4.807   3.342   4.645  0.3996  0.2519  0.4716
 8184WAT     H133442   4.737   3.387   4.618  0.4798  0.1617  0.0965
 8184WAT     H233443   4.775   3.263   4.660  0.7027 -0.2474 -1.2906
 8184WAT    EPW33444   4.792   3.337   4.643  0.5929 -0.7185 -0.1133
 8185WAT      O33445   7.197   0.069   3.535  0.2164 -0.4243  0.0883
 8185WAT     H133446   7.168   0.079   3.453  1.5724 -0.4120 -0.4260
 8185WAT     H233447   7.178  -0.015   3.552  0.1821 -0.5151 -0.3592
 8185WAT    EPW33448   7.190   0.058   3.525  0.0478  0.1909  0.6978
 8186WAT      O33449   3.394   0.475   1.237  0.0634  0.1719 -0.3070
 8186WAT     H133450   3.394   0.554   1.199 -1.0005 -0.3010 -1.3649
 8186WAT     H233451   3.447   0.485   1.305  0.9125  1.4718 -1.1073
 8186WAT    EPW33452   3.402   0.489   1.241  0.6660  0.3793  0.1153
 8187WAT      O33453   4.342   1.430   4.232  0.0366  0.2371 -0.0506
 8187WAT     H133454   4.425   1.420   4.206 -0.5236  0.4249 -2.0621
 8187WAT     H233455   4.317   1.504   4.193 -1.4687 -0.4987 -0.5512
 8187WAT    EPW33456   4.351   1.440   4.222  0.1924  0.5229  0.0524
 8188WAT      O33457   1.779   3.424   0.957 -0.0793 -0.5448  0.8921
 8188WAT     H133458   1.759   3.346   0.991 -1.1736 -0.8333 -0.3257
 8188WAT     H233459   1.753   3.480   1.018 -2.0087 -1.0454  0.5764
 8188WAT    EPW33460   1.772   3.421   0.971  0.3974 -0.0540  0.1985
 8189WAT      O33461   3.425   1.178   3.127 -0.8778 -0.2108  0.1730
 8189WAT     H133462   3.369   1.118   3.156  0.3108 -0.6928  1.5424
 8189WAT     H233463   3.486   1.131   3.086 -0.2308  0.0946  0.7716
 8189WAT    EPW33464   3.426   1.162   3.125 -0.9306 -0.4433 -0.4299
 8190WAT      O33465   2.384   7.871   5.867 -0.3183 -0.5868 -0.2608
 8190WAT     H133466   2.340   7.802   5.897 -2.2549  1.1212  1.0982
 8190WAT     H233467   2.353   7.882   5.786 -2.4870  0.5240  0.6380
 8190WAT    EPW33468   2.373   7.863   5.860  1.1656  0.1234  0.9261
 8191WAT      O33469   2.568   6.797   1.577  0.4123  0.0097  0.6877
 8191WAT     H133470   2.548   6.752   1.505  0.4424 -2.5990  2.2227
 8191WAT     H233471   2.655   6.791   1.582  0.2656 -1.7223  2.0249
 8191WAT    EPW33472   2.578   6.790   1.567 -0.3620 -0.5744 -0.0023
 8192WAT      O33473   1.787   6.034   6.243 -0.4687 -0.0358 -0.0875
 8192WAT     H133474   1.731   6.032   6.310 -1.7618  1.9872 -1.0182
 8192WAT     H233475   1.826   6.112   6.252 -1.0364  0.5042 -1.9343
 8192WAT    EPW33476   1.785   6.045   6.254 -0.1428 -0.1210  0.0514
 8193WAT      O33477   0.490   7.057   4.262 -0.0789 -0.1421  0.4224
 8193WAT     H133478   0.423   7.003   4.248  0.0538 -0.0702 -0.5381
 8193WAT     H233479   0.453   7.126   4.301 -0.6204  0.0351 -0.3890
 8193WAT    EPW33480   0.475   7.059   4.266 -0.2824 -0.1267  0.3508
 8194WAT      O33481   4.086   1.055   0.688 -0.2389  0.0525  0.1026
 8194WAT     H133482   4.075   0.979   0.729 -0.2225  0.7534  1.4637
 8194WAT     H233483   4.005   1.083   0.675 -0.2782  1.0989  2.1899
 8194WAT    EPW33484   4.073   1.048   0.692  0.0285 -0.6566  0.3513
 8195WAT      O33485   6.114   6.052   2.769  0.6657  0.2631  0.0795
 8195WAT     H133486   6.056   5.997   2.804 -0.1322 -0.3984 -2.1287
 8195WAT     H233487   6.148   6.007   2.703  1.6238  1.6559 -0.4228
 8195WAT    EPW33488   6.111   6.038   2.764 -0.4637  0.1252  0.1385
 8196WAT      O33489   2.352   5.560   4.465 -0.4346  0.5957  0.3013
 8196WAT     H133490   2.381   5.615   4.526 -2.2234  0.5584  1.2368
 8196WAT     H233491   2.293   5.511   4.507 -0.1786 -0.8674 -0.9479
 8196WAT    EPW33492   2.348   5.561   4.480 -0.2015 -0.1814  0.5896
 8197WAT      O33493   2.748   7.532   6.602 -0.4328  0.4680 -0.0399
 8197WAT     H133494   2.709   7.517   6.679 -1.0610 -1.0098 -0.6040
 8197WAT     H233495   2.797   7.461   6.590  1.4726  1.6949  0.0208
 8197WAT    EPW33496   2.749   7.519   6.611  0.0630 -0.1246 -0.6868
 8198WAT      O33497   2.411   0.269   5.556 -0.8253  0.1626 -0.8642
 8198WAT     H133498   2.477   0.215   5.576 -0.6353  0.1605 -1.4650
 8198WAT     H233499   2.356   0.261   5.623 -0.4254 -0.1799 -0.5735
 8198WAT    EPW33500   2.413   0.260   5.568 -0.3737 -0.5608 -0.0147
 8199WAT      O33501   2.204   7.424   7.025  0.4552 -0.2190  0.4139
 8199WAT     H133502   2.132   7.419   6.976 -0.0908  0.3361  1.1378
 8199WAT     H233503   2.264   7.383   6.977 -0.4452 -1.0781 -0.0141
 8199WAT    EPW33504   2.202   7.417   7.011  0.1845  0.2271  0.5580
 8200WAT      O33505   3.507   5.916   5.530 -0.3663  0.0768  0.4705
 8200WAT     H133506   3.485   5.835   5.507 -4.0319  0.9206  0.3755
 8200WAT     H233507   3.590   5.908   5.555 -1.3300 -4.4590  3.6954
 8200WAT    EPW33508   3.516   5.903   5.531 -0.1040  0.0541 -0.1938
 8201WAT      O33509   7.337   7.194   2.278  0.0339 -0.0570 -0.6384
 8201WAT     H133510   7.387   7.137   2.321 -0.2520 -0.5864 -0.9904
 8201WAT     H233511   7.386   7.265   2.274  0.7972 -0.5908 -1.0361
 8201WAT    EPW33512   7.351   7.196   2.284 -0.3487 -0.4314 -0.3548
 8202WAT      O33513   1.742   5.320   3.861  0.1120 -0.2893  0.1327
 8202WAT     H133514   1.801   5.279   3.910  0.5900 -0.3753 -0.4946
 8202WAT     H233515   1.693   5.363   3.919  0.9202 -0.0546  0.6592
 8202WAT    EPW33516   1.743   5.320   3.877  0.3818  0.1061  0.6542
 8203WAT      O33517   0.737   6.952   4.080  0.5635  0.4231  0.1721
 8203WAT     H133518   0.781   6.927   4.151  1.5017  1.7693  0.1120
 8203WAT     H233519   0.689   6.882   4.060  2.5470 -1.0811  0.3696
 8203WAT    EPW33520   0.737   6.938   4.088 -0.2343  0.0703  0.1455
 8204WAT      O33521   1.230   0.092   1.208  0.2044  0.9808 -0.4539
 8204WAT     H133522   1.306   0.096   1.166  0.3321 -0.3820 -0.4069
 8204WAT     H233523   1.253   0.086   1.292  0.0251  1.2227 -0.3873
 8204WAT    EPW33524   1.245   0.091   1.214 -0.6481  0.2247  0.3230
 8205WAT      O33525   1.190   6.314   1.382 -0.4701 -0.2041  0.7731
 8205WAT     H133526   1.154   6.385   1.345 -0.9231  0.1525  1.8540
 8205WAT     H233527   1.204   6.260   1.314 -1.6209  0.2679  0.1327
 8205WAT    EPW33528   1.186   6.317   1.366 -0.5257 -0.2975  0.6026
 8206WAT      O33529   4.208   3.598   5.386 -0.0090  0.7441  0.1979
 8206WAT     H133530   4.158   3.668   5.397 -0.2900  0.7469 -0.9231
 8206WAT     H233531   4.150   3.533   5.374  0.2376  0.2247  1.6098
 8206WAT    EPW33532   4.192   3.598   5.386 -0.0652 -0.1780  0.2242
 8207WAT      O33533   3.892   5.857   5.100 -0.2261 -0.4778 -0.0040
 8207WAT     H133534   3.919   5.777   5.124 -0.7821 -0.5325  0.4747
 8207WAT     H233535   3.870   5.848   5.016  2.0849 -0.2081 -0.6948
 8207WAT    EPW33536   3.893   5.844   5.091 -0.3080 -0.3804  0.2407
 8208WAT      O33537   2.236   2.847   2.881 -0.1166 -1.0232 -0.1656
 8208WAT     H133538   2.253   2.768   2.915 -0.1103 -1.3183 -0.8342
 8208WAT     H233539   2.290   2.852   2.812 -1.9073 -1.5380 -1.7026
 8208WAT    EPW33540   2.247   2.836   2.876  0.2594  0.2620  0.4356
 8209WAT      O33541   3.232   4.727   7.443  0.4496  0.4086  0.0400
 8209WAT     H133542   3.234   4.798   7.493 -2.9293  0.9927 -0.3706
 8209WAT     H233543   3.178   4.673   7.486  1.1619 -0.9826 -0.7409
 8209WAT    EPW33544   3.224   4.730   7.457 -0.0299  0.7397  0.2917
 8210WAT      O33545   1.400   6.717   5.110  0.1083  0.0104  0.7358
 8210WAT     H133546   1.395   6.652   5.052  0.6785  1.2998 -0.8501
 8210WAT     H233547   1.484   6.716   5.135 -0.3195 -1.1046  2.3098
 8210WAT    EPW33548   1.412   6.707   5.105 -0.0129 -0.1773 -0.0153
 8211WAT      O33549   6.113   2.611   6.028 -0.0625 -0.3481  0.8731
 8211WAT     H133550   6.086   2.533   6.002 -1.8713 -0.1740  2.0461
 8211WAT     H233551   6.178   2.631   5.973  1.3242 -3.1896  1.3127
 8211WAT    EPW33552   6.119   2.603   6.016  0.2134 -0.1314  0.2192
 8212WAT      O33553   5.508   7.479   2.739 -0.3624  0.3093 -0.4070
 8212WAT     H133554   5.479   7.481   2.821 -2.5875  0.9033 -1.1268
 8212WAT     H233555   5.527   7.563   2.722 -2.4644  0.7024 -1.2336
 8212WAT    EPW33556   5.506   7.492   2.749  0.1352 -0.3019  0.1159
 8213WAT      O33557   6.277   6.546   0.926 -0.2249 -0.0101 -0.3379
 8213WAT     H133558   6.212   6.488   0.929  0.9805 -1.6444 -2.3940
 8213WAT     H233559   6.300   6.545   0.841  0.7614  2.4905 -0.1749
 8213WAT    EPW33560   6.271   6.537   0.914  0.6041  0.8158  0.0216
 8214WAT      O33561   4.526   7.673   6.985  0.5803 -0.3041  0.7036
 8214WAT     H133562   4.552   7.756   6.991 -0.3548 -0.0814  2.3292
 8214WAT     H233563   4.440   7.680   6.972  0.5675 -1.0245  0.3880
 8214WAT    EPW33564   4.517   7.686   6.984 -0.1049  0.5575 -0.1190
 8215WAT      O33565   6.301   3.205   5.031 -0.1812 -0.1705 -0.4925
 8215WAT     H133566   6.224   3.166   5.025 -1.1149  1.2148  1.5304
 8215WAT     H233567   6.338   3.167   5.100 -0.1253  0.8865  0.0756
 8215WAT    EPW33568   6.295   3.194   5.040  0.1256 -0.0122  0.0446
 8216WAT      O33569   7.759   6.470   3.263  0.4967  0.3347 -0.4999
 8216WAT     H133570   7.785   6.454   3.181  0.2051  0.0333 -0.5399
 8216WAT     H233571   7.699   6.532   3.253  0.4917  0.3284 -0.5127
 8216WAT    EPW33572   7.754   6.477   3.249 -0.7969  0.3822 -0.3783
 8217WAT      O33573   4.049   2.494   0.824  0.5656  0.4330 -0.5763
 8217WAT     H133574   4.060   2.452   0.748  2.8241  0.6044 -0.3836
 8217WAT     H233575   4.032   2.430   0.881 -2.2112  0.3731 -1.3073
 8217WAT    EPW33576   4.048   2.479   0.821  0.6470  0.0656 -0.2941
 8218WAT      O33577   4.578   4.076   6.435  0.2818 -0.0153 -0.0587
 8218WAT     H133578   4.530   4.074   6.362  0.0440  5.2001 -0.4412
 8218WAT     H233579   4.657   4.100   6.407  1.0584 -1.0220  1.1833
 8218WAT    EPW33580   4.583   4.079   6.420 -0.4730 -0.4230 -0.3494
 8219WAT      O33581   5.255   0.330   5.193  0.3765 -0.2733  0.1196
 8219WAT     H133582   5.182   0.360   5.157  0.2462 -0.8217 -0.0846
 8219WAT     H233583   5.228   0.292   5.267  0.3769 -0.9429 -0.2143
 8219WAT    EPW33584   5.240   0.328   5.198 -0.6017 -0.6339 -0.0741
 8220WAT      O33585   6.221   7.592   4.718 -0.5627  0.0915 -0.2522
 8220WAT     H133586   6.157   7.593   4.777 -2.0697  0.8802 -1.8170
 8220WAT     H233587   6.187   7.548   4.651  0.3788  0.8832 -1.2863
 8220WAT    EPW33588   6.206   7.585   4.717 -0.5840  0.2330 -0.7483
 8221WAT      O33589   3.831   1.169   6.635  0.1751 -0.4124  0.0643
 8221WAT     H133590   3.915   1.191   6.636  0.0762  0.2951  3.5106
 8221WAT     H233591   3.792   1.239   6.600  0.9800 -1.3218 -2.9974
 8221WAT    EPW33592   3.837   1.183   6.630  0.4206 -0.3797  0.2318
 8222WAT      O33593   1.135   4.023   0.867  0.2518 -0.4857 -0.4619
 8222WAT     H133594   1.059   4.064   0.855  0.9993  1.1607  0.1219
 8222WAT     H233595   1.195   4.083   0.844  1.4144 -1.0146  1.0102
 8222WAT    EPW33596   1.133   4.038   0.862 -0.4033 -0.4965  0.0255
 8223WAT      O33597   0.759   0.532   4.124  0.2673  0.1614  0.7965
 8223WAT     H133598   0.836   0.500   4.098  0.0456  0.8379 -0.8396
 8223WAT     H233599   0.772   0.552   4.207  2.1174  0.9311  0.3746
 8223WAT    EPW33600   0.773   0.531   4.132  0.3535  0.6381  0.1188
 8224WAT      O33601   5.564   7.771   4.477  0.0388 -0.5148 -0.4852
 8224WAT     H133602   5.633   7.739   4.433  0.2419  0.5445 -0.9576
 8224WAT     H233603   5.601   7.806   4.548  0.0801  0.6620 -1.0708
 8224WAT    EPW33604   5.580   7.771   4.481  0.7426  0.3273 -0.4014
 8225WAT      O33605   2.734   0.648   2.286 -0.1856  0.6665 -0.3288
 8225WAT     H133606   2.700   0.601   2.351  0.9068  0.3192  0.0060
 8225WAT     H233607   2.697   0.614   2.214 -0.7231  0.4671  0.0360
 8225WAT    EPW33608   2.724   0.636   2.285  0.4272  0.2506  0.2643
 8226WAT      O33609   0.466   3.523   4.700 -0.8087 -1.1313 -0.4918
 8226WAT     H133610   0.540   3.559   4.670 -0.9103 -1.6320 -1.3781
 8226WAT     H233611   0.434   3.482   4.630 -2.2920 -0.3344 -0.3023
 8226WAT    EPW33612   0.472   3.522   4.685  0.1074  0.5003  0.5533
 8227WAT      O33613   5.591   1.891   6.588 -0.4814  0.2848 -0.1123
 8227WAT     H133614   5.599   1.965   6.543 -2.8684  0.8881  0.2975
 8227WAT     H233615   5.613   1.829   6.530  0.0821  1.2290 -0.9361
 8227WAT    EPW33616   5.595   1.893   6.573  0.1775  0.0270 -0.3261
 8228WAT      O33617   7.966   7.744   3.625 -0.3374 -0.6558  0.3250
 8228WAT     H133618   7.918   7.807   3.588 -1.7996 -0.7166  2.0216
 8228WAT     H233619   8.047   7.761   3.596 -0.9090  1.1611 -0.3537
 8228WAT    EPW33620   7.971   7.756   3.615  0.5933  0.6789  0.3053
 8229WAT      O33621   4.738   0.918   7.558 -0.5301  0.6021  0.1150
 8229WAT     H133622   4.807   0.956   7.594  1.4004 -0.5705 -2.1090
 8229WAT     H233623   4.674   0.977   7.568  1.3232  2.6744  0.3167
 8229WAT    EPW33624   4.739   0.932   7.565 -0.0970  0.0300 -0.2647
 8230WAT      O33625   5.267   7.015   2.050  0.4761 -0.7002  0.5017
 8230WAT     H133626   5.190   7.056   2.054  0.0864 -1.2831 -0.8118
 8230WAT     H233627   5.313   7.064   1.994  1.2569 -0.0980  1.6106
 8230WAT    EPW33628   5.262   7.028   2.042  0.2951  0.2046  0.0494
 8231WAT      O33629   4.307   0.713   4.066 -0.0329 -0.0793  0.5204
 8231WAT     H133630   4.381   0.706   4.111  0.7318  2.9078 -0.0768
 8231WAT     H233631   4.275   0.790   4.091 -1.2403  0.1941 -1.6632
 8231WAT    EPW33632   4.313   0.723   4.077 -0.2761 -0.2874 -0.4965
 8232WAT      O33633   5.429   1.871   1.336  0.0976 -0.0941 -0.1254
 8232WAT     H133634   5.405   1.810   1.394 -0.2226  0.7397  0.6398
 8232WAT     H233635   5.385   1.848   1.264 -0.9242 -0.1409  0.4846
 8232WAT    EPW33636   5.419   1.859   1.334  0.3103  0.0783 -0.5364
 8233WAT      O33637   2.026   0.229   2.367 -0.0116 -0.4822 -0.0792
 8233WAT     H133638   1.991   0.309   2.368 -0.2495 -0.5550  1.8018
 8233WAT     H233639   1.959   0.177   2.345 -1.2071 -0.5854  3.1922
 8233WAT    EPW33640   2.011   0.233   2.364  0.1413  0.6758  0.0731
 8234WAT      O33641   2.194   7.713   5.989  0.0261  0.2008 -0.4405
 8234WAT     H133642   2.226   7.657   6.048  0.0476 -0.2246 -0.8460
 8234WAT     H233643   2.170   7.782   6.037  1.2267  0.3914 -0.0871
 8234WAT    EPW33644   2.195   7.715   6.005 -0.7674 -0.4023 -0.8649
 8235WAT      O33645   5.669   5.591   5.080  0.2379 -0.7451  0.0250
 8235WAT     H133646   5.603   5.643   5.059  0.7794 -0.6640 -1.5731
 8235WAT     H233647   5.730   5.609   5.020  1.6275 -0.9874  1.3063
 8235WAT    EPW33648   5.668   5.601   5.068  0.6943 -0.0517 -0.5133
 8236WAT      O33649   1.927   6.759   2.935  0.5862  0.5730  0.2568
 8236WAT     H133650   1.997   6.765   2.986  1.1390  0.0492 -0.4077
 8236WAT     H233651   1.958   6.721   2.862 -0.5661 -0.5803  0.3112
 8236WAT    EPW33652   1.942   6.754   2.932  0.4052  0.0826 -0.3091
 8237WAT      O33653   1.422   0.766   4.903 -0.0534 -0.0087  0.1194
 8237WAT     H133654   1.410   0.738   4.822 -1.3862  0.6660  0.0627
 8237WAT     H233655   1.509   0.765   4.913  0.3913  2.6468 -2.3163
 8237WAT    EPW33656   1.433   0.762   4.893  0.3720  0.0088  0.2502
 8238WAT      O33657   6.167   0.488   0.148 -0.2678  0.5316  0.4084
 8238WAT     H133658   6.233   0.515   0.098  0.3620 -0.5588  0.6101
 8238WAT     H233659   6.156   0.554   0.204  2.7323 -0.3909  2.3519
 8238WAT    EPW33660   6.176   0.502   0.149 -0.0929 -0.0332 -0.2525
 8239WAT      O33661   5.039   3.093   7.357 -0.2348 -0.1838  0.5994
 8239WAT     H133662   4.996   3.168   7.374  0.7130  0.0562  2.1025
 8239WAT     H233663   5.075   3.107   7.279 -3.4200 -0.6792 -1.1517
 8239WAT    EPW33664   5.038   3.106   7.348  0.1903 -0.3448  0.5211
 8240WAT      O33665   2.463   1.789   6.176  0.0713 -0.1773  0.4282
 8240WAT     H133666   2.520   1.750   6.228 -0.8288  0.4179  1.9155
 8240WAT     H233667   2.479   1.874   6.186  0.4022 -0.0515 -0.9101
 8240WAT    EPW33668   2.474   1.796   6.185 -0.2222  0.6583 -0.2840
 8241WAT      O33669   2.534   6.234   0.970 -0.7925 -0.1333  0.3904
 8241WAT     H133670   2.520   6.268   1.049 -1.5119 -0.5017  0.4238
 8241WAT     H233671   2.456   6.239   0.931 -0.2816  0.7150 -0.5693
 8241WAT    EPW33672   2.521   6.240   0.976 -0.4621  0.4756  0.4047
 8242WAT      O33673   7.130   7.028   1.064  0.3978  0.0650  0.2181
 8242WAT     H133674   7.171   7.063   1.133  1.5749  0.0960 -0.4627
 8242WAT     H233675   7.191   7.029   1.002 -0.4269 -0.6023 -0.6299
 8242WAT    EPW33676   7.145   7.034   1.065  0.3244  1.0534  0.1975
 8243WAT      O33677   6.666   5.951   1.601  0.2491  0.2154 -0.2694
 8243WAT     H133678   6.748   5.975   1.582 -0.0285  1.4523 -0.0364
 8243WAT     H233679   6.635   5.921   1.525  0.8412 -0.0019 -0.4258
 8243WAT    EPW33680   6.674   5.950   1.587 -0.5181  0.2061  0.1879
 8244WAT      O33681   0.716   0.234   8.034 -0.0771  0.2385  0.4306
 8244WAT     H133682   0.709   0.280   7.961 -0.8606  0.6370  0.7461
 8244WAT     H233683   0.803   0.224   8.044  0.1235  1.7701  0.4236
 8244WAT    EPW33684   0.728   0.239   8.025  0.3650  0.2743 -0.6790
 8245WAT      O33685   4.142   7.617   2.733  0.1179  0.2761 -0.0185
 8245WAT     H133686   4.111   7.650   2.808 -0.4305  1.1577 -0.6159
 8245WAT     H233687   4.132   7.531   2.742 -1.8748  0.4856  0.1011
 8245WAT    EPW33688   4.136   7.609   2.745 -0.6494 -0.2852 -0.6880
 8246WAT      O33689   3.579   7.860   7.564  0.0210 -0.5275 -0.0338
 8246WAT     H133690   3.584   7.934   7.518 -0.1177  0.8537  2.0183
 8246WAT     H233691   3.522   7.812   7.520  1.7357 -0.3951 -2.6541
 8246WAT    EPW33692   3.572   7.864   7.551 -0.2379  0.0962 -0.0026
 8247WAT      O33693   5.829   2.463   7.558  0.2565  0.1248 -0.1316
 8247WAT     H133694   5.837   2.380   7.585 -0.7039 -0.2176 -0.8644
 8247WAT     H233695   5.745   2.481   7.571  0.2649  0.6871 -0.8077
 8247WAT    EPW33696   5.818   2.453   7.564  0.4506  0.1603 -0.1613
 8248WAT      O33697   5.949   5.313   4.288 -0.1203 -0.4878 -0.2281
 8248WAT     H133698   5.909   5.371   4.339  0.6010 -0.1718  0.0029
 8248WAT     H233699   6.000   5.269   4.344 -1.3587 -2.0188 -0.2233
 8248WAT    EPW33700   5.951   5.315   4.304  0.1828 -0.1532 -0.0275
 8249WAT      O33701   4.530   0.990   5.753 -0.0791 -0.2521 -0.1849
 8249WAT     H133702   4.486   0.925   5.715 -0.7735 -0.7110  1.3051
 8249WAT     H233703   4.486   1.061   5.728 -0.7109 -0.5696 -0.0048
 8249WAT    EPW33704   4.517   0.991   5.744  0.0198 -0.3288  0.3705
 8250WAT      O33705   4.828   7.743   1.428  0.3562 -0.6208 -0.1598
 8250WAT     H133706   4.779   7.724   1.358  2.2075  0.4607 -1.8565
 8250WAT     H233707   4.792   7.817   1.457  0.4033 -0.3163 -0.8440
 8250WAT    EPW33708   4.815   7.751   1.422 -0.1594  0.1304 -0.3296
 8251WAT      O33709   5.752   6.107   5.105  0.4021 -0.1864 -0.2253
 8251WAT     H133710   5.794   6.039   5.139  1.4062 -0.6969 -2.2980
 8251WAT     H233711   5.800   6.128   5.035 -1.8222  0.2984 -1.7277
 8251WAT    EPW33712   5.765   6.100   5.099 -0.3547  0.4335 -0.4321
 8252WAT      O33713   4.952   6.411   6.921 -0.0747  0.4926 -0.1485
 8252WAT     H133714   4.878   6.422   6.966  0.1973  2.3985 -0.0759
 8252WAT     H233715   4.984   6.492   6.915  1.0539 -0.0212 -1.8116
 8252WAT    EPW33716   4.946   6.425   6.927 -0.0682  0.4340  0.2138
 8253WAT      O33717   6.107   2.884   5.230 -0.0987 -0.0534  0.2654
 8253WAT     H133718   6.118   2.797   5.224  1.7632  0.1066  0.9326
 8253WAT     H233719   6.088   2.896   5.315 -0.2362  0.2082  0.1983
 8253WAT    EPW33720   6.106   2.873   5.242 -0.1464 -0.4762 -0.3427
 8254WAT      O33721   0.599   3.282   3.025  0.1869 -0.4648 -0.3595
 8254WAT     H133722   0.629   3.344   2.971 -0.6201  0.2553  0.0003
 8254WAT     H233723   0.631   3.208   2.991  2.0357  0.2145 -0.2105
 8254WAT    EPW33724   0.608   3.280   3.012  0.1291  0.0478  0.0976
 8255WAT      O33725   3.877   7.380   7.332  0.6350 -0.2448  0.4739
 8255WAT     H133726   3.827   7.430   7.383  0.5389 -0.9368  1.0697
 8255WAT     H233727   3.844   7.394   7.252 -0.4274 -0.5850  0.8342
 8255WAT    EPW33728   3.865   7.390   7.328 -0.2418 -0.7635 -0.1310
 8256WAT      O33729   1.907   5.447   5.838 -0.2238  0.1659 -0.1863
 8256WAT     H133730   1.829   5.487   5.841 -0.4223 -0.1717 -0.5977
 8256WAT     H233731   1.897   5.379   5.892 -0.1189  0.2819 -0.0207
 8256WAT    EPW33732   1.894   5.443   5.846  0.1813  0.2778 -0.1393
 8257WAT      O33733   6.674   5.508   0.165 -0.0159  0.5878 -0.2388
 8257WAT     H133734   6.695   5.480   0.245 -1.0084 -0.1513 -0.2172
 8257WAT     H233735   6.595   5.473   0.151 -1.2015  3.0848 -0.3660
 8257WAT    EPW33736   6.666   5.498   0.175 -0.0840  0.4763  0.5304
 8258WAT      O33737   2.771   7.858   6.123 -0.1054 -0.0417  0.3148
 8258WAT     H133738   2.739   7.777   6.130  1.1902 -0.8151 -1.8421
 8258WAT     H233739   2.727   7.891   6.055  0.0933  0.7080  0.5412
 8258WAT    EPW33740   2.760   7.851   6.114  0.1177  0.2777  0.0399
 8259WAT      O33741   5.561   0.789   5.290  0.1938  0.5814 -0.1806
 8259WAT     H133742   5.520   0.717   5.261  2.3341  0.4495 -3.4444
 8259WAT     H233743   5.644   0.775   5.267  1.3789  2.6293  2.3341
 8259WAT    EPW33744   5.568   0.776   5.283 -0.3971 -0.3624  0.0457
 8260WAT      O33745   5.429   7.580   7.502  0.0738 -0.1093  0.4684
 8260WAT     H133746   5.463   7.537   7.434 -0.0889 -1.2120  1.0535
 8260WAT     H233747   5.346   7.554   7.504  0.3020 -0.8531  1.6278
 8260WAT    EPW33748   5.422   7.570   7.492  0.5220  0.2878 -0.2255
 8261WAT      O33749   2.243   6.201   0.926 -0.2416 -0.6258 -0.2585
 8261WAT     H133750   2.193   6.214   0.997  2.3772 -3.2196  2.3263
 8261WAT     H233751   2.257   6.114   0.927  0.4580 -0.6683 -3.6547
 8261WAT    EPW33752   2.237   6.190   0.937  0.1974  0.1807  0.4707
 8262WAT      O33753   0.629   7.504   3.586  0.2668  0.3101 -0.5216
 8262WAT     H133754   0.636   7.574   3.534 -1.6809  1.1237  0.2279
 8262WAT     H233755   0.597   7.536   3.661 -0.9175 -1.3694 -0.2371
 8262WAT    EPW33756   0.625   7.519   3.589 -0.7928  0.1450  0.1738
 8263WAT      O33757   2.884   3.349   3.126 -0.0346  0.0111  0.2401
 8263WAT     H133758   2.923   3.418   3.161 -0.1584  0.2050 -0.0052
 8263WAT     H233759   2.951   3.297   3.104  0.0873  0.3503 -0.1972
 8263WAT    EPW33760   2.900   3.351   3.128  0.1072  0.0044 -0.2748
 8264WAT      O33761   1.530   6.485   2.514 -0.0318  0.2579 -0.2215
 8264WAT     H133762   1.615   6.494   2.531 -0.4947  1.8354  1.7102
 8264WAT     H233763   1.509   6.409   2.550  0.4044  0.2517  0.0219
 8264WAT    EPW33764   1.539   6.475   2.522  0.2330  0.4678  0.1741
 8265WAT      O33765   5.952   1.361   5.745  0.0728 -0.2553 -0.0431
 8265WAT     H133766   5.976   1.432   5.700 -1.7409 -0.0863 -0.8311
 8265WAT     H233767   5.878   1.337   5.706  0.5082 -2.4357  0.3945
 8265WAT    EPW33768   5.944   1.368   5.732  0.5575 -0.1283  0.6004
 8266WAT      O33769   4.863   0.130   4.000 -0.2166  0.3726 -0.4375
 8266WAT     H133770   4.922   0.093   4.053 -0.0258 -0.8654 -1.4613
 8266WAT     H233771   4.906   0.140   3.925 -1.4003 -0.9401 -1.3368
 8266WAT    EPW33772   4.878   0.126   3.997 -0.1609 -0.1928 -0.5782
 8267WAT      O33773   0.794   5.726   3.088 -0.3558  0.2953  0.3419
 8267WAT     H133774   0.755   5.729   3.010 -0.9763  1.8051  0.6730
 8267WAT     H233775   0.728   5.710   3.143  0.2409 -1.8896  0.4970
 8267WAT    EPW33776   0.778   5.724   3.084  0.2018  0.2954  0.5749
 8268WAT      O33777   1.919   0.230   1.883  0.4624  0.1473  0.5415
 8268WAT     H133778   1.872   0.265   1.948  1.2100  1.4311  0.4170
 8268WAT     H233779   1.885   0.265   1.811 -0.8228 -1.7929  0.1138
 8268WAT    EPW33780   1.907   0.240   1.882 -0.6740 -0.3828 -0.4052
 8269WAT      O33781   0.125   7.563   3.247  0.7079 -0.4967  0.5417
 8269WAT     H133782   0.075   7.495   3.268  0.0630  0.3087  1.7449
 8269WAT     H233783   0.161   7.586   3.323 -0.1360  1.2979  0.4476
 8269WAT    EPW33784   0.123   7.556   3.261 -0.1514  0.9600  0.4533
 8270WAT      O33785   3.831   3.445   0.027  0.2193  0.0967 -0.4947
 8270WAT     H133786   3.901   3.425   0.076 -0.1936  2.8889  1.4548
 8270WAT     H233787   3.764   3.426   0.078 -0.2586  2.2569 -0.2458
 8270WAT    EPW33788   3.831   3.439   0.042 -0.3593 -0.2957  0.4314
 8271WAT      O33789   3.085   5.978   5.351 -0.1519  0.1788  0.6245
 8271WAT     H133790   3.083   6.004   5.434  2.8181 -0.5201  1.0226
 8271WAT     H233791   3.089   5.891   5.358 -2.8359 -0.1236 -0.4405
 8271WAT    EPW33792   3.085   5.969   5.364 -0.3799 -0.3589  0.7357
 8272WAT      O33793   0.990   6.707   3.460  0.5954  0.0007 -0.0887
 8272WAT     H133794   0.951   6.629   3.457  1.6081 -0.4923 -1.0346
 8272WAT     H233795   0.923   6.763   3.459 -0.1114 -0.8295 -0.7532
 8272WAT    EPW33796   0.974   6.704   3.460 -0.4798  0.1155  0.1435
 8273WAT      O33797   5.185   1.033   1.621  0.7491  0.1505  0.3464
 8273WAT     H133798   5.130   0.969   1.599  0.8611 -0.1081  0.8197
 8273WAT     H233799   5.231   1.046   1.548 -0.7263  1.1956 -0.4630
 8273WAT    EPW33800   5.183   1.025   1.607 -0.2977  0.1074 -0.5603
 8274WAT      O33801   4.867   4.579   4.416 -0.2136  0.6843  0.1745
 8274WAT     H133802   4.919   4.510   4.410  0.2067  1.0822 -1.1091
 8274WAT     H233803   4.813   4.559   4.482  2.1626  0.6921  2.2514
 8274WAT    EPW33804   4.866   4.566   4.425 -0.5437  0.3652 -0.3663
 8275WAT      O33805   3.364   1.014   3.959  0.2913  0.0307  0.1546
 8275WAT     H133806   3.378   0.954   3.897  1.6241 -2.7929  2.9229
 8275WAT     H233807   3.279   1.003   3.978  0.4067 -0.6603  0.3021
 8275WAT    EPW33808   3.353   1.004   3.952 -0.5861  0.5236 -0.4040
 8276WAT      O33809   4.609   6.461   0.158 -0.4165  0.1666 -0.3682
 8276WAT     H133810   4.580   6.445   0.239 -2.0991 -0.4661 -1.0581
 8276WAT     H233811   4.607   6.548   0.153 -0.8470  0.1895  0.0857
 8276WAT    EPW33812   4.604   6.471   0.169 -0.2113 -0.3761  0.1422
 8277WAT      O33813   5.726   5.284   2.710 -0.2865 -0.3335 -0.3675
 8277WAT     H133814   5.772   5.278   2.636 -0.4981  1.7026 -0.6981
 8277WAT     H233815   5.788   5.289   2.771 -0.0878 -0.0389 -0.5873
 8277WAT    EPW33816   5.742   5.284   2.708  0.2000 -0.1197 -0.5573
 8278WAT      O33817   5.623   6.926   2.893 -0.4262  0.2187 -0.0798
 8278WAT     H133818   5.637   6.991   2.837 -2.0374  0.9880  0.3834
 8278WAT     H233819   5.538   6.908   2.883 -0.0505 -1.7547 -0.1141
 8278WAT    EPW33820   5.613   6.933   2.883  0.5412 -0.0944 -0.3714
 8279WAT      O33821   4.857   2.289   3.564 -0.4904  0.5382  0.3242
 8279WAT     H133822   4.785   2.269   3.609 -0.5421  0.7304  0.3254
 8279WAT     H233823   4.854   2.376   3.556 -0.1566  0.5675  0.5001
 8279WAT    EPW33824   4.846   2.299   3.569 -0.3950  0.2049 -0.1928
 8280WAT      O33825   1.033   7.429   4.316  0.1605 -0.2728  0.4712
 8280WAT     H133826   0.971   7.415   4.375 -0.5682 -0.9810 -0.4253
 8280WAT     H233827   1.016   7.370   4.254  0.1734  1.1774 -1.0065
 8280WAT    EPW33828   1.021   7.419   4.315  0.5446 -0.4071 -0.2196
 8281WAT      O33829   4.691   2.039   4.514  0.3078 -0.4412 -0.1333
 8281WAT     H133830   4.697   2.112   4.467  0.9787 -0.4124 -0.0105
 8281WAT     H233831   4.653   1.982   4.459 -0.5389  0.0871 -0.1133
 8281WAT    EPW33832   4.686   2.041   4.499  0.0277  0.6744  0.0752
 8282WAT      O33833   5.127   6.340   1.238 -0.3834 -0.5508  0.0758
 8282WAT     H133834   5.133   6.259   1.269 -0.3191 -1.4535 -2.1170
 8282WAT     H233835   5.069   6.333   1.173  1.1079  0.6775 -1.5050
 8282WAT    EPW33836   5.119   6.327   1.233 -0.4198  0.5928 -0.2903
 8283WAT      O33837   0.761   1.668   4.136 -0.4934 -0.4361  0.0782
 8283WAT     H133838   0.706   1.602   4.152  1.4249 -2.2148 -0.1772
 8283WAT     H233839   0.801   1.680   4.212 -0.4717  0.0619 -0.0119
 8283WAT    EPW33840   0.759   1.660   4.149  0.0158 -0.5125  0.1972
 8284WAT      O33841   3.918   6.747   5.958  0.2985  0.0147  0.6678
 8284WAT     H133842   3.907   6.763   5.873 -1.2915 -0.8352  0.6692
 8284WAT     H233843   3.956   6.819   5.988 -0.2049  0.8096 -0.5487
 8284WAT    EPW33844   3.922   6.760   5.950 -0.1546  0.3248  0.6913
 8285WAT      O33845   6.130   2.040   2.767 -0.7943  0.2791  0.3866
 8285WAT     H133846   6.186   1.988   2.723 -1.8784  0.1639 -0.9260
 8285WAT     H233847   6.181   2.104   2.796 -0.1272  0.9186 -1.9504
 8285WAT    EPW33848   6.146   2.041   2.764  0.3809  0.2319 -0.2064
 8286WAT      O33849   0.166   1.854   3.763 -0.0532  0.3215  0.3489
 8286WAT     H133850   0.224   1.866   3.828  0.6520  0.8151 -0.3386
 8286WAT     H233851   0.214   1.819   3.699  0.0011  2.5005 -0.9352
 8286WAT    EPW33852   0.182   1.851   3.763  0.0365 -0.2409 -0.1684
 8287WAT      O33853   4.947   1.026   4.764 -0.4979 -0.1434  0.0863
 8287WAT     H133854   5.005   1.051   4.824  1.1102  0.3505 -1.5753
 8287WAT     H233855   4.983   1.052   4.689 -1.7388 -1.9786 -1.2240
 8287WAT    EPW33856   4.961   1.033   4.762  0.0925 -0.1923  0.2461
 8288WAT      O33857   4.325   0.544   6.154 -0.6073  0.6243 -0.1673
 8288WAT     H133858   4.407   0.538   6.125 -0.6070 -0.6063  0.0204
 8288WAT     H233859   4.313   0.630   6.163 -0.2734  1.0451 -2.8010
 8288WAT    EPW33860   4.336   0.556   6.151 -0.2051 -0.1727 -0.1150
 8289WAT      O33861   4.266   6.016   6.489 -0.2779 -0.6093 -0.3659
 8289WAT     H133862   4.202   5.972   6.451 -0.1491 -0.4827 -0.7419
 8289WAT     H233863   4.325   5.955   6.509  0.1704 -0.5519 -1.4327
 8289WAT    EPW33864   4.266   6.001   6.486  0.0865 -0.7388 -0.1591
 8290WAT      O33865   7.931   7.423   2.127 -0.5169 -0.1368 -0.8663
 8290WAT     H133866   7.967   7.462   2.196  0.0282  1.0262 -1.7801
 8290WAT     H233867   7.977   7.349   2.119 -0.9999 -0.5774  0.3807
 8290WAT    EPW33868   7.943   7.418   2.136 -0.2902 -0.0373  0.0278
 8291WAT      O33869   5.870   7.672   1.836  0.4072 -0.0238 -0.2126
 8291WAT     H133870   5.817   7.725   1.791 -0.2216  0.9365  1.5648
 8291WAT     H233871   5.885   7.716   1.910  1.4891 -1.4876  0.4878
 8291WAT    EPW33872   5.865   7.687   1.840 -0.9194  0.2908  0.1480
 8292WAT      O33873   2.680   4.200   3.675 -0.0544  0.2989 -0.0793
 8292WAT     H133874   2.654   4.274   3.638 -0.3587  0.9662  1.4191
 8292WAT     H233875   2.767   4.203   3.669 -0.0972  0.3496 -0.7770
 8292WAT    EPW33876   2.689   4.211   3.669  0.0733 -0.4217  0.6670
 8293WAT      O33877   3.127   0.110   6.835  0.2306 -0.0574 -0.8632
 8293WAT     H133878   3.206   0.076   6.853  1.1937  1.5409 -1.8237
 8293WAT     H233879   3.144   0.168   6.772 -1.2596  2.3751  0.8172
 8293WAT    EPW33880   3.141   0.113   6.828 -0.3481 -0.5005  0.0908
 8294WAT      O33881   4.976   4.817   6.786 -0.0133 -0.3278 -0.0385
 8294WAT     H133882   4.974   4.833   6.872  1.7090 -1.4335  0.2624
 8294WAT     H233883   4.971   4.730   6.782  0.2088 -0.2981 -1.0352
 8294WAT    EPW33884   4.975   4.807   6.798  0.0305 -0.2241  0.6834
 8295WAT      O33885   3.330   5.700   0.391  0.2629  0.2500  0.3390
 8295WAT     H133886   3.337   5.678   0.307  2.8487  1.8847  0.0382
 8295WAT     H233887   3.247   5.727   0.398  0.1959  0.7924 -1.8734
 8295WAT    EPW33888   3.319   5.701   0.380 -0.8188 -0.3913  0.3076
 8296WAT      O33889   5.867   1.941   4.486  0.2553 -0.2394 -0.4735
 8296WAT     H133890   5.865   2.028   4.485  0.3954 -0.2414 -0.9585
 8296WAT     H233891   5.889   1.922   4.569 -1.0201  0.1543 -0.0093
 8296WAT    EPW33892   5.870   1.951   4.498  0.5353 -0.6071  0.3729
 8297WAT      O33893   1.231   6.934   1.676 -0.0045 -0.3385 -0.2154
 8297WAT     H133894   1.202   6.886   1.743  0.8043 -1.1340 -0.4245
 8297WAT     H233895   1.172   6.998   1.670  0.9859  1.0443  2.6333
 8297WAT    EPW33896   1.218   6.937   1.685 -0.4735  0.2472 -0.2337
 8298WAT      O33897   3.358   2.439   2.707 -0.0705  0.1534  0.1868
 8298WAT     H133898   3.333   2.387   2.772  2.0371 -1.2848 -0.0490
 8298WAT     H233899   3.427   2.480   2.739  1.0004 -0.5648 -1.0696
 8298WAT    EPW33900   3.364   2.437   2.721  0.2031 -0.0130 -0.0708
 8299WAT      O33901   6.946   7.400   2.551 -0.4904 -0.1213  0.4603
 8299WAT     H133902   6.939   7.486   2.565 -1.7539 -0.1021 -0.1366
 8299WAT     H233903   7.024   7.392   2.515 -0.2636  0.7572  0.7231
 8299WAT    EPW33904   6.956   7.412   2.547 -0.1374  0.2804  0.6100
 8300WAT      O33905   7.823   3.450   2.606  0.9711 -0.0897  0.3485
 8300WAT     H133906   7.889   3.476   2.657  0.9195 -0.4204  0.5955
 8300WAT     H233907   7.793   3.523   2.570 -0.9752  0.6548  3.1506
 8300WAT    EPW33908   7.828   3.465   2.608 -0.3534  0.3559  0.0784
 8301WAT      O33909   5.428   5.188   3.901 -0.1374 -0.0060  0.6880
 8301WAT     H133910   5.409   5.121   3.953  0.7025 -0.6047  0.2511
 8301WAT     H233911   5.498   5.224   3.937 -1.0709  1.1856  1.3885
 8301WAT    EPW33912   5.435   5.184   3.914 -0.1072  0.9960  0.2007
 8302WAT      O33913   4.958   1.270   3.272 -0.1480  0.6886 -0.6333
 8302WAT     H133914   4.959   1.321   3.343 -0.8569 -1.2852  0.8660
 8302WAT     H233915   5.038   1.236   3.270 -0.8232 -1.1110  0.6995
 8302WAT    EPW33916   4.970   1.273   3.282  0.2045 -0.7960  0.2367
 8303WAT      O33917   6.637   4.298   4.443 -0.3888 -0.1544 -0.4760
 8303WAT     H133918   6.571   4.247   4.419 -0.2501 -1.0730  0.9672
 8303WAT     H233919   6.683   4.308   4.370 -2.4657  1.1480 -1.7277
 8303WAT    EPW33920   6.634   4.292   4.428 -0.0148  0.1078 -0.4399
 8304WAT      O33921   6.040   1.833   2.420  0.3673 -0.3197  0.9581
 8304WAT     H133922   6.093   1.850   2.486  0.2044 -0.6944  1.1918
 8304WAT     H233923   6.031   1.746   2.423 -0.6989 -0.2079  1.2630
 8304WAT    EPW33924   6.047   1.822   2.430  0.3615  0.0942 -0.0242
 8305WAT      O33925   6.493   7.931   3.825 -0.1055 -0.0252  0.3220
 8305WAT     H133926   6.431   7.887   3.783  0.5140  0.6152 -1.3517
 8305WAT     H233927   6.451   7.967   3.892 -1.4273 -0.0862 -0.4321
 8305WAT    EPW33928   6.478   7.930   3.829  0.1819 -0.3045  0.3019
 8306WAT      O33929   5.637   2.887   3.941 -0.4051 -0.1290 -0.2443
 8306WAT     H133930   5.655   2.914   4.022  0.4659 -1.3083 -0.0162
 8306WAT     H233931   5.583   2.948   3.910 -1.0024  0.1697  1.3252
 8306WAT    EPW33932   5.632   2.900   3.948 -0.0119  0.2118 -0.1299
 8307WAT      O33933   3.000   2.995   2.631  0.0046 -0.1685 -0.3466
 8307WAT     H133934   3.026   3.076   2.650  0.3653 -0.2207 -0.6006
 8307WAT     H233935   2.913   2.998   2.641 -0.0061  0.3025 -0.5519
 8307WAT    EPW33936   2.991   3.007   2.635  0.3006  0.5693  0.7769
 8308WAT      O33937   7.756   1.253   2.476 -0.0083  0.3251 -0.2090
 8308WAT     H133938   7.686   1.297   2.503  0.6171 -0.0576  2.2359
 8308WAT     H233939   7.775   1.201   2.543  2.9779  0.8351 -0.5038
 8308WAT    EPW33940   7.748   1.252   2.490  0.2863  0.7247 -0.2017
 8309WAT      O33941   7.721   5.888   3.981  0.1664  0.0392 -0.5314
 8309WAT     H133942   7.640   5.919   3.988  0.6471  1.9048 -2.0114
 8309WAT     H233943   7.743   5.868   4.063 -1.1835  1.2089  0.1736
 8309WAT    EPW33944   7.713   5.890   3.994 -0.3500 -0.3480  0.4180
 8310WAT      O33945   7.107   0.387   4.931 -0.0118  0.4431  0.4803
 8310WAT     H133946   7.180   0.363   4.973  0.9453 -0.9433 -1.7416
 8310WAT     H233947   7.136   0.445   4.873 -0.4660 -0.7342 -0.9821
 8310WAT    EPW33948   7.122   0.392   4.929  0.1937 -0.1719  0.0919
 8311WAT      O33949   1.675   4.605   7.027 -0.6639 -0.1354  0.5514
 8311WAT     H133950   1.620   4.615   7.094  0.9498  2.5067  1.6369
 8311WAT     H233951   1.673   4.683   6.988  0.8267 -0.6252 -0.5590
 8311WAT    EPW33952   1.666   4.618   7.031  0.2184  0.1779  0.2153
 8312WAT      O33953   2.125   0.107   0.486  0.8237 -0.4918 -0.6111
 8312WAT     H133954   2.063   0.046   0.489  0.2996  0.0665  0.0332
 8312WAT     H233955   2.175   0.089   0.555  0.9418 -0.4808 -0.6938
 8312WAT    EPW33956   2.123   0.095   0.497  0.0995 -0.3170 -0.2054
 8313WAT      O33957   7.147   2.642   3.535  0.4460  0.3362 -0.4568
 8313WAT     H133958   7.107   2.577   3.492 -1.2936  1.2139 -0.2582
 8313WAT     H233959   7.136   2.711   3.484  0.2698  0.9404  0.3646
 8313WAT    EPW33960   7.139   2.642   3.521 -0.0884 -0.5633 -0.2995
 8314WAT      O33961   5.804   0.695   2.232 -0.2045 -0.2311 -0.1923
 8314WAT     H133962   5.863   0.697   2.296  0.0669 -1.2121 -0.3955
 8314WAT     H233963   5.846   0.732   2.165  0.1422 -0.8173 -0.3018
 8314WAT    EPW33964   5.819   0.701   2.232  0.2162 -0.5508 -0.0841
 8315WAT      O33965   2.416   3.754   2.160  0.3562  0.3054 -0.5551
 8315WAT     H133966   2.434   3.676   2.125  1.6033 -0.4825  1.6549
 8315WAT     H233967   2.391   3.735   2.242  1.3207  2.2437  0.2467
 8315WAT    EPW33968   2.415   3.740   2.167 -0.4135  0.8120 -0.4125
 8316WAT      O33969   6.921   2.557   2.640 -0.2114  0.3357  0.3663
 8316WAT     H133970   6.981   2.506   2.678 -0.7832  1.2365  2.6318
 8316WAT     H233971   6.897   2.511   2.570  0.6294 -1.6626  1.3057
 8316WAT    EPW33972   6.926   2.542   2.635  0.2890 -0.0148  0.2910
 8317WAT      O33973   3.694   5.193   3.007 -0.1614  0.5054  0.2956
 8317WAT     H133974   3.617   5.224   2.982  0.6474  2.6863  0.2893
 8317WAT     H233975   3.688   5.188   3.093  0.1931  2.3331  0.4665
 8317WAT    EPW33976   3.682   5.197   3.016 -0.1800 -0.2942  0.3043
 8318WAT      O33977   2.679   2.839   2.833 -0.6273  0.1540 -0.0487
 8318WAT     H133978   2.729   2.774   2.804 -2.6987 -0.9546 -1.4052
 8318WAT     H233979   2.657   2.813   2.914 -0.8539 -0.4931 -0.3094
 8318WAT    EPW33980   2.683   2.826   2.841  0.1317 -0.2015 -0.3289
 8319WAT      O33981   5.162   7.259   2.517 -0.0311 -0.2810  0.5613
 8319WAT     H133982   5.190   7.221   2.590  0.5447 -0.9220  0.0302
 8319WAT     H233983   5.235   7.269   2.470 -0.4132 -0.0581  0.0033
 8319WAT    EPW33984   5.177   7.255   2.521  0.0101  0.0172  0.7308
 8320WAT      O33985   2.079   1.249   6.132 -0.0719  0.0856 -0.0211
 8320WAT     H133986   2.025   1.180   6.135  0.6843 -0.4904  1.3308
 8320WAT     H233987   2.099   1.262   6.216  3.9339 -1.3652 -0.5474
 8320WAT    EPW33988   2.074   1.241   6.145 -0.2560 -0.6331  0.7101
 8321WAT      O33989   2.384   5.150   5.502  0.1425  0.1824 -0.3680
 8321WAT     H133990   2.341   5.112   5.436 -0.3676 -0.3679  0.2618
 8321WAT     H233991   2.467   5.146   5.478 -0.1404  1.5437 -1.7634
 8321WAT    EPW33992   2.390   5.144   5.489  0.1706  0.5520  0.3428
 8322WAT      O33993   2.455   6.717   6.759 -0.2092 -0.7027  0.2696
 8322WAT     H133994   2.494   6.691   6.685  2.3502 -0.2969  1.3928
 8322WAT     H233995   2.511   6.693   6.821 -0.7872  1.7155  1.8403
 8322WAT    EPW33996   2.469   6.710   6.757  0.2401 -0.3769  0.1105
 8323WAT      O33997   3.839   0.664   2.397 -0.2357  0.5340  0.0201
 8323WAT     H133998   3.841   0.750   2.413 -1.6575  0.6990 -0.5366
 8323WAT     H233999   3.767   0.637   2.439  0.9794 -0.6756  1.4111
 8323WAT    EPW34000   3.828   0.673   2.406 -0.2251  0.4674  0.2201
 8324WAT      O34001   3.013   4.397   2.727  0.4765 -0.0132  0.7209
 8324WAT     H134002   3.036   4.458   2.784  1.0268 -0.3751  0.8958
 8324WAT     H234003   2.961   4.439   2.671  0.4800  0.4996  1.1005
 8324WAT    EPW34004   3.009   4.412   2.727 -0.5680 -0.9198  0.1813
 8325WAT      O34005   1.331   7.524   2.837 -0.6356 -0.4304 -0.1636
 8325WAT     H134006   1.305   7.459   2.785 -0.0091  1.0426 -2.4682
 8325WAT     H234007   1.256   7.565   2.858 -0.9518 -1.4014  0.6670
 8325WAT    EPW34008   1.316   7.521   2.833 -0.9460 -0.1805 -0.4684
 8326WAT      O34009   5.682   0.968   4.547 -0.1334  0.6221  0.4649
 8326WAT     H134010   5.623   1.017   4.589 -1.6199 -0.2545 -0.5210
 8326WAT     H234011   5.646   0.889   4.545  2.0599 -0.5314  1.7295
 8326WAT    EPW34012   5.668   0.963   4.553 -0.3502 -0.4025 -0.5390
 8327WAT      O34013   3.276   5.310   0.643  0.7108 -0.1924  0.0982
 8327WAT     H134014   3.283   5.257   0.712  0.4485  0.2285  0.4558
 8327WAT     H234015   3.283   5.256   0.575  1.2699 -0.5728  0.4494
 8327WAT    EPW34016   3.278   5.294   0.643 -0.1460 -0.5561 -0.1759
 8328WAT      O34017   3.967   1.062   1.766 -0.5831 -0.0316  0.6094
 8328WAT     H134018   3.955   1.052   1.852  1.1283 -0.4744  0.8248
 8328WAT     H234019   3.983   0.981   1.737 -3.6246 -0.3423 -0.6357
 8328WAT    EPW34020   3.967   1.049   1.774 -0.5691  0.3923  0.2849
 8329WAT      O34021   2.237   6.252   2.193  0.0861 -0.1057 -0.4190
 8329WAT     H134022   2.169   6.201   2.174 -0.8569  0.6324  0.8271
 8329WAT     H234023   2.226   6.321   2.142  0.4686 -0.4345 -0.9487
 8329WAT    EPW34024   2.225   6.254   2.183  0.1313 -0.0703  0.3318
 8330WAT      O34025   0.588   5.753   5.010  0.4065 -0.5084  0.6127
 8330WAT     H134026   0.551   5.817   4.963  0.3704  0.0480  1.3773
 8330WAT     H234027   0.633   5.708   4.951 -0.3744 -0.3727 -0.1123
 8330WAT    EPW34028   0.589   5.756   4.994 -0.0806 -0.0465  0.0523
 8331WAT      O34029   4.964   0.564   4.175  0.1781  0.5210 -0.0272
 8331WAT     H134030   5.024   0.583   4.236 -0.6678  0.4587  0.8536
 8331WAT     H234031   4.927   0.641   4.158  0.6495  0.5980 -0.7403
 8331WAT    EPW34032   4.968   0.578   4.182  0.3549 -0.1637 -0.1108
 8332WAT      O34033   6.168   0.784   2.488 -0.3775 -0.1091 -0.8957
 8332WAT     H134034   6.136   0.799   2.567  0.2647 -0.6632 -0.5175
 8332WAT     H234035   6.233   0.727   2.502 -1.1005 -1.2503 -1.9711
 8332WAT    EPW34036   6.173   0.778   2.501  0.2544 -0.3119 -0.4133
 8333WAT      O34037   3.425   1.539   3.472  0.3173  0.6728 -0.2625
 8333WAT     H134038   3.375   1.575   3.409  1.0301  0.5494 -0.9098
 8333WAT     H234039   3.444   1.460   3.441  2.6462  1.4470 -1.0337
 8333WAT    EPW34040   3.420   1.533   3.458 -0.0992  0.5388  0.1367
 8334WAT      O34041   0.197   7.651   3.510 -0.1651  0.4100  0.0936
 8334WAT     H134042   0.268   7.685   3.546  0.7433 -0.9109 -0.3737
 8334WAT     H234043   0.162   7.603   3.574 -1.3632  2.0070  0.7071
 8334WAT    EPW34044   0.202   7.649   3.525 -0.0842  0.5616 -0.0689
 8335WAT      O34045   5.444   4.523   2.907  0.2895 -0.0952  0.5281
 8335WAT     H134046   5.447   4.439   2.882  0.0599 -0.3766  1.4057
 8335WAT     H234047   5.359   4.539   2.914  0.3461 -0.0279  1.1178
 8335WAT    EPW34048   5.432   4.513   2.905 -0.0652  0.1583  0.3349
 8336WAT      O34049   3.072   2.359   5.126  0.3527  0.4748 -0.1785
 8336WAT     H134050   3.130   2.306   5.088  0.0291  1.4293 -2.1782
 8336WAT     H234051   3.009   2.305   5.153  1.6177 -0.4585  1.0132
 8336WAT    EPW34052   3.071   2.343   5.124  0.1421 -0.7071  0.0917
 8337WAT      O34053   2.252   7.004   4.652 -0.6066 -0.4140  0.5125
 8337WAT     H134054   2.235   6.931   4.608 -1.0861 -0.5030  0.8248
 8337WAT     H234055   2.332   6.992   4.683 -0.7946 -0.9459  0.8124
 8337WAT    EPW34056   2.261   6.992   4.650 -0.2556 -0.2482 -0.0813
 8338WAT      O34057   1.367   0.594   2.974 -0.6396  0.2104 -0.3247
 8338WAT     H134058   1.314   0.663   2.984 -0.7796  0.0994 -0.2977
 8338WAT     H234059   1.355   0.548   3.047 -0.0032  0.5239 -0.0111
 8338WAT    EPW34060   1.357   0.597   2.987 -0.5865  0.4538 -0.1817
 8339WAT      O34061   0.876   4.454   2.481 -0.2518 -0.7786 -0.4625
 8339WAT     H134062   0.947   4.458   2.531 -0.9491  0.4299  0.4990
 8339WAT     H234063   0.907   4.447   2.400  0.9344 -0.8394 -0.0104
 8339WAT    EPW34064   0.891   4.454   2.476 -0.1775  0.0647 -0.3370
 8340WAT      O34065   1.284   7.596   3.367  0.4295 -0.2379  0.2093
 8340WAT     H134066   1.314   7.521   3.335 -0.7098 -0.2638 -0.9165
 8340WAT     H234067   1.310   7.655   3.308  1.7897  0.3720  1.3638
 8340WAT    EPW34068   1.292   7.594   3.353 -0.8273 -0.4701 -0.0913
 8341WAT      O34069   5.152   7.610   1.660 -0.0839  0.4801  0.0106
 8341WAT     H134070   5.173   7.681   1.706 -0.0552  0.9758 -0.7523
 8341WAT     H234071   5.066   7.604   1.670  0.0962 -0.2519  1.2961
 8341WAT    EPW34072   5.142   7.620   1.668 -0.0361  0.3548  0.7380
 8342WAT      O34073   7.874   3.983   3.560  0.0687 -0.2024  0.1461
 8342WAT     H134074   7.923   4.054   3.546 -1.0353  0.7344  0.8562
 8342WAT     H234075   7.827   3.977   3.486  1.5475 -1.3894 -0.7398
 8342WAT    EPW34076   7.874   3.993   3.547 -0.0814 -0.2896 -0.0251
 8343WAT      O34077   2.873   0.739   4.117 -0.0397 -0.2714 -0.2290
 8343WAT     H134078   2.800   0.777   4.090 -0.4436 -0.1789  0.9599
 8343WAT     H234079   2.878   0.759   4.202  2.3742  1.3788 -0.6439
 8343WAT    EPW34080   2.863   0.747   4.126 -0.2905 -0.2710 -0.1891
 8344WAT      O34081   2.868   2.812   5.093  0.3142  0.2129 -0.0263
 8344WAT     H134082   2.870   2.780   5.012 -1.1701 -1.4965  0.5481
 8344WAT     H234083   2.886   2.742   5.143 -3.3507  0.0248  1.3129
 8344WAT    EPW34084   2.871   2.797   5.088 -0.0426 -0.0108 -0.0956
 8345WAT      O34085   3.978   1.942   7.414 -0.1952  0.2301  0.0060
 8345WAT     H134086   3.891   1.937   7.416 -0.2917  0.9000 -1.5721
 8345WAT     H234087   3.994   2.027   7.406  0.5118 -0.0462 -1.8885
 8345WAT    EPW34088   3.967   1.954   7.413 -0.2508  0.0946  0.1239
 8346WAT      O34089   5.045   6.821   2.408  0.2953  0.2978  0.1756
 8346WAT     H134090   5.017   6.896   2.376  0.5703  0.4045  0.1783
 8346WAT     H234091   5.122   6.841   2.444 -0.5570  0.4526  2.0408
 8346WAT    EPW34092   5.052   6.835   2.409 -0.7847 -0.4667  0.7882
 8347WAT      O34093   3.943   2.312   3.891  0.2466 -0.4085 -0.1654
 8347WAT     H134094   3.951   2.272   3.813  1.6956  0.3243 -0.4274
 8347WAT     H234095   3.884   2.374   3.876 -0.3137 -0.9759 -0.3679
 8347WAT    EPW34096   3.936   2.315   3.877  0.1591  0.3947 -0.4861
 8348WAT      O34097   4.479   2.038   0.279 -0.8067  0.2239  0.1085
 8348WAT     H134098   4.448   2.059   0.201 -1.2874 -1.3283 -0.1684
 8348WAT     H234099   4.563   2.057   0.274 -1.0394  1.1608 -0.3995
 8348WAT    EPW34100   4.487   2.044   0.267  0.3792 -0.2266 -0.4604
 8349WAT      O34101   5.108   0.556   3.928 -0.0871 -0.3956 -0.2775
 8349WAT     H134102   5.067   0.546   4.005 -0.1489 -1.1865 -0.4041
 8349WAT     H234103   5.043   0.550   3.870 -0.0674  0.4016 -0.3882
 8349WAT    EPW34104   5.092   0.554   3.931 -0.6163 -0.4904  0.2136
 8350WAT      O34105   5.530   1.376   6.680 -0.0506 -0.2726 -0.0347
 8350WAT     H134106   5.486   1.305   6.708  0.2883 -0.2969  0.4515
 8350WAT     H234107   5.595   1.342   6.632  0.6787 -0.3638  0.9701
 8350WAT    EPW34108   5.533   1.360   6.677  0.2767 -0.0585  0.6934
 8351WAT      O34109   4.243   7.797   1.182 -0.2539  0.0768  0.0033
 8351WAT     H134110   4.255   7.742   1.249 -0.4015  0.2435  0.1673
 8351WAT     H234111   4.266   7.875   1.215  0.9774 -0.0306 -0.5374
 8351WAT    EPW34112   4.249   7.800   1.197  0.2005 -0.8180  0.7144
 8352WAT      O34113   2.835   2.305   6.140 -0.7432  0.2516  0.3736
 8352WAT     H134114   2.806   2.251   6.077 -1.0868  1.6581 -0.7269
 8352WAT     H234115   2.920   2.311   6.124 -1.1205  2.1540 -1.2736
 8352WAT    EPW34116   2.843   2.298   6.128 -0.3793  0.3885 -0.3878
 8353WAT      O34117   2.084   0.628   4.078  0.1558  0.3430  0.8157
 8353WAT     H134118   2.026   0.598   4.136  0.3364 -1.4494  0.1381
 8353WAT     H234119   2.035   0.661   4.014 -0.1214 -0.4481  0.6091
 8353WAT    EPW34120   2.068   0.629   4.077  0.6339  0.0248 -0.3155
 8354WAT      O34121   5.305   2.876   2.931 -0.1004  0.3752  0.0794
 8354WAT     H134122   5.236   2.873   2.877  0.8389 -0.1584 -1.1409
 8354WAT     H234123   5.343   2.952   2.913 -0.3333  0.6468  0.7145
 8354WAT    EPW34124   5.300   2.887   2.920 -0.6173  0.6904 -0.5046
 8355WAT      O34125   3.414   1.656   0.233  0.0470  0.3071  0.1086
 8355WAT     H134126   3.404   1.570   0.244  0.5357  0.3168  0.7169
 8355WAT     H234127   3.333   1.686   0.227 -0.1141 -0.3884 -1.7795
 8355WAT    EPW34128   3.401   1.648   0.234  0.3879 -0.4225  0.2043
 8356WAT      O34129   6.867   3.072   2.402  0.3126 -0.2862  0.6415
 8356WAT     H134130   6.887   3.104   2.480  0.1693  0.2052  0.4809
 8356WAT     H234131   6.864   3.142   2.351  0.6151 -0.6212  0.1484
 8356WAT    EPW34132   6.869   3.087   2.406  1.2072  0.7289 -0.1956
 8357WAT      O34133   6.911   1.827   1.859  0.2752  0.1684 -0.1936
 8357WAT     H134134   6.941   1.855   1.936  1.5598 -0.1599 -0.5471
 8357WAT     H234135   6.894   1.743   1.872 -1.3140  0.5200  0.2186
 8357WAT    EPW34136   6.913   1.819   1.872 -0.9360 -0.4975  0.6196
 8358WAT      O34137   4.212   1.046   2.428  0.3049  0.4513  0.0704
 8358WAT     H134138   4.172   0.973   2.402  1.1519 -0.2407  0.6320
 8358WAT     H234139   4.195   1.103   2.364  1.3617 -0.8363 -1.4477
 8358WAT    EPW34140   4.204   1.043   2.415  0.1251 -0.0605 -0.1797
 8359WAT      O34141   2.327   3.279   4.544 -0.0488 -0.0612 -0.3140
 8359WAT     H134142   2.380   3.253   4.480  0.9083  1.7503 -0.3211
 8359WAT     H234143   2.250   3.291   4.504 -0.2248 -1.6270 -0.5192
 8359WAT    EPW34144   2.323   3.277   4.529 -0.2843 -0.0953 -0.5625
 8360WAT      O34145   5.464   6.844   5.825  0.6152 -0.0950 -0.1475
 8360WAT     H134146   5.500   6.868   5.750  1.1522 -0.0486  0.1227
 8360WAT     H234147   5.470   6.757   5.824  2.0104 -0.0262  0.5148
 8360WAT    EPW34148   5.470   6.835   5.814 -0.2739  0.0516  0.3438
 8361WAT      O34149   0.838   0.505   2.538  0.1546 -0.5975  0.0244
 8361WAT     H134150   0.919   0.474   2.539  0.5816  0.4452  1.1128
 8361WAT     H234151   0.807   0.483   2.617  1.1521  3.1794  1.7409
 8361WAT    EPW34152   0.845   0.497   2.550  0.1586  0.3022 -0.0657
 8362WAT      O34153   2.971   0.604   4.570 -0.0131 -0.1941 -0.0811
 8362WAT     H134154   2.942   0.669   4.520 -1.7474 -0.8184  0.0161
 8362WAT     H234155   3.011   0.644   4.636 -1.6695  0.8275  0.3485
 8362WAT    EPW34156   2.972   0.619   4.572  0.4658  0.4293 -0.1961
 8363WAT      O34157   5.631   6.331   7.567 -0.0772 -0.8340 -0.6237
 8363WAT     H134158   5.623   6.331   7.480 -0.3902  1.0863 -0.6444
 8363WAT     H234159   5.625   6.416   7.587  0.7575 -1.1775  1.2041
 8363WAT    EPW34160   5.629   6.344   7.557  0.4728  0.5659 -0.6061
 8364WAT      O34161   5.197   4.509   3.366 -0.1098  0.1867  0.7059
 8364WAT     H134162   5.140   4.553   3.415  0.1326  0.4443  0.7568
 8364WAT     H234163   5.255   4.479   3.423 -0.6474 -0.7880  0.7576
 8364WAT    EPW34164   5.197   4.511   3.381 -0.0211  0.7507  0.8906
 8365WAT      O34165   6.689   6.756   3.458  0.1957 -0.4660  0.3125
 8365WAT     H134166   6.752   6.797   3.414 -1.5638  1.3753 -0.6540
 8365WAT     H234167   6.643   6.821   3.493 -1.3442 -1.7206  0.7307
 8365WAT    EPW34168   6.692   6.771   3.457 -0.7209 -0.3399 -0.1566
 8366WAT      O34169   3.772   6.844   2.518 -0.0287  0.1694 -0.2978
 8366WAT     H134170   3.688   6.861   2.534 -0.4834 -1.1409 -1.1587
 8366WAT     H234171   3.810   6.923   2.522 -1.0746  0.6390  1.2609
 8366WAT    EPW34172   3.765   6.858   2.521  0.3857 -0.2675 -0.1544
 8367WAT      O34173   6.969   3.997   4.073 -0.3685  0.6418 -0.1357
 8367WAT     H134174   7.044   4.025   4.106 -0.3015 -0.9960  1.2236
 8367WAT     H234175   6.958   3.918   4.108 -1.4119 -0.3138 -2.3504
 8367WAT    EPW34176   6.978   3.989   4.083 -0.3108 -0.1723  0.2877
 8368WAT      O34177   2.187   7.485   4.168  0.2150 -0.3644  0.0919
 8368WAT     H134178   2.155   7.412   4.134 -1.0267  0.3892 -0.4345
 8368WAT     H234179   2.163   7.482   4.252  0.4934 -0.7258  0.1606
 8368WAT    EPW34180   2.179   7.474   4.175  0.1562 -0.0648 -0.0663
 8369WAT      O34181   3.399   0.832   3.747 -0.4453  0.3920 -0.2560
 8369WAT     H134182   3.476   0.792   3.755 -1.2265 -1.0747  0.3773
 8369WAT     H234183   3.351   0.776   3.702 -0.7347  1.9549 -2.0030
 8369WAT    EPW34184   3.403   0.818   3.742  0.2763  0.5822 -0.1001
 8370WAT      O34185   3.982   1.674   7.820  0.0293  0.3164  0.6262
 8370WAT     H134186   3.918   1.619   7.798 -0.7007  0.2568  2.7239
 8370WAT     H234187   3.960   1.748   7.779  0.5739 -0.6470 -1.5331
 8370WAT    EPW34188   3.969   1.677   7.811 -0.5194  0.8544  0.1593
 8371WAT      O34189   3.857   0.235   6.391  0.1090  0.0994 -0.1238
 8371WAT     H134190   3.868   0.289   6.459 -1.0642  0.6837 -0.3712
 8371WAT     H234191   3.794   0.181   6.419 -0.3305  0.3011 -0.7249
 8371WAT    EPW34192   3.849   0.235   6.405 -0.2688  0.4927  0.4931
 8372WAT      O34193   3.478   0.305   4.880  0.5807  0.2222  0.8563
 8372WAT     H134194   3.520   0.229   4.870  0.4972  0.4518 -1.9108
 8372WAT     H234195   3.397   0.281   4.900  0.1317 -0.5993 -1.5542
 8372WAT    EPW34196   3.472   0.290   4.881 -0.1190  0.3654 -0.9432
 8373WAT      O34197   6.298   2.504   3.178 -0.8504 -0.1685  0.4650
 8373WAT     H134198   6.228   2.451   3.176 -0.2671 -1.0633  2.0442
 8373WAT     H234199   6.286   2.550   3.250  0.7359 -1.1557  1.4072
 8373WAT    EPW34200   6.286   2.503   3.188  0.1692  0.1829 -0.0438
 8374WAT      O34201   4.100   0.613   3.346 -0.5852  0.0135 -0.1748
 8374WAT     H134202   4.066   0.692   3.360  1.5009  0.8787  0.2924
 8374WAT     H234203   4.065   0.564   3.410  0.9603  1.4976  1.9368
 8374WAT    EPW34204   4.090   0.617   3.358  0.1336 -0.0788 -0.0916
 8375WAT      O34205   5.702   4.573   6.099 -0.0276  0.2936  0.1864
 8375WAT     H134206   5.666   4.650   6.077  1.4365  0.5242 -1.6858
 8375WAT     H234207   5.734   4.543   6.024 -1.0052 -2.4507  0.7721
 8375WAT    EPW34208   5.702   4.580   6.085  0.1940 -0.6432  0.4121
 8376WAT      O34209   6.915   1.667   4.117  0.2473 -0.1157 -0.3219
 8376WAT     H134210   6.996   1.677   4.149  1.0378 -0.5944 -2.0116
 8376WAT     H234211   6.897   1.743   4.079  0.1455 -0.1852 -0.4177
 8376WAT    EPW34212   6.924   1.679   4.116  0.5529 -0.2756  0.4289
 8377WAT      O34213   5.705   7.031   2.136 -0.1161  0.0966  0.5521
 8377WAT     H134214   5.719   7.083   2.067  0.3052 -0.1481  0.4567
 8377WAT     H234215   5.778   6.985   2.143  0.6262  1.4136  2.3118
 8377WAT    EPW34216   5.718   7.032   2.127 -0.4433  0.4399  0.1834
 8378WAT      O34217   1.404   4.652   4.797  0.0813 -0.3209  0.1571
 8378WAT     H134218   1.486   4.639   4.823 -0.3112 -1.3738  0.9586
 8378WAT     H234219   1.393   4.591   4.735 -0.2190 -0.4674  0.3516
 8378WAT    EPW34220   1.415   4.641   4.792 -0.9110  0.0213  0.3160
 8379WAT      O34221   6.147   0.712   3.432 -0.9076 -0.3061  0.4325
 8379WAT     H134222   6.145   0.693   3.518 -2.2490 -0.0047  0.4900
 8379WAT     H234223   6.066   0.739   3.416 -0.7460 -0.6337 -1.0068
 8379WAT    EPW34224   6.135   0.713   3.443 -0.0020  0.4562  0.2834
 8380WAT      O34225   3.234   0.193   4.304  0.3653 -0.1978  0.2931
 8380WAT     H134226   3.178   0.256   4.328  1.2884  0.8212 -0.1699
 8380WAT     H234227   3.201   0.164   4.229 -0.4748 -0.8176  0.8753
 8380WAT    EPW34228   3.221   0.198   4.297  0.2304  0.0284  0.0944
 8381WAT      O34229   2.803   0.054   0.776 -0.0593  0.0089 -0.4335
 8381WAT     H134230   2.780  -0.017   0.732 -1.0890  1.5525 -2.5590
 8381WAT     H234231   2.730   0.101   0.781  0.5489  0.8933  1.0436
 8381WAT    EPW34232   2.789   0.050   0.770  0.4332 -0.5503  0.2847
 8382WAT      O34233   7.041   6.667   3.343  0.3480  0.4571 -0.1043
 8382WAT     H134234   6.975   6.722   3.356  0.6455  0.8594 -0.2612
 8382WAT     H234235   7.010   6.612   3.282 -0.2106 -0.0016  0.5839
 8382WAT    EPW34236   7.027   6.667   3.336  0.4193 -0.3764 -0.0853
 8383WAT      O34237   7.370   6.700   1.863  0.6149  0.0088  0.4262
 8383WAT     H134238   7.370   6.731   1.781  1.0153  1.2068  0.8563
 8383WAT     H234239   7.286   6.692   1.882  0.5063 -1.2361 -0.4279
 8383WAT    EPW34240   7.358   6.703   1.853  0.2834  0.3842 -0.6763
 8384WAT      O34241   1.173   0.440   4.889  0.5036 -0.8643  0.1007
 8384WAT     H134242   1.126   0.475   4.954 -0.0738  0.8410 -1.1758
 8384WAT     H234243   1.255   0.442   4.920  0.3909  0.9897  0.3559
 8384WAT    EPW34244   1.178   0.445   4.903  0.1993 -0.1610 -0.3129
 8385WAT      O34245   3.460   5.452   1.443  0.0156 -0.7363 -0.1064
 8385WAT     H134246   3.465   5.530   1.480 -0.1343 -0.5929 -0.3834
 8385WAT     H234247   3.376   5.430   1.452  0.2111 -1.2167  0.6705
 8385WAT    EPW34248   3.448   5.460   1.450  0.3030  0.2431  0.5587
 8386WAT      O34249   7.996   5.789   2.093  0.1439 -0.2788 -0.0987
 8386WAT     H134250   8.005   5.820   2.012 -0.1780  1.7320  0.5718
 8386WAT     H234251   8.079   5.783   2.121  0.2015  1.4145  0.2126
 8386WAT    EPW34252   8.010   5.793   2.085 -0.2502 -0.2050 -0.0206
 8387WAT      O34253   0.643   2.237   3.650  0.2796  0.3498  0.3255
 8387WAT     H134254   0.705   2.203   3.599  1.5818 -1.2497  2.8001
 8387WAT     H234255   0.571   2.192   3.628  0.3415  0.9481 -1.2777
 8387WAT    EPW34256   0.641   2.226   3.639 -0.3065 -0.7359 -0.2713
 8388WAT      O34257   4.258   2.117   6.150  0.4359  0.6234 -0.0241
 8388WAT     H134258   4.229   2.170   6.087 -1.4537  0.2988  0.4937
 8388WAT     H234259   4.281   2.045   6.107  0.6903  0.9826 -0.4985
 8388WAT    EPW34260   4.257   2.114   6.134  0.4193 -0.2197  0.3995
 8389WAT      O34261   2.094   5.963   7.587  0.0302  0.6822  0.0343
 8389WAT     H134262   2.130   5.949   7.665  0.6684 -1.4322 -0.5805
 8389WAT     H234263   2.009   5.972   7.606 -0.3384 -2.9946  0.7981
 8389WAT    EPW34264   2.087   5.962   7.601 -0.1867 -0.1450 -0.5893
 8390WAT      O34265   7.537   7.928   0.624 -0.2800 -0.0933  0.2881
 8390WAT     H134266   7.621   7.927   0.600 -0.4990 -0.2931 -0.4987
 8390WAT     H234267   7.495   7.940   0.549 -0.9523  0.1420  0.7001
 8390WAT    EPW34268   7.544   7.930   0.610 -0.2476  0.0194  0.2338
 8391WAT      O34269   0.642   2.614   3.148 -0.1343 -0.2827 -0.2292
 8391WAT     H134270   0.563   2.581   3.131 -0.2058  0.4482 -1.5011
 8391WAT     H234271   0.648   2.609   3.235 -0.7560 -2.1676 -0.2390
 8391WAT    EPW34272   0.631   2.608   3.158 -0.1258  0.5958 -0.1115
 8392WAT      O34273   3.731   6.742   6.811 -0.2425 -0.4023  0.1977
 8392WAT     H134274   3.741   6.780   6.734 -1.9180  0.6050  0.4377
 8392WAT     H234275   3.796   6.776   6.859 -0.4035  0.5317 -0.2174
 8392WAT    EPW34276   3.742   6.753   6.807 -0.3774  0.7801  0.3502
 8393WAT      O34277   5.734   1.618   8.013 -0.4495  0.2080 -0.0573
 8393WAT     H134278   5.674   1.597   7.954 -1.4021  0.1765  0.8807
 8393WAT     H234279   5.786   1.548   8.016 -1.2033 -0.3523  0.1198
 8393WAT    EPW34280   5.733   1.605   8.005 -0.5805  0.5539  0.3996
 8394WAT      O34281   3.870   7.382   0.101 -0.1023 -0.4301  0.3541
 8394WAT     H134282   3.852   7.394   0.016  0.1734 -1.3911  0.1551
 8394WAT     H234283   3.881   7.463   0.130  0.6891 -0.1219 -0.7253
 8394WAT    EPW34284   3.869   7.396   0.093 -0.1908 -0.5006  0.2966
 8395WAT      O34285   4.631   7.334   2.925  0.2875 -0.5918 -0.1522
 8395WAT     H134286   4.675   7.286   2.984  0.9641 -1.9515 -1.6784
 8395WAT     H234287   4.551   7.301   2.928 -0.0839  0.3458  1.0134
 8395WAT    EPW34288   4.626   7.322   2.934  0.3557  0.5748 -0.6096
 8396WAT      O34289   6.607   5.717   2.246 -0.1236  0.3301  0.3689
 8396WAT     H134290   6.642   5.663   2.186  0.0037 -0.1742  0.8866
 8396WAT     H234291   6.558   5.771   2.198 -0.7345 -0.6231 -0.1102
 8396WAT    EPW34292   6.605   5.717   2.230  0.2233 -0.2701  0.1165
 8397WAT      O34293   6.853   2.908   0.108 -0.4486  0.5438  0.5644
 8397WAT     H134294   6.940   2.909   0.101 -0.4412  1.2990  0.6830
 8397WAT     H234295   6.828   2.978   0.062 -0.8903  1.2341  1.8336
 8397WAT    EPW34296   6.862   2.918   0.100 -0.4580 -0.2591 -0.3857
 8398WAT      O34297   8.026   4.762   2.258 -0.0061  0.3966 -0.7569
 8398WAT     H134298   8.039   4.689   2.304 -1.1187  1.4360  1.3937
 8398WAT     H234299   7.971   4.737   2.195 -0.8171 -0.5394  0.2793
 8398WAT    EPW34300   8.019   4.747   2.256  0.1255  0.2578 -0.7301
 8399WAT      O34301   3.900   6.521   5.285 -0.5740  0.1788 -0.2426
 8399WAT     H134302   3.894   6.594   5.238 -0.7895  0.3550  0.0479
 8399WAT     H234303   3.818   6.490   5.285 -0.6455  0.3452  0.2610
 8399WAT    EPW34304   3.887   6.527   5.278 -0.7666  0.4089 -0.3185
 8400WAT      O34305   1.023   0.407   2.305 -0.4523 -0.0933 -0.1820
 8400WAT     H134306   0.949   0.445   2.281 -0.6670 -0.0128  0.5617
 8400WAT     H234307   1.076   0.421   2.238 -0.5947  1.3176 -0.0423
 8400WAT    EPW34308   1.020   0.415   2.292  0.3474  0.1568  0.0519
 8401WAT      O34309   3.624   2.744   7.888  0.2196  0.3235  0.6398
 8401WAT     H134310   3.623   2.798   7.819 -0.7000  1.2592  1.3491
 8401WAT     H234311   3.557   2.772   7.936  0.8833 -0.2847  1.9535
 8401WAT    EPW34312   3.614   2.756   7.885  0.0175 -0.6437 -0.2224
 8402WAT      O34313   4.412   7.522   5.915 -0.4914 -0.3560 -0.1528
 8402WAT     H134314   4.331   7.523   5.882 -0.5506 -0.3243 -0.0084
 8402WAT     H234315   4.447   7.598   5.888 -0.4624 -0.4328 -0.3324
 8402WAT    EPW34316   4.405   7.534   5.906 -0.6963 -0.2846  0.1854
 8403WAT      O34317   5.652   2.836   1.304 -0.5673  0.0306  0.7996
 8403WAT     H134318   5.620   2.756   1.295  0.4359 -0.2630 -0.5417
 8403WAT     H234319   5.607   2.883   1.246  1.9819 -0.6186 -1.9458
 8403WAT    EPW34320   5.641   2.831   1.294 -0.3438  0.5609  0.0710
 8404WAT      O34321   6.055   8.007   6.940  0.1455 -0.5401 -0.8788
 8404WAT     H134322   6.018   8.005   6.861  0.0926  1.6371 -0.9683
 8404WAT     H234323   6.112   8.072   6.934  1.1497 -1.2560  0.4794
 8404WAT    EPW34324   6.058   8.016   6.928  0.3202 -0.1250  0.2780
 8405WAT      O34325   5.216   4.892   3.350  0.1841  0.1802 -0.0461
 8405WAT     H134326   5.212   4.877   3.436  1.0766 -2.4242 -0.3828
 8405WAT     H234327   5.133   4.904   3.327 -0.3623 -1.5206  0.8529
 8405WAT    EPW34328   5.203   4.892   3.360 -0.0246  0.0759 -0.8914
 8406WAT      O34329   4.410   7.959   2.066  0.1551  0.0021 -0.0769
 8406WAT     H134330   4.418   8.036   2.106  0.6391  1.3667 -2.5890
 8406WAT     H234331   4.331   7.931   2.090  0.4104  0.7414  1.7252
 8406WAT    EPW34332   4.400   7.966   2.075  0.0266 -0.8558 -0.6203
 8407WAT      O34333   1.687   1.414   3.227 -0.4629  0.0454 -0.3601
 8407WAT     H134334   1.734   1.357   3.273  2.4432  3.1633  1.0402
 8407WAT     H234335   1.652   1.366   3.163  1.7231 -3.1915  0.6287
 8407WAT    EPW34336   1.689   1.399   3.224  0.2711  0.1794 -0.1117
 8408WAT      O34337   3.101   2.447   0.399 -0.1443  0.0480  0.5837
 8408WAT     H134338   3.071   2.455   0.317 -1.5942 -0.4281  1.0449
 8408WAT     H234339   3.188   2.442   0.388 -0.3909 -2.0849 -1.1187
 8408WAT    EPW34340   3.110   2.448   0.385  0.7230 -0.0669  0.2695
 8409WAT      O34341   5.604   6.325   0.661 -0.1875  0.2431 -0.6359
 8409WAT     H134342   5.554   6.382   0.617 -1.5793 -1.5490 -1.5152
 8409WAT     H234343   5.555   6.304   0.730  0.4055  0.2620 -0.2019
 8409WAT    EPW34344   5.589   6.330   0.664 -0.4370 -0.4400  0.4144
 8410WAT      O34345   4.253   0.378   0.297  0.3775  0.2921  0.3312
 8410WAT     H134346   4.255   0.434   0.365  0.3135 -1.2044  1.6172
 8410WAT     H234347   4.175   0.340   0.305 -0.7524  1.8308 -2.1358
 8410WAT    EPW34348   4.242   0.381   0.308 -0.1530 -0.6982  0.2316
 8411WAT      O34349   5.888   2.564   3.024  0.1273  0.1059  0.2678
 8411WAT     H134350   5.916   2.542   3.104 -0.3687 -1.1921  0.1126
 8411WAT     H234351   5.801   2.554   3.030  0.1518 -0.8937 -0.6565
 8411WAT    EPW34352   5.879   2.559   3.037  0.1325 -0.1965 -0.0252
 8412WAT      O34353   3.643   6.412   3.707  0.2628 -0.6139 -0.4705
 8412WAT     H134354   3.564   6.448   3.711  1.1767  1.4924  0.5204
 8412WAT     H234355   3.662   6.413   3.622  0.9316  3.2281 -0.4826
 8412WAT    EPW34356   3.634   6.418   3.695 -0.0215  0.0341  0.1093
 8413WAT      O34357   2.943   5.092   0.492  0.0430 -0.7499 -0.0384
 8413WAT     H134358   2.943   5.050   0.415  0.3320  0.7190 -0.8896
 8413WAT     H234359   3.023   5.127   0.495  0.6783 -2.2092  1.7939
 8413WAT    EPW34360   2.955   5.091   0.481  0.1580  0.1982 -0.6035
 8414WAT      O34361   3.874   0.097   1.044  0.3407 -0.0346  0.0382
 8414WAT     H134362   3.893   0.177   1.016  0.3389  0.8600  2.3991
 8414WAT     H234363   3.798   0.108   1.086  0.6426 -1.1297  0.9067
 8414WAT    EPW34364   3.866   0.110   1.046 -0.6951  0.3136 -0.2935
 8415WAT      O34365   3.023   0.164   5.415  0.2057 -0.3352 -0.4075
 8415WAT     H134366   3.002   0.144   5.333 -0.1818  0.3437 -0.4794
 8415WAT     H234367   3.108   0.183   5.410  0.2262 -0.4731 -0.6136
 8415WAT    EPW34368   3.033   0.164   5.402 -0.2569  0.0671  0.0324
 8416WAT      O34369   2.004   7.776   0.712 -0.0449  0.0263  0.0766
 8416WAT     H134370   2.006   7.823   0.639 -1.2014  2.0908  1.2731
 8416WAT     H234371   1.927   7.736   0.708  0.3556 -0.7240 -0.3083
 8416WAT    EPW34372   1.993   7.777   0.701  0.2074  0.0450 -0.3733
 8417WAT      O34373   1.646   0.927   1.435 -0.2212 -0.0622 -0.1506
 8417WAT     H134374   1.613   0.972   1.368  0.1816  2.0550  0.9755
 8417WAT     H234375   1.577   0.918   1.488 -0.2090 -0.4388 -0.2007
 8417WAT    EPW34376   1.631   0.933   1.433  0.5695  0.1507 -0.1749
 8418WAT      O34377   3.579   6.590   2.983 -0.1658 -0.1562  0.0261
 8418WAT     H134378   3.594   6.647   3.047  0.9003  0.8006 -1.0390
 8418WAT     H234379   3.501   6.556   3.003  0.6354 -0.7416  2.4286
 8418WAT    EPW34380   3.570   6.593   2.995 -0.1621  0.2016 -0.5281
 8419WAT      O34381   1.778   6.385   5.820 -0.0585 -0.0347 -0.5360
 8419WAT     H134382   1.826   6.393   5.748  2.3189 -0.9505  0.8387
 8419WAT     H234383   1.770   6.467   5.849  1.0270  0.1159 -0.6193
 8419WAT    EPW34384   1.784   6.398   5.814  0.4779  1.1250  0.2058
 8420WAT      O34385   1.031   1.019   2.987 -0.3134 -0.1208  0.2465
 8420WAT     H134386   0.959   0.971   2.978 -1.0283  1.0248 -0.5077
 8420WAT     H234387   1.002   1.091   3.028  0.2616  0.6445 -0.6699
 8420WAT    EPW34388   1.016   1.023   2.992  0.1413  0.0249  0.0104
 8421WAT      O34389   3.739   5.492   2.528 -0.2921  0.3496  0.3741
 8421WAT     H134390   3.785   5.464   2.597 -0.8968  2.1261  1.5920
 8421WAT     H234391   3.792   5.549   2.489  0.3205 -1.1754 -1.1087
 8421WAT    EPW34392   3.753   5.496   2.533 -0.0621 -0.4148 -0.4891
 8422WAT      O34393   4.606   1.827   1.983 -0.2088 -0.0429 -0.2135
 8422WAT     H134394   4.564   1.798   1.912 -0.5344 -0.7353  0.2537
 8422WAT     H234395   4.666   1.881   1.950 -2.7498  2.6334 -0.7965
 8422WAT    EPW34396   4.609   1.830   1.968 -0.2701 -0.4985  0.8972
 8423WAT      O34397   6.537   0.697   2.701  0.0306 -0.3870 -0.3881
 8423WAT     H134398   6.491   0.748   2.754  0.5634  0.5354 -0.7873
 8423WAT     H234399   6.614   0.688   2.742  0.4967  0.4458 -1.0301
 8423WAT    EPW34400   6.542   0.703   2.715  0.0018 -1.1651 -0.1212
 8424WAT      O34401   2.384   6.467   7.267 -0.0681  0.2465  1.1967
 8424WAT     H134402   2.371   6.381   7.265 -1.2175  0.3538  2.6825
 8424WAT     H234403   2.375   6.487   7.351 -2.8542  2.2399  0.5559
 8424WAT    EPW34404   2.381   6.457   7.279  0.8527  0.3188 -0.3557
 8425WAT      O34405   5.410   1.111   1.967  0.0285 -1.2111 -0.4125
 8425WAT     H134406   5.356   1.169   1.929  0.2547 -0.9101 -0.2790
 8425WAT     H234407   5.374   1.034   1.947 -1.0203 -0.9893  0.5215
 8425WAT    EPW34408   5.397   1.108   1.958  0.5472 -0.5135  0.5937
 8426WAT      O34409   2.275   3.096   2.402 -0.1192  0.2333  0.6372
 8426WAT     H134410   2.194   3.066   2.413 -0.6306  1.1674 -0.3837
 8426WAT     H234411   2.307   3.046   2.338  0.2599 -0.3671  1.2757
 8426WAT    EPW34412   2.268   3.084   2.394  0.1319  0.2356  1.0221
 8427WAT      O34413   4.531   7.210   0.855  0.1717 -0.1035  0.0486
 8427WAT     H134414   4.544   7.279   0.804 -1.3835  0.4541  0.3491
 8427WAT     H234415   4.523   7.244   0.935 -0.6780 -0.6146  0.1944
 8427WAT    EPW34416   4.532   7.225   0.859 -0.4747 -0.1055  0.4261
 8428WAT      O34417   2.205   1.347   0.600 -0.3870 -0.1497 -0.1614
 8428WAT     H134418   2.204   1.286   0.662  1.2078  1.3615  1.4445
 8428WAT     H234419   2.237   1.305   0.530  0.5773 -1.1720  0.8639
 8428WAT    EPW34420   2.210   1.332   0.599  0.2187 -0.2545 -0.4191
 8429WAT      O34421   1.226   2.488   1.347  0.3490 -0.2637  1.1602
 8429WAT     H134422   1.268   2.417   1.318  0.7541 -0.1889  1.5527
 8429WAT     H234423   1.157   2.494   1.294  1.7390  0.6240 -0.6386
 8429WAT    EPW34424   1.222   2.478   1.335  0.2386 -0.1964  0.3152
 8430WAT      O34425   7.867   7.286   1.510  0.1052 -0.0955 -0.1402
 8430WAT     H134426   7.910   7.209   1.512 -1.0680 -0.7736 -0.1774
 8430WAT     H234427   7.816   7.282   1.580  1.8438  1.7887  1.3695
 8430WAT    EPW34428   7.866   7.274   1.521 -0.0509  0.1048 -0.2096
 8431WAT      O34429   2.165   1.425   3.315 -0.2886 -0.1976 -0.2529
 8431WAT     H134430   2.135   1.469   3.246  1.3737  0.4149 -0.6327
 8431WAT     H234431   2.178   1.345   3.283 -2.4741 -0.8118  0.2134
 8431WAT    EPW34432   2.163   1.419   3.300  0.0622 -0.1936  0.6510
 8432WAT      O34433   7.866   7.504   4.636 -0.3337 -0.2197  0.1549
 8432WAT     H134434   7.935   7.467   4.598 -0.0876  0.2406  0.1404
 8432WAT     H234435   7.855   7.458   4.710  0.3943  0.1146  0.4772
 8432WAT    EPW34436   7.874   7.492   4.642  0.0877  0.1641  0.1360
 8433WAT      O34437   7.929   0.588   0.289  0.5925  0.4249 -0.0635
 8433WAT     H134438   7.868   0.576   0.228 -1.5234 -1.2785  2.1914
 8433WAT     H234439   7.916   0.670   0.315  0.1620  0.5081 -0.5221
 8433WAT    EPW34440   7.918   0.598   0.283  0.0195 -0.2334 -0.4026
 8434WAT      O34441   6.681   1.881   3.770 -0.0594  0.4064  0.4676
 8434WAT     H134442   6.714   1.877   3.851  1.0955  0.2593  0.0078
 8434WAT     H234443   6.641   1.804   3.760 -2.4755  1.3811  1.7965
 8434WAT    EPW34444   6.680   1.869   3.781 -0.0409  0.2923  0.2108
 8435WAT      O34445   1.523   2.011   0.293  0.3331 -0.6939  0.2378
 8435WAT     H134446   1.446   1.982   0.324 -0.1744  0.1309 -0.2095
 8435WAT     H234447   1.563   2.041   0.364 -0.5033  0.4827  0.2355
 8435WAT    EPW34448   1.517   2.011   0.308 -0.1276 -0.2516  0.8382
 8436WAT      O34449   1.799   7.519   3.136  0.0073 -0.0123  0.2051
 8436WAT     H134450   1.746   7.467   3.090  0.5742  1.5754 -2.3835
 8436WAT     H234451   1.744   7.571   3.179 -0.5374  0.0551 -0.5549
 8436WAT    EPW34452   1.783   7.519   3.136 -0.3284  0.2885 -0.0986
 8437WAT      O34453   4.260   0.804   6.238 -0.2362  0.0552 -0.4178
 8437WAT     H134454   4.207   0.861   6.198 -0.4725 -0.8290 -1.3929
 8437WAT     H234455   4.213   0.777   6.306 -1.2762 -1.0905 -1.5417
 8437WAT    EPW34456   4.245   0.808   6.242 -0.4988 -0.3545  0.4420
 8438WAT      O34457   5.433   2.622   0.037 -0.2120  0.5127 -0.1770
 8438WAT     H134458   5.352   2.636   0.009 -1.2570 -0.3908  2.1187
 8438WAT     H234459   5.437   2.535   0.045  1.6413  0.3628 -1.8805
 8438WAT    EPW34460   5.421   2.611   0.034  0.2665  0.4093  0.0838
 8439WAT      O34461   3.231   7.907   5.046 -0.0990  0.1987  0.1714
 8439WAT     H134462   3.167   7.928   4.990 -0.4188  1.4383  0.9706
 8439WAT     H234463   3.193   7.851   5.101  0.0021 -0.4238 -0.3824
 8439WAT    EPW34464   3.216   7.902   5.046  0.4575 -0.0432  0.2024
 8440WAT      O34465   5.402   2.418   2.990  0.7765 -0.4025 -0.1785
 8440WAT     H134466   5.354   2.491   2.992  0.5198 -0.5718 -0.1823
 8440WAT     H234467   5.439   2.420   2.911 -0.4053 -1.0278 -0.7781
 8440WAT    EPW34468   5.400   2.429   2.978  0.1707  0.0641  0.0825
 8441WAT      O34469   5.007   7.920   7.989  0.4140  0.7253  0.1273
 8441WAT     H134470   4.977   7.945   8.067  1.0843  1.4160  0.1737
 8441WAT     H234471   5.094   7.928   7.997  0.5647 -0.2364 -0.3420
 8441WAT    EPW34472   5.016   7.925   8.002 -0.0012 -0.0143  0.4146
 8442WAT      O34473   2.326   1.870   2.002  0.6640 -0.4938 -0.0765
 8442WAT     H134474   2.248   1.875   1.963  0.2955  1.4562  0.7849
 8442WAT     H234475   2.382   1.887   1.937  0.1908  0.5705 -0.2378
 8442WAT    EPW34476   2.323   1.873   1.987  0.7216  0.8625 -0.2984
 8443WAT      O34477   7.422   6.097   2.328 -0.1625  0.3558 -0.2205
 8443WAT     H134478   7.447   6.032   2.379  0.5572  0.1095 -0.8766
 8443WAT     H234479   7.449   6.073   2.249  0.6531  1.7173 -0.3826
 8443WAT    EPW34480   7.429   6.084   2.324  0.3437  0.0697  0.4517
 8444WAT      O34481   7.894   2.604   3.509  0.5727 -0.0837 -0.0330
 8444WAT     H134482   7.929   2.598   3.429  0.5110  0.8960 -0.1547
 8444WAT     H234483   7.919   2.531   3.548 -0.4863 -1.2139 -1.3718
 8444WAT    EPW34484   7.903   2.592   3.503 -0.3058 -0.4376  0.0671
 8445WAT      O34485   1.275   1.636   7.996 -0.0892  0.2433 -0.0810
 8445WAT     H134486   1.229   1.700   8.033  0.7314  0.5652  0.4111
 8445WAT     H234487   1.235   1.563   8.023 -1.2316  0.5287 -0.9141
 8445WAT    EPW34488   1.262   1.635   8.005 -0.1454  0.1639 -0.2845
 8446WAT      O34489   0.782   4.514   3.121  1.1193  0.5596 -0.4668
 8446WAT     H134490   0.702   4.544   3.140  0.1279  0.2755 -3.7212
 8446WAT     H234491   0.769   4.430   3.103  2.6382 -0.1136  1.2686
 8446WAT    EPW34492   0.769   4.506   3.121  0.0765  0.7547 -0.3528
 8447WAT      O34493   1.900   5.074   1.387 -0.6105 -0.2894 -0.0281
 8447WAT     H134494   1.887   5.157   1.412 -1.1978 -0.2751 -0.3739
 8447WAT     H234495   1.842   5.029   1.433  0.3859 -0.6489  0.9193
 8447WAT    EPW34496   1.890   5.080   1.397 -0.0417 -0.5520 -0.1794
 8448WAT      O34497   2.951   3.847   0.619 -0.4066 -0.7757 -0.0448
 8448WAT     H134498   3.008   3.913   0.611  0.4152 -1.4479  0.0286
 8448WAT     H234499   2.970   3.814   0.698 -1.8699 -0.1511  0.5965
 8448WAT    EPW34500   2.963   3.852   0.629  0.0134 -0.5197 -0.0498
 8449WAT      O34501   2.943   6.359   0.204 -0.1455  0.4117 -0.1430
 8449WAT     H134502   2.875   6.330   0.250 -0.3792  0.4147 -0.4859
 8449WAT     H234503   2.985   6.286   0.181  0.0373  0.4163  0.1757
 8449WAT    EPW34504   2.939   6.344   0.207  0.4447 -0.6607 -0.3782
 8450WAT      O34505   6.912   1.573   2.028  0.5787 -0.1439  0.2383
 8450WAT     H134506   6.842   1.590   2.078  1.1271  0.2563  0.8938
 8450WAT     H234507   6.900   1.490   2.003 -1.0090  0.4288 -1.1273
 8450WAT    EPW34508   6.900   1.563   2.032  0.3645  0.0849 -0.7200
 8451WAT      O34509   3.349   6.332   6.931  0.0903 -0.5530  0.0990
 8451WAT     H134510   3.265   6.319   6.910  0.7002 -1.7396 -1.8577
 8451WAT     H234511   3.372   6.399   6.879  0.9977 -1.9625 -1.4194
 8451WAT    EPW34512   3.340   6.340   6.920  0.1494 -0.6920  0.7103
 8452WAT      O34513   4.212   6.263   0.546 -0.2338 -0.2296 -0.0663
 8452WAT     H134514   4.249   6.191   0.578 -0.4135 -0.3725 -0.1768
 8452WAT     H234515   4.160   6.233   0.482  0.1969  0.0581 -0.5609
 8452WAT    EPW34516   4.210   6.248   0.541 -0.5196  0.3222  0.3372
 8453WAT      O34517   0.662   1.058   2.657  0.1516 -0.0415  0.4011
 8453WAT     H134518   0.686   1.134   2.694  2.3640 -0.6646  0.4076
 8453WAT     H234519   0.606   1.083   2.594 -0.5137  1.4035  1.4970
 8453WAT    EPW34520   0.657   1.073   2.653  0.0511 -0.6895 -0.2448
 8454WAT      O34521   3.213   3.341   6.272  0.3479 -0.3462 -0.3003
 8454WAT     H134522   3.136   3.369   6.302  0.7687  0.3320  0.1485
 8454WAT     H234523   3.227   3.390   6.202  0.5393 -0.2340 -0.1821
 8454WAT    EPW34524   3.204   3.352   6.266  0.0294  0.4632  0.1709
 8455WAT      O34525   4.854   3.046   4.084 -0.1126 -0.0419  0.0154
 8455WAT     H134526   4.781   3.035   4.131  0.0885  0.1537  0.3803
 8455WAT     H234527   4.837   3.004   4.010 -2.0638  2.9831 -1.4570
 8455WAT    EPW34528   4.841   3.038   4.080  0.1323  0.0460  0.1065
 8456WAT      O34529   4.208   1.889   4.227  0.0310  0.4231  0.0169
 8456WAT     H134530   4.147   1.944   4.196 -0.9587 -0.2674  0.6847
 8456WAT     H234531   4.283   1.924   4.199 -0.7267  0.1180 -2.7517
 8456WAT    EPW34532   4.210   1.902   4.218 -0.1378  0.4906  0.4558
 8457WAT      O34533   3.413   1.725   4.513  0.4077 -0.4927  0.2310
 8457WAT     H134534   3.455   1.730   4.590 -0.5601  0.8978  0.7245
 8457WAT     H234535   3.402   1.639   4.501  1.0275 -0.7604  1.4005
 8457WAT    EPW34536   3.417   1.713   4.523  0.6884  0.2326 -0.5178
 8458WAT      O34537   3.002   0.585   2.363 -0.1059  0.0386  0.1454
 8458WAT     H134538   3.002   0.630   2.437  0.0436  1.3849 -0.6340
 8458WAT     H234539   2.944   0.626   2.313  1.1551  0.3490 -1.1444
 8458WAT    EPW34540   2.993   0.597   2.366 -0.0023 -0.1810 -0.0303
 8459WAT      O34541   7.343   3.196   0.454  0.0545 -0.1433 -0.0073
 8459WAT     H134542   7.294   3.264   0.428 -0.4136  0.2733  1.7834
 8459WAT     H234543   7.393   3.230   0.517  0.7069 -1.1947  0.0694
 8459WAT    EPW34544   7.343   3.211   0.459 -0.0949 -0.4393  0.3083
 8460WAT      O34545   5.607   4.639   2.329 -0.0780 -0.1095 -0.8335
 8460WAT     H134546   5.556   4.699   2.291 -0.8598  1.0802  1.8328
 8460WAT     H234547   5.554   4.570   2.340 -0.7400  0.5725  0.5397
 8460WAT    EPW34548   5.592   4.638   2.325  0.5905  0.2991  0.0578
 8461WAT      O34549   7.472   5.724   1.053 -0.4271 -0.5960 -0.3251
 8461WAT     H134550   7.396   5.683   1.064 -1.1866  1.1783  1.5354
 8461WAT     H234551   7.449   5.805   1.029  0.9124 -0.2136 -0.3955
 8461WAT    EPW34552   7.458   5.730   1.051 -0.3564 -0.4754  0.0243
 8462WAT      O34553   2.293   3.890   7.230 -0.5009  0.0243 -0.8010
 8462WAT     H134554   2.344   3.961   7.229 -1.1135  0.4734 -0.4448
 8462WAT     H234555   2.214   3.921   7.250 -0.3968 -0.9865  1.4912
 8462WAT    EPW34556   2.289   3.905   7.233 -0.1933  0.3065 -0.2706
 8463WAT      O34557   4.870   0.310   1.032 -0.1636 -0.0346 -0.5728
 8463WAT     H134558   4.954   0.330   1.040  0.1398 -1.1276 -0.8948
 8463WAT     H234559   4.864   0.231   1.069 -0.8369 -0.4178 -1.4512
 8463WAT    EPW34560   4.881   0.301   1.039  0.6000  0.5476 -0.2356
 8464WAT      O34561   5.555   5.409   7.244  0.3643  0.2394  0.1155
 8464WAT     H134562   5.572   5.331   7.278  1.0077  0.7169  0.9276
 8464WAT     H234563   5.471   5.422   7.262  0.1018 -0.4910 -0.5220
 8464WAT    EPW34564   5.545   5.399   7.252 -0.9460 -0.3123  0.5138
 8465WAT      O34565   6.300   3.368   5.434 -0.2044  0.2732 -0.6751
 8465WAT     H134566   6.279   3.423   5.498 -2.9902  0.5740 -1.6987
 8465WAT     H234567   6.314   3.420   5.365  0.8645 -0.1400 -0.7864
 8465WAT    EPW34568   6.299   3.384   5.433 -0.2089 -0.1708  0.3249
 8466WAT      O34569   4.089   2.455   0.125 -0.0200 -0.5410  0.2312
 8466WAT     H134570   4.145   2.521   0.116 -0.4479 -0.1775  0.2129
 8466WAT     H234571   4.062   2.462   0.207 -2.1523  0.9990 -0.5339
 8466WAT    EPW34572   4.094   2.466   0.136 -0.2780 -0.5738  0.0569
 8467WAT      O34573   2.541   0.179   6.508 -0.4119 -0.3063 -0.4760
 8467WAT     H134574   2.472   0.139   6.544  0.2062  0.9612  2.4002
 8467WAT     H234575   2.522   0.264   6.516  0.2106  0.0692 -2.4237
 8467WAT    EPW34576   2.528   0.185   6.514 -0.6352 -0.1177 -0.1642
 8468WAT      O34577   6.065   4.418   1.796  0.4810  0.4575  0.0087
 8468WAT     H134578   6.107   4.457   1.861  0.4956  0.9144 -0.2676
 8468WAT     H234579   6.106   4.447   1.724  0.3113  0.1540 -0.2157
 8468WAT    EPW34580   6.077   4.428   1.795  0.4258  0.0174 -0.3267
 8469WAT      O34581   1.435   2.391   4.214  0.1969 -0.3460  0.2765
 8469WAT     H134582   1.483   2.323   4.187 -0.5557  0.2311 -3.0277
 8469WAT     H234583   1.415   2.432   4.139 -1.3889  2.1606  1.9312
 8469WAT    EPW34584   1.439   2.387   4.199  0.3089 -0.7825 -0.3397
 8470WAT      O34585   2.141   3.383   2.655 -0.2148  0.4738  0.0200
 8470WAT     H134586   2.061   3.356   2.678 -0.2966 -0.7898 -1.6306
 8470WAT     H234587   2.194   3.322   2.687  0.0173  0.7766  0.2277
 8470WAT    EPW34588   2.137   3.370   2.663 -0.5580  0.5201 -0.6290
 8471WAT      O34589   5.349   7.718   1.055  0.8885 -0.8762 -0.3038
 8471WAT     H134590   5.324   7.741   1.136 -0.8818  0.4086 -1.1554
 8471WAT     H234591   5.276   7.721   1.009  2.1343  0.2169 -2.3680
 8471WAT    EPW34592   5.335   7.722   1.060 -0.0540  0.2952  0.2518
 8472WAT      O34593   6.252   5.724   0.453 -0.4841  0.3843  0.3363
 8472WAT     H134594   6.280   5.785   0.508  0.7485 -0.5114  0.7317
 8472WAT     H234595   6.226   5.770   0.383 -1.3370  1.4769  1.3244
 8472WAT    EPW34596   6.252   5.740   0.451  0.1430  0.2046  0.2941
 8473WAT      O34597   4.992   2.253   6.180 -0.3394 -0.2209  0.7051
 8473WAT     H134598   4.953   2.184   6.218  0.5849  0.2358  2.5937
 8473WAT     H234599   5.058   2.272   6.234  0.2509  1.3255 -0.4804
 8473WAT    EPW34600   4.996   2.245   6.194 -0.2608  0.2888  0.0558
 8474WAT      O34601   4.397   5.395   1.674  0.5605  0.0058  0.5445
 8474WAT     H134602   4.461   5.401   1.615  0.4860  1.0056  0.5333
 8474WAT     H234603   4.415   5.459   1.731  0.7553 -1.0885  1.7570
 8474WAT    EPW34604   4.409   5.406   1.674  0.6546 -0.2778 -0.2238
 8475WAT      O34605   1.091   0.578   4.645 -0.4135  0.2410 -0.6020
 8475WAT     H134606   1.173   0.609   4.648 -0.7991  1.3054 -0.5333
 8475WAT     H234607   1.087   0.526   4.715  0.3086 -0.1114 -0.8086
 8475WAT    EPW34608   1.103   0.575   4.656  0.0320 -0.4080 -0.2426
 8476WAT      O34609   2.559   2.113   6.389 -0.2002  0.6172  0.0861
 8476WAT     H134610   2.645   2.097   6.391 -0.7020 -3.0086  0.4436
 8476WAT     H234611   2.538   2.100   6.305 -0.6890 -1.3946  0.4535
 8476WAT    EPW34612   2.569   2.108   6.377  0.9352  0.0213  0.8179
 8477WAT      O34613   4.450   0.661   3.699 -0.1335 -1.0625 -0.6372
 8477WAT     H134614   4.375   0.669   3.743  0.0980 -1.4826 -0.1595
 8477WAT     H234615   4.427   0.680   3.616 -0.5162 -0.0337 -0.3102
 8477WAT    EPW34616   4.435   0.665   3.693 -0.0409 -0.3630  0.4425
 8478WAT      O34617   5.822   3.235   6.770 -0.4978 -0.1606 -0.4508
 8478WAT     H134618   5.805   3.164   6.817  2.0867 -0.4183  0.2149
 8478WAT     H234619   5.884   3.276   6.815  1.5775 -0.0294 -3.1536
 8478WAT    EPW34620   5.829   3.231   6.783 -0.0012 -0.0808  0.1113
 8479WAT      O34621   7.318   2.661   1.622  0.4434 -0.4599 -0.1399
 8479WAT     H134622   7.404   2.675   1.629  0.4815 -0.0859 -1.1697
 8479WAT     H234623   7.290   2.733   1.582 -0.6181  0.1774  1.6331
 8479WAT    EPW34624   7.327   2.674   1.617 -0.2016  0.1342 -0.1237
 8480WAT      O34625   5.309   0.692   3.047 -0.2352 -0.4223  0.2639
 8480WAT     H134626   5.340   0.633   2.991  1.6513  1.2482 -0.5499
 8480WAT     H234627   5.365   0.687   3.114 -0.1540  0.3516  0.2522
 8480WAT    EPW34628   5.322   0.682   3.049  0.1830  0.0383  0.3307
 8481WAT      O34629   3.989   5.788   0.372 -0.0039  0.2175 -0.5140
 8481WAT     H134630   3.989   5.750   0.451 -0.3635  1.3434  0.0545
 8481WAT     H234631   3.927   5.745   0.328  0.6330 -0.8405 -0.4098
 8481WAT    EPW34632   3.980   5.776   0.377 -0.1899 -0.5399 -0.3352
 8482WAT      O34633   4.936   6.812   4.013  0.2677  0.1424 -0.3148
 8482WAT     H134634   4.855   6.835   3.989  0.4622  2.0657  0.7265
 8482WAT     H234635   4.985   6.837   3.945  0.1035 -0.1873 -0.5572
 8482WAT    EPW34636   4.931   6.819   3.999 -0.7188 -0.0577  0.2544
 8483WAT      O34637   4.780   0.515   5.731 -0.2474  0.1693  0.0845
 8483WAT     H134638   4.784   0.551   5.811 -1.5936 -0.9731  0.7097
 8483WAT     H234639   4.768   0.430   5.748 -2.3718  0.1123 -1.2814
 8483WAT    EPW34640   4.779   0.508   5.746 -0.2727 -0.1394 -0.0546
 8484WAT      O34641   4.021   0.088   2.767  0.2520 -0.3965  0.4433
 8484WAT     H134642   4.006   0.096   2.681  0.9981 -1.9783  0.1334
 8484WAT     H234643   4.042   0.169   2.792 -0.6298  0.2190 -0.7258
 8484WAT    EPW34644   4.022   0.101   2.758  0.1014  0.3751 -0.4218
 8485WAT      O34645   7.339   1.828   1.468 -0.0613  0.6442 -0.0657
 8485WAT     H134646   7.411   1.842   1.517  0.7723  1.2777 -1.4218
 8485WAT     H234647   7.285   1.891   1.493 -0.4532 -0.2473  1.4672
 8485WAT    EPW34648   7.342   1.839   1.479 -0.0785  0.3984 -0.0853
 8486WAT      O34649   0.896   5.734   2.638 -0.2174  0.0099  0.1682
 8486WAT     H134650   0.929   5.740   2.558  0.8158  1.1103  0.6457
 8486WAT     H234651   0.921   5.808   2.676  0.9225 -1.2425  2.0665
 8486WAT    EPW34652   0.905   5.746   2.632  0.0126 -0.6095  0.3806
 8487WAT      O34653   0.693   5.612   4.809  0.6196 -0.4648 -0.1722
 8487WAT     H134654   0.772   5.588   4.837  0.2791 -2.0293 -0.4048
 8487WAT     H234655   0.704   5.621   4.723  0.4697 -1.1178 -0.2676
 8487WAT    EPW34656   0.706   5.610   4.800  0.5997 -0.5010  0.0337
 8488WAT      O34657   7.091   4.980   0.549  0.3368  0.7508  0.2059
 8488WAT     H134658   7.018   4.934   0.560  0.4777  0.6043  0.5517
 8488WAT     H234659   7.105   5.016   0.628  1.2104 -0.0827  0.4514
 8488WAT    EPW34660   7.083   4.979   0.563  0.5270 -0.3028 -0.3474
 8489WAT      O34661   4.733   0.572   7.279 -0.2654  0.1520  0.6569
 8489WAT     H134662   4.740   0.659   7.269 -1.0381  0.1114 -0.4897
 8489WAT     H234663   4.807   0.542   7.243 -0.3148  0.3121  0.4166
 8489WAT    EPW34664   4.745   0.581   7.272  0.0102  0.3366 -0.4020
 8490WAT      O34665   0.248   5.780   2.434  0.2643 -0.0802 -0.1777
 8490WAT     H134666   0.188   5.839   2.457  0.2464 -0.0273 -0.3578
 8490WAT     H234667   0.311   5.790   2.494  1.4724  1.9241 -1.6684
 8490WAT    EPW34668   0.248   5.790   2.446 -1.2484 -0.3439  0.2255
 8491WAT      O34669   4.429   0.197   0.073  0.5669  0.4523 -0.4490
 8491WAT     H134670   4.414   0.264   0.127 -0.9040  1.2237 -1.7296
 8491WAT     H234671   4.404   0.127   0.120  0.8717  0.9229  0.4298
 8491WAT    EPW34672   4.423   0.196   0.088 -0.0020 -0.5369 -0.4133
 8492WAT      O34673   2.734   3.056   2.680 -0.1403 -0.0974  0.5127
 8492WAT     H134674   2.721   3.009   2.752  0.0931 -0.4677  0.3169
 8492WAT     H234675   2.732   3.138   2.708  0.0646 -0.2460  0.9623
 8492WAT    EPW34676   2.732   3.061   2.695  0.1563  0.2386  0.1756
 8493WAT      O34677   2.771   6.023   3.729 -0.1680 -0.0314  0.1154
 8493WAT     H134678   2.744   5.957   3.679 -2.2289  1.2568 -0.5931
 8493WAT     H234679   2.732   6.009   3.805  1.0569 -0.6951  0.6543
 8493WAT    EPW34680   2.761   6.011   3.733 -0.0764 -0.2965 -0.1301
 8494WAT      O34681   4.200   8.032   4.302  0.0061 -0.4849  0.1608
 8494WAT     H134682   4.277   8.023   4.262  2.2513  2.9789  3.0441
 8494WAT     H234683   4.194   7.961   4.352  1.5156 -0.7261  0.0537
 8494WAT    EPW34684   4.211   8.020   4.304  0.3273  0.1148 -0.0584
 8495WAT      O34685   2.332   5.513   5.231 -0.2100 -0.1977  0.4001
 8495WAT     H134686   2.347   5.566   5.163  0.0342 -1.2368 -0.3678
 8495WAT     H234687   2.409   5.474   5.244 -0.9129 -1.9147 -0.3927
 8495WAT    EPW34688   2.346   5.515   5.223 -0.5871 -0.0402 -0.6641
 8496WAT      O34689   4.597   2.237   2.527  0.4657 -0.2727  0.0429
 8496WAT     H134690   4.615   2.153   2.545 -3.1753 -1.2193 -0.0461
 8496WAT     H234691   4.538   2.232   2.463  0.0704  2.4005  0.1151
 8496WAT    EPW34692   4.591   2.224   2.520  0.6089 -0.1721 -0.1822
 8497WAT      O34693   5.912   0.860   1.445 -0.1578  0.2090 -0.5498
 8497WAT     H134694   5.969   0.926   1.454  0.9652 -0.7690 -0.1490
 8497WAT     H234695   5.913   0.845   1.359  1.0819 -0.5158 -0.4374
 8497WAT    EPW34696   5.921   0.868   1.434 -0.9253 -0.3061  0.4041
 8498WAT      O34697   2.507   6.338   5.501  0.2557 -0.3986  0.1279
 8498WAT     H134698   2.444   6.301   5.454 -0.3164  0.3126  0.3205
 8498WAT     H234699   2.553   6.270   5.530  2.3464 -0.8534 -3.6635
 8498WAT    EPW34700   2.504   6.323   5.498  0.0911  0.1320 -0.1581
 8499WAT      O34701   0.666   7.432   0.226  0.5875  0.0011 -0.0143
 8499WAT     H134702   0.645   7.488   0.289 -0.9964  0.1962 -0.6590
 8499WAT     H234703   0.618   7.458   0.158  0.3649 -1.6670 -0.5628
 8499WAT    EPW34704   0.656   7.444   0.225  0.4254 -0.1025 -0.0009
 8500WAT      O34705   7.237   5.206   1.871  0.2598 -0.2786 -0.6254
 8500WAT     H134706   7.237   5.292   1.856  0.1367 -0.5725 -2.6212
 8500WAT     H234707   7.251   5.200   1.956  2.6077  1.6836 -0.7671
 8500WAT    EPW34708   7.239   5.217   1.881 -0.3272 -0.9877 -0.4540
 8501WAT      O34709   0.606   2.382   0.369  0.2080 -0.0457 -0.6236
 8501WAT     H134710   0.572   2.325   0.312 -0.5004  0.3552 -0.6068
 8501WAT     H234711   0.683   2.403   0.334 -0.4755  0.6566 -1.7540
 8501WAT    EPW34712   0.613   2.376   0.356 -0.1820  0.5886  0.5459
 8502WAT      O34713   3.227   4.085   2.422  0.1259 -0.2103  0.4111
 8502WAT     H134714   3.201   4.118   2.345 -1.7334 -0.8981  0.6967
 8502WAT     H234715   3.227   4.154   2.475 -1.7097 -0.2514  0.5177
 8502WAT    EPW34716   3.223   4.100   2.418  0.5136 -0.8915  0.0915
 8503WAT      O34717   5.947   7.253   4.118  0.3435  0.0414 -0.1028
 8503WAT     H134718   5.984   7.174   4.116  3.3962  1.3432 -2.0897
 8503WAT     H234719   5.874   7.242   4.072 -0.0189 -1.8712  0.8187
 8503WAT    EPW34720   5.942   7.240   4.111  0.6615 -0.4007 -0.2236
 8504WAT      O34721   3.997   4.295   6.878 -0.3188  0.6370  0.2508
 8504WAT     H134722   4.029   4.244   6.941 -0.4088  1.9144  1.3733
 8504WAT     H234723   3.914   4.308   6.902 -0.6779  0.2482 -0.7311
 8504WAT    EPW34724   3.989   4.289   6.891 -0.1396  0.0255  0.4987
 8505WAT      O34725   0.471   5.029   0.218 -0.4568 -0.0288  0.0173
 8505WAT     H134726   0.509   5.072   0.284 -0.2018  0.4580 -0.4401
 8505WAT     H234727   0.486   5.079   0.149  1.3940 -1.6659 -0.8753
 8505WAT    EPW34728   0.479   5.042   0.217  0.0157 -0.2107  0.0786
 8506WAT      O34729   3.473   6.144   6.058  0.3658 -0.5211 -0.8319
 8506WAT     H134730   3.497   6.170   6.138 -1.2778 -0.6789 -0.2582
 8506WAT     H234731   3.525   6.191   6.006 -0.6744  2.0167  0.2419
 8506WAT    EPW34732   3.484   6.155   6.062 -0.5557  0.0561  0.1153
 8507WAT      O34733   2.783   0.536   0.254 -0.0963  0.1135 -0.2737
 8507WAT     H134734   2.784   0.451   0.273 -1.2138  0.3148  0.7822
 8507WAT     H234735   2.851   0.568   0.298  0.8873 -0.3415 -1.3981
 8507WAT    EPW34736   2.794   0.528   0.263  0.0400 -0.8930 -0.0677
 8508WAT      O34737   2.932   0.200   5.077  0.1953 -0.6188  0.4668
 8508WAT     H134738   2.902   0.274   5.041  0.3684 -1.0843 -0.6851
 8508WAT     H234739   2.860   0.160   5.105 -0.0889 -0.7982 -0.4748
 8508WAT    EPW34740   2.917   0.205   5.076  0.2722  0.3754 -0.7967
 8509WAT      O34741   0.732   4.050   5.111  0.5041 -0.2964  0.8876
 8509WAT     H134742   0.773   3.992   5.161 -1.0355 -1.8709  0.4187
 8509WAT     H234743   0.732   4.014   5.032  3.5057  2.4468 -0.5992
 8509WAT    EPW34744   0.738   4.036   5.107  0.0660 -0.9963 -0.7985
 8510WAT      O34745   4.051   1.764   1.958 -0.2446  0.2232  0.1067
 8510WAT     H134746   3.965   1.774   1.965 -0.4385 -0.4831 -0.9725
 8510WAT     H234747   4.061   1.726   1.880  0.9617 -0.7736  0.7151
 8510WAT    EPW34748   4.040   1.760   1.948  0.0739  0.2705 -0.3754
 8511WAT      O34749   3.239   6.674   5.444 -0.1503  0.4830 -0.0588
 8511WAT     H134750   3.218   6.609   5.499 -0.7038  1.3755  0.8094
 8511WAT     H234751   3.321   6.655   5.422 -0.5518 -0.9381 -0.4384
 8511WAT    EPW34752   3.248   6.661   5.449  0.0298  0.0856  0.3990
 8512WAT      O34753   5.887   5.128   3.417  0.1952 -0.2608  0.1106
 8512WAT     H134754   5.871   5.062   3.362 -0.9044 -1.0089  1.2612
 8512WAT     H234755   5.832   5.113   3.483 -0.0955  1.8210  0.4196
 8512WAT    EPW34756   5.876   5.116   3.418  0.4506  0.0152 -0.3774
 8513WAT      O34757   3.262   5.682   2.334 -0.1365 -0.7507 -0.1605
 8513WAT     H134758   3.279   5.622   2.395 -1.2330 -0.7952  0.1164
 8513WAT     H234759   3.279   5.758   2.375  0.2388 -0.8253 -0.1748
 8513WAT    EPW34760   3.267   5.685   2.349  0.5610 -0.3394 -0.5019
 8514WAT      O34761   3.117   5.632   1.438 -0.2994  0.3389 -0.2232
 8514WAT     H134762   3.056   5.613   1.379 -0.7359 -1.1262  0.6546
 8514WAT     H234763   3.087   5.705   1.475 -0.0470  1.2468 -1.7300
 8514WAT    EPW34764   3.104   5.640   1.435 -0.9499 -0.2678 -0.0794
 8515WAT      O34765   7.798   6.103   4.317 -0.0916  0.4124 -0.4583
 8515WAT     H134766   7.873   6.100   4.362 -1.1385 -2.2539  1.3091
 8515WAT     H234767   7.757   6.173   4.350  1.1616  1.3720 -0.8165
 8515WAT    EPW34768   7.803   6.113   4.328  0.0932  0.1991  0.4801
 8516WAT      O34769   0.093   4.069   1.269 -0.0278  0.2859  0.4332
 8516WAT     H134770   0.019   4.048   1.228  0.4598 -1.7722  0.5015
 8516WAT     H234771   0.081   4.153   1.291 -2.4223 -0.0183  0.6037
 8516WAT    EPW34772   0.080   4.078   1.266 -0.3155  0.5000 -0.0346
 8517WAT      O34773   7.744   5.349   0.536 -0.1577  0.3278  0.8269
 8517WAT     H134774   7.737   5.355   0.623 -0.9363  0.9785  0.7358
 8517WAT     H234775   7.666   5.376   0.508 -0.6030 -1.7173 -0.0368
 8517WAT    EPW34776   7.732   5.354   0.545 -0.0567  0.1104 -0.5359
 8518WAT      O34777   1.347   5.951   7.571  0.1335  0.4521 -0.0177
 8518WAT     H134778   1.357   6.025   7.525  0.0896 -0.4086 -1.4555
 8518WAT     H234779   1.415   5.903   7.546 -0.0855 -0.1738  0.5763
 8518WAT    EPW34780   1.359   5.955   7.560  0.1507 -0.4380  0.1185
 8519WAT      O34781   4.700   1.017   1.153 -0.3955  0.2291 -0.5543
 8519WAT     H134782   4.697   1.063   1.079 -1.3153  0.2774 -0.4925
 8519WAT     H234783   4.711   0.935   1.125  1.7956  0.4848 -0.6520
 8519WAT    EPW34784   4.701   1.012   1.138  0.0623  0.0746  0.1075
 8520WAT      O34785   6.328   0.399   5.015  0.0944  0.0719  0.2107
 8520WAT     H134786   6.304   0.482   5.008  1.7397  0.7316  1.6762
 8520WAT     H234787   6.260   0.361   5.054 -1.0365  0.4842 -1.2516
 8520WAT    EPW34788   6.315   0.405   5.020  0.6832  0.2047 -0.3000
 8521WAT      O34789   0.814   1.297   1.943 -0.0722  0.1629  0.0004
 8521WAT     H134790   0.787   1.282   1.862  0.0689  1.0611 -0.2240
 8521WAT     H234791   0.742   1.288   1.991  0.2026 -2.3261  0.0571
 8521WAT    EPW34792   0.800   1.294   1.938 -0.3674  0.0026 -0.6651
 8522WAT      O34793   5.778   2.808   6.311 -0.1938 -0.4705  0.6042
 8522WAT     H134794   5.818   2.735   6.339  1.3738  0.8346  1.9350
 8522WAT     H234795   5.753   2.848   6.384 -2.1995 -0.2387 -0.1503
 8522WAT    EPW34796   5.780   2.803   6.326 -0.0947  0.0042  0.3903
 8523WAT      O34797   2.507   6.555   2.947  0.3014 -0.1663  0.8706
 8523WAT     H134798   2.454   6.513   3.003  1.0943 -0.5585  1.3450
 8523WAT     H234799   2.469   6.633   2.938 -1.1671 -0.9322  0.0320
 8523WAT    EPW34800   2.494   6.560   2.954 -0.4385  0.1860  0.0553
 8524WAT      O34801   5.064   2.661   4.574  0.5504 -0.6737 -0.2213
 8524WAT     H134802   5.025   2.703   4.508  0.5424 -0.8309 -0.3155
 8524WAT     H234803   5.005   2.602   4.599 -0.4042  0.8610  1.4239
 8524WAT    EPW34804   5.050   2.659   4.568 -0.5052  0.1195  0.3096
 8525WAT      O34805   6.594   2.078   0.818  0.6490  1.0864 -0.2822
 8525WAT     H134806   6.623   2.156   0.844  1.4694  0.2881  1.3338
 8525WAT     H234807   6.635   2.064   0.742  0.4452  2.2271 -0.6192
 8525WAT    EPW34808   6.604   2.087   0.811 -0.0762 -0.0207 -0.0511
 8526WAT      O34809   2.898   1.260   4.955 -0.1678  0.0830  0.6931
 8526WAT     H134810   2.959   1.320   4.937 -0.8543 -0.0913 -2.9781
 8526WAT     H234811   2.832   1.306   4.987 -0.1378  1.1492 -0.6977
 8526WAT    EPW34812   2.897   1.275   4.957 -0.0116 -0.0007  0.2981
 8527WAT      O34813   1.007   6.744   3.170 -0.4686 -0.1795 -0.6095
 8527WAT     H134814   0.925   6.733   3.142 -0.2862 -2.2856 -0.4364
 8527WAT     H234815   1.000   6.739   3.257 -0.4737  2.3927 -0.3725
 8527WAT    EPW34816   0.994   6.742   3.179  0.0234  0.4021  0.4994
 8528WAT      O34817   0.643   6.335   1.549  0.9392  0.0599 -0.6346
 8528WAT     H134818   0.642   6.267   1.494 -0.4783  0.1868 -0.8049
 8528WAT     H234819   0.725   6.337   1.577  1.8466  0.2364 -3.0450
 8528WAT    EPW34820   0.655   6.325   1.545  0.5636 -0.1426  0.0722
 8529WAT      O34821   1.834   6.961   6.823 -0.0522 -0.0255 -0.0394
 8529WAT     H134822   1.816   6.877   6.805  0.0895 -0.2713  0.9175
 8529WAT     H234823   1.920   6.967   6.810  0.0792 -0.2460  0.6772
 8529WAT    EPW34824   1.844   6.950   6.819 -0.5691 -0.1335  0.0391
 8530WAT      O34825   0.681   1.221   1.703  0.1531  0.2339 -0.0323
 8530WAT     H134826   0.705   1.204   1.621 -1.4297 -0.5602 -0.3582
 8530WAT     H234827   0.601   1.255   1.695 -0.0886 -0.0048  1.1952
 8530WAT    EPW34828   0.673   1.224   1.690  0.4281  0.3459 -0.1069
 8531WAT      O34829   3.592   5.741   2.257  0.2089 -0.0416 -0.0369
 8531WAT     H134830   3.632   5.809   2.220  0.6988 -0.6659 -0.7166
 8531WAT     H234831   3.542   5.776   2.319  1.4798  0.8176  0.5429
 8531WAT    EPW34832   3.591   5.756   2.261  0.1295 -0.2209  0.0307
 8532WAT      O34833   1.921   7.266   0.209  0.1038 -0.3987  0.2268
 8532WAT     H134834   1.839   7.292   0.195 -0.1254  0.1576  2.2757
 8532WAT     H234835   1.913   7.181   0.227  0.0044 -0.4041  0.1542
 8532WAT    EPW34836   1.908   7.257   0.210  0.1978 -0.2922 -0.4479
 8533WAT      O34837   2.642   7.470   6.864  0.2602  0.7246 -0.4048
 8533WAT     H134838   2.705   7.412   6.848 -0.4225  0.5990 -3.1511
 8533WAT     H234839   2.659   7.497   6.945  1.9767 -1.5662  0.0987
 8533WAT    EPW34840   2.654   7.466   6.873  0.1609 -0.7021  0.3013
 8534WAT      O34841   4.818   2.414   2.551 -0.0790  0.4532  0.2721
 8534WAT     H134842   4.746   2.367   2.540 -1.4300  2.4790 -0.0418
 8534WAT     H234843   4.808   2.450   2.630  1.5931 -0.7960  1.1219
 8534WAT    EPW34844   4.806   2.413   2.561  0.2963 -0.4233  0.1745
 8535WAT      O34845   1.899   5.333   1.542  0.1420  0.5039  0.5885
 8535WAT     H134846   1.820   5.333   1.505  0.5524 -0.2487 -0.3284
 8535WAT     H234847   1.942   5.395   1.499  1.3222 -1.8426 -1.8698
 8535WAT    EPW34848   1.893   5.342   1.530  0.8458 -0.3146 -0.4148
 8536WAT      O34849   7.268   7.409   1.905 -0.0277  0.1789 -0.2632
 8536WAT     H134850   7.205   7.432   1.961 -0.9564 -0.5229 -0.9720
 8536WAT     H234851   7.258   7.323   1.897  3.0400 -0.5542  1.9485
 8536WAT    EPW34852   7.257   7.400   1.912  0.2026  0.0561  0.3787
 8537WAT      O34853   2.408   0.990   6.154 -0.1998 -0.2491 -0.0347
 8537WAT     H134854   2.411   1.016   6.237  1.9474 -1.3907  0.3188
 8537WAT     H234855   2.432   1.061   6.109 -1.1925  0.3203  0.3119
 8537WAT    EPW34856   2.412   1.004   6.159 -0.5422 -0.0105 -0.0590
 8538WAT      O34857   3.373   5.941   2.418  0.3263  0.1501  0.3214
 8538WAT     H134858   3.347   5.985   2.348  0.3457 -0.0743  0.1722
 8538WAT     H234859   3.324   5.974   2.482 -0.1373 -0.0786  0.0917
 8538WAT    EPW34860   3.362   5.952   2.417 -0.5778  0.1528  0.2903
 8539WAT      O34861   2.702   1.443   4.679 -0.1207 -0.1971  0.1730
 8539WAT     H134862   2.771   1.495   4.691  0.9998 -1.2017 -1.5177
 8539WAT     H234863   2.652   1.489   4.624  0.5296 -0.5637 -0.7543
 8539WAT    EPW34864   2.705   1.458   4.672 -0.0785  0.0625  0.0178
 8540WAT      O34865   2.763   2.099   2.695 -0.3234  0.0427  0.2204
 8540WAT     H134866   2.768   2.015   2.720  1.2686  0.3061  0.9045
 8540WAT     H234867   2.816   2.140   2.750 -0.0043  1.3039 -0.9646
 8540WAT    EPW34868   2.771   2.092   2.707  0.2076 -0.5795 -0.3983
 8541WAT      O34869   4.654   4.851   5.309 -0.4101  0.4382  0.0818
 8541WAT     H134870   4.736   4.827   5.292  0.7425  2.3293  2.3417
 8541WAT     H234871   4.610   4.776   5.309  1.3745 -0.6731 -0.8706
 8541WAT    EPW34872   4.660   4.837   5.307 -0.0200  0.2011  0.1071
 8542WAT      O34873   5.958   4.792   0.566  0.0124 -0.1051  0.4006
 8542WAT     H134874   5.972   4.789   0.480 -0.5150  3.5652  0.0103
 8542WAT     H234875   5.890   4.738   0.578  0.9825 -1.7840 -1.1779
 8542WAT    EPW34876   5.950   4.784   0.555  0.3358  0.4868 -0.2394
 8543WAT      O34877   4.207   0.585   6.884  0.1996  0.5517 -0.3412
 8543WAT     H134878   4.269   0.532   6.853 -0.1402  0.1103 -0.2695
 8543WAT     H234879   4.248   0.630   6.947 -0.4309 -2.4761  2.5437
 8543WAT    EPW34880   4.222   0.584   6.889  0.4815 -0.6650 -0.4961
 8544WAT      O34881   1.159   1.832   3.569  0.8359 -0.5903 -0.4823
 8544WAT     H134882   1.176   1.883   3.638  0.7601  2.5700 -2.5494
 8544WAT     H234883   1.194   1.755   3.590  3.7732  1.1443  1.7050
 8544WAT    EPW34884   1.166   1.828   3.582  0.1474  0.0054 -0.5315
 8545WAT      O34885   5.885   6.216   0.670 -0.2877  0.4987 -0.2646
 8545WAT     H134886   5.896   6.171   0.597 -1.8648  0.0455 -0.2515
 8545WAT     H234887   5.813   6.263   0.656  1.3065  3.1869 -0.3177
 8545WAT    EPW34888   5.876   6.217   0.657 -0.0522 -0.0689  0.0193
 8546WAT      O34889   1.454   6.773   0.326 -0.7636  0.0106 -0.1240
 8546WAT     H134890   1.419   6.850   0.345 -0.5874  0.0328  0.1165
 8546WAT     H234891   1.521   6.767   0.381 -0.7422 -0.2874 -0.1813
 8546WAT    EPW34892   1.458   6.783   0.337  0.4793  0.2877 -0.2683
 8547WAT      O34893   4.468   1.924   2.340 -0.0555 -0.3675  0.0178
 8547WAT     H134894   4.536   1.922   2.396  0.3202 -0.9412 -0.4454
 8547WAT     H234895   4.488   1.862   2.282 -0.0529  0.7664 -1.2300
 8547WAT    EPW34896   4.481   1.914   2.340 -0.1958 -0.1494  0.0205
 8548WAT      O34897   3.807   3.092   2.052 -0.5941 -0.1400 -0.1575
 8548WAT     H134898   3.816   3.135   2.128 -1.4376  0.5536 -0.4332
 8548WAT     H234899   3.888   3.064   2.035 -0.2894  0.1648  0.7199
 8548WAT    EPW34900   3.820   3.094   2.061 -0.6317  0.1854 -0.1434
 8549WAT      O34901   2.576   2.517   5.677 -1.1784  0.5327  0.5230
 8549WAT     H134902   2.550   2.517   5.761 -0.7518  0.1821  0.6573
 8549WAT     H234903   2.536   2.447   5.643 -0.5702  0.1023  0.6827
 8549WAT    EPW34904   2.566   2.507   5.685  0.3577  0.1847 -0.8061
 8550WAT      O34905   0.809   1.932   0.272 -0.3868 -0.0008  0.5586
 8550WAT     H134906   0.774   1.962   0.198  1.7219 -1.5060 -1.1647
 8550WAT     H234907   0.748   1.878   0.303 -0.2938 -1.4564 -1.5780
 8550WAT    EPW34908   0.794   1.929   0.265  0.1409 -0.3161  0.5326
 8551WAT      O34909   5.331   6.653   3.228  0.4692 -0.6497 -0.1708
 8551WAT     H134910   5.264   6.598   3.224  0.6510 -0.7944 -3.1890
 8551WAT     H234911   5.401   6.600   3.223  0.7169 -0.3156 -0.2583
 8551WAT    EPW34912   5.332   6.637   3.227 -0.4029 -0.2989 -0.0280
 8552WAT      O34913   4.666   1.169   0.386 -0.4650  0.0619  1.1031
 8552WAT     H134914   4.584   1.177   0.414 -0.9175 -0.2619 -0.1109
 8552WAT     H234915   4.710   1.226   0.437 -1.4917  0.5553  1.4724
 8552WAT    EPW34916   4.660   1.179   0.398 -0.3966  0.3619  0.1857
 8553WAT      O34917   2.509   7.181   6.089  0.4193 -0.4678 -0.2654
 8553WAT     H134918   2.437   7.220   6.060  0.5252  0.3219  0.4689
 8553WAT     H234919   2.487   7.097   6.095 -0.4789 -0.2201  0.0612
 8553WAT    EPW34920   2.495   7.175   6.086  0.1506 -0.3532  0.1547
 8554WAT      O34921   4.216   4.250   1.457 -0.3479  0.0016  0.1796
 8554WAT     H134922   4.222   4.322   1.408  0.8069 -1.0875 -1.3971
 8554WAT     H234923   4.179   4.192   1.403  0.2098 -1.0258  0.8653
 8554WAT    EPW34924   4.211   4.252   1.441 -0.0010 -0.2625 -0.1277
 8555WAT      O34925   4.106   1.199   6.608 -0.7308  0.6739 -0.8545
 8555WAT     H134926   4.122   1.258   6.545  1.8014 -0.4514 -1.4242
 8555WAT     H234927   4.137   1.237   6.680  0.4400  0.3133 -1.1355
 8555WAT    EPW34928   4.113   1.213   6.609 -0.6155  0.2261 -0.1729
 8556WAT      O34929   4.335   3.684   0.770  0.5991 -0.1057 -0.0907
 8556WAT     H134930   4.283   3.690   0.840  0.3553  0.7983 -0.3412
 8556WAT     H234931   4.380   3.759   0.771  1.4016 -0.5737 -0.2827
 8556WAT    EPW34932   4.334   3.696   0.781 -0.1804 -0.1036 -0.3536
 8557WAT      O34933   0.961   6.905   7.931 -0.0004  0.0129  0.2421
 8557WAT     H134934   0.897   6.930   7.984 -0.3219 -2.5355  1.2386
 8557WAT     H234935   0.922   6.853   7.873  1.2260 -3.1085  1.9656
 8557WAT    EPW34936   0.946   6.901   7.930 -0.5720 -0.4888  0.2572
 8558WAT      O34937   1.608   6.873   0.120  0.2248  0.3466  0.5800
 8558WAT     H134938   1.603   6.836   0.041 -0.5421  0.6253  0.4816
 8558WAT     H234939   1.551   6.827   0.168  0.1623  0.6257  0.7786
 8558WAT    EPW34940   1.599   6.861   0.115  0.1995 -0.5158  0.3069
 8559WAT      O34941   4.811   1.224   6.135 -0.1075  0.3404 -0.1836
 8559WAT     H134942   4.857   1.233   6.209 -0.5521 -0.1175  0.1543
 8559WAT     H234943   4.764   1.152   6.149 -0.8527  0.7403 -0.5669
 8559WAT    EPW34944   4.811   1.215   6.148  0.0858 -0.2090  0.3364
 8560WAT      O34945   2.935   6.295   0.791 -0.2490  0.0108 -0.2878
 8560WAT     H134946   2.969   6.295   0.711 -1.6083 -1.4827 -0.9308
 8560WAT     H234947   2.993   6.339   0.838  0.5997  0.9320 -2.0830
 8560WAT    EPW34948   2.948   6.302   0.786 -0.2585  0.0753 -0.4537
 8561WAT      O34949   1.448   6.472   0.240 -0.1966 -0.3790 -0.0386
 8561WAT     H134950   1.503   6.478   0.173  0.4164 -0.2678  0.4737
 8561WAT     H234951   1.468   6.541   0.290 -0.4023 -0.6669  0.4506
 8561WAT    EPW34952   1.459   6.483   0.238  0.0062  0.0801 -0.5739
 8562WAT      O34953   1.757   6.879   7.186 -0.1207 -0.1479 -0.2194
 8562WAT     H134954   1.808   6.873   7.116  0.9107 -0.0316  0.4994
 8562WAT     H234955   1.701   6.943   7.167  0.8050  0.5843 -0.5363
 8562WAT    EPW34956   1.756   6.887   7.173  0.2369  0.0872 -0.0992
 8563WAT      O34957   5.616   4.161   7.424 -0.0056  0.2327 -0.0208
 8563WAT     H134958   5.640   4.104   7.485  0.8192 -0.0738 -0.6125
 8563WAT     H234959   5.653   4.131   7.352 -0.8466  0.6719 -0.6585
 8563WAT    EPW34960   5.625   4.148   7.423  0.3142  0.1893 -0.4093
 8564WAT      O34961   4.200   2.012   2.386  0.2939 -0.1860 -0.0300
 8564WAT     H134962   4.274   1.968   2.376  0.2248 -0.2040 -0.4985
 8564WAT     H234963   4.205   2.044   2.467  1.4916  1.0889 -0.5631
 8564WAT    EPW34964   4.211   2.010   2.396  0.2967  0.2699  0.1434
 8565WAT      O34965   3.972   7.493   2.314 -0.0044  0.0354  0.1153
 8565WAT     H134966   3.979   7.481   2.228  1.9014  0.2944  0.1889
 8565WAT     H234967   3.994   7.416   2.347 -0.5372 -0.0050  0.3749
 8565WAT    EPW34968   3.976   7.480   2.306  0.1773  0.3598 -0.1841
 8566WAT      O34969   2.211   1.347   0.223 -0.1039 -0.4397  0.0145
 8566WAT     H134970   2.235   1.263   0.227  2.2415  0.0720 -1.4488
 8566WAT     H234971   2.247   1.375   0.148  0.5318  2.2550  1.2245
 8566WAT    EPW34972   2.220   1.339   0.212  1.0363  0.4990  0.4656
 8567WAT      O34973   6.620   2.356   2.990  0.1498  0.6558 -0.2363
 8567WAT     H134974   6.579   2.292   3.034  0.9624 -0.4959 -1.0870
 8567WAT     H234975   6.557   2.390   2.941 -0.3149  0.5509  0.2759
 8567WAT    EPW34976   6.605   2.351   2.990  0.1620  0.3811  0.5000
 8568WAT      O34977   3.476   5.280   2.831  0.1248  0.7785 -0.0356
 8568WAT     H134978   3.457   5.206   2.788 -0.6365  0.0133  1.5469
 8568WAT     H234979   3.457   5.342   2.773 -1.2596 -0.2001 -0.7027
 8568WAT    EPW34980   3.470   5.278   2.816  0.0294  0.3987  0.3906
 8569WAT      O34981   0.809   2.403   4.182 -0.2977  0.5708  0.2092
 8569WAT     H134982   0.748   2.393   4.243 -0.7365 -0.8986 -0.4140
 8569WAT     H234983   0.865   2.337   4.198 -0.2743  0.3350 -0.7821
 8569WAT    EPW34984   0.808   2.392   4.193 -0.3008  0.0877 -0.3527
 8570WAT      O34985   4.645   5.383   2.036  0.2258 -0.0527 -0.6276
 8570WAT     H134986   4.616   5.300   2.040  0.3812 -0.1012 -0.4702
 8570WAT     H234987   4.593   5.425   2.093  0.3465 -0.1037 -0.4792
 8570WAT    EPW34988   4.633   5.377   2.045  0.1136  0.0160 -0.1829
 8571WAT      O34989   0.219   1.598   1.322 -0.5405 -0.3343 -0.0596
 8571WAT     H134990   0.146   1.615   1.277  0.8973  3.7737 -1.2280
 8571WAT     H234991   0.208   1.642   1.396  0.9184  0.8852 -0.5217
 8571WAT    EPW34992   0.206   1.607   1.326 -0.6303  0.1620  0.0445
 8572WAT      O34993   3.475   1.951   4.090  0.4582  0.4375  0.1124
 8572WAT     H134994   3.445   1.918   4.015  0.9778  1.1200 -0.3920
 8572WAT     H234995   3.535   1.893   4.115  2.8936  1.9490 -1.8266
 8572WAT    EPW34996   3.479   1.937   4.083  0.3660  0.0422 -0.2891
 8573WAT      O34997   6.319   2.344   0.709  0.0666  0.1113  0.4022
 8573WAT     H134998   6.347   2.279   0.759 -1.5278 -2.4079 -1.7119
 8573WAT     H234999   6.380   2.349   0.646  1.7588  2.8596  2.0371
 8573WAT    EPW35000   6.332   2.335   0.707  0.4229  0.0350 -0.1484
 8574WAT      O35001   2.274   3.320   5.561 -0.0774  0.1650 -0.1522
 8574WAT     H135002   2.331   3.290   5.503 -0.1508  0.5117 -0.4056
 8574WAT     H235003   2.198   3.288   5.534 -0.4312  1.9297 -1.4165
 8574WAT    EPW35004   2.271   3.311   5.548 -0.4477  0.3065  0.1529
 8575WAT      O35005   7.136   1.986   2.740  0.0494  0.5299 -0.0280
 8575WAT     H135006   7.218   1.969   2.714  0.2715 -1.2252  1.6156
 8575WAT     H235007   7.143   2.001   2.825 -1.4167 -0.3313  0.2841
 8575WAT    EPW35008   7.149   1.986   2.749 -0.2587  0.0281 -0.4591
 8576WAT      O35009   5.510   1.667   3.658  0.5198 -0.4290 -0.1401
 8576WAT     H135010   5.554   1.702   3.592  0.8162 -0.1330  0.2061
 8576WAT     H235011   5.427   1.688   3.642  0.7706  1.1644  0.4771
 8576WAT    EPW35012   5.505   1.675   3.646 -0.2333  0.3747  0.0621
 8577WAT      O35013   5.659   5.578   2.919 -0.0734  0.1413 -0.3142
 8577WAT     H135014   5.714   5.512   2.933  0.8573  0.6822 -1.3330
 8577WAT     H235015   5.654   5.617   2.998  2.3379  1.0622 -0.5142
 8577WAT    EPW35016   5.667   5.574   2.933 -0.1507  0.1373  0.1790
 8578WAT      O35017   1.077   1.442   3.917  0.2474  0.7513  0.1444
 8578WAT     H135018   1.113   1.364   3.906  0.0625  0.7094 -0.1580
 8578WAT     H235019   1.121   1.475   3.985 -1.0593 -0.4514  1.6525
 8578WAT    EPW35020   1.089   1.436   3.926 -0.1614  0.2925  0.3381
 8579WAT      O35021   0.567   1.049   0.088 -0.0718 -0.5359 -0.2749
 8579WAT     H135022   0.627   0.987   0.074  2.2919  1.6593 -0.4591
 8579WAT     H235023   0.607   1.123   0.065 -2.4614  1.2062  0.7230
 8579WAT    EPW35024   0.581   1.051   0.082 -0.2240 -0.2319 -0.1720
 8580WAT      O35025   3.239   7.451   2.727  0.1493  0.2070  0.2104
 8580WAT     H135026   3.202   7.530   2.735 -0.1549  0.1281 -0.3347
 8580WAT     H235027   3.314   7.467   2.686  1.0204  0.4356  1.7985
 8580WAT    EPW35028   3.244   7.465   2.722 -0.2112  0.5746  0.1863
 8581WAT      O35029   1.802   6.562   7.589 -0.5482  0.5055  0.2121
 8581WAT     H135030   1.731   6.514   7.598 -0.7629  0.8035  0.1425
 8581WAT     H235031   1.776   6.642   7.612 -0.2214  0.6034  0.2495
 8581WAT    EPW35032   1.788   6.567   7.594  0.4009 -0.0343  0.3009
 8582WAT      O35033   5.805   4.478   2.184  0.7747 -0.0082  0.8442
 8582WAT     H135034   5.774   4.402   2.216 -1.1287 -0.2004 -1.2634
 8582WAT     H235035   5.752   4.538   2.219  0.2197  0.0137 -0.0229
 8582WAT    EPW35036   5.792   4.475   2.194  0.6293  0.1424 -0.0505
 8583WAT      O35037   3.455   3.008   2.198  0.1714  0.0769 -0.3719
 8583WAT     H135038   3.490   2.958   2.135 -1.8645 -0.1382 -1.4498
 8583WAT     H235039   3.507   2.995   2.266  0.6680 -2.2966 -1.0858
 8583WAT    EPW35040   3.468   2.999   2.199  0.5711  0.4044 -0.1617
 8584WAT      O35041   1.165   3.826   5.433  0.2537  0.9466  0.3182
 8584WAT     H135042   1.197   3.878   5.495  1.8838 -0.2302  0.5275
 8584WAT     H235043   1.223   3.834   5.368 -0.1686  0.3719 -0.1432
 8584WAT    EPW35044   1.178   3.835   5.432  0.3037 -0.6797  0.8369
 8585WAT      O35045   3.143   2.645   6.972  0.3276 -0.3191  0.2916
 8585WAT     H135046   3.114   2.678   7.048 -0.4864  0.7815 -0.4638
 8585WAT     H235047   3.075   2.598   6.943 -0.2683  1.1410 -0.8236
 8585WAT    EPW35048   3.129   2.643   6.979 -0.1280  0.0009 -0.1487
 8586WAT      O35049   6.503   7.108   1.317  0.2346  0.0527 -0.3262
 8586WAT     H135050   6.439   7.119   1.376  0.0002 -0.4538 -0.4816
 8586WAT     H235051   6.489   7.027   1.287  1.9763 -0.7641  0.8855
 8586WAT    EPW35052   6.491   7.098   1.321  0.2421  0.3280 -0.8300
 8587WAT      O35053   6.274   1.683   0.316  0.0076 -0.5558 -0.1595
 8587WAT     H135054   6.330   1.692   0.250 -0.9524 -0.8916 -1.0405
 8587WAT     H235055   6.294   1.750   0.369  0.7307 -0.2331 -0.8254
 8587WAT    EPW35056   6.285   1.694   0.314 -0.0703  0.3012 -0.5142
 8588WAT      O35057   6.862   2.054   2.704 -0.1639 -0.0867 -0.4635
 8588WAT     H135058   6.849   2.124   2.754  0.5829  0.6982 -1.3287
 8588WAT     H235059   6.944   2.031   2.723 -0.3677 -0.6683 -0.2703
 8588WAT    EPW35060   6.872   2.061   2.714 -0.0209  0.3054 -0.6534
 8589WAT      O35061   1.548   2.641   4.911  0.2526 -0.4654  0.4645
 8589WAT     H135062   1.498   2.606   4.848  0.1792 -0.0091  0.2679
 8589WAT     H235063   1.600   2.575   4.934 -1.6856 -1.5603  2.0276
 8589WAT    EPW35064   1.548   2.626   4.905  0.0226  0.2526  0.4579
 8590WAT      O35065   3.670   1.005   5.842 -0.4372 -0.3333 -0.2894
 8590WAT     H135066   3.616   1.062   5.881 -1.1113 -0.3677 -1.1458
 8590WAT     H235067   3.615   0.949   5.804  0.1954 -0.0373 -1.6838
 8590WAT    EPW35068   3.654   1.005   5.842  0.2927  0.0206  0.1711
 8591WAT      O35069   5.810   7.275   3.038 -0.3213  0.9462  0.1681
 8591WAT     H135070   5.884   7.309   3.069  0.2669  1.0027 -1.2150
 8591WAT     H235071   5.817   7.288   2.952 -1.9655  0.9966  0.0222
 8591WAT    EPW35072   5.822   7.282   3.029 -0.5333  0.1751  0.2564
 8592WAT      O35073   4.932   1.449   3.639 -0.5052 -0.3113 -0.7536
 8592WAT     H135074   4.966   1.474   3.716  0.9185 -1.2330 -1.0337
 8592WAT     H235075   4.863   1.401   3.662  0.5330 -1.5053  0.0298
 8592WAT    EPW35076   4.927   1.446   3.654  0.4565 -0.3823 -0.1895
 8593WAT      O35077   6.099   3.981   6.362  0.1349  0.1912 -0.4704
 8593WAT     H135078   6.112   3.906   6.321 -0.0815  0.4359 -0.9844
 8593WAT     H235079   6.131   4.041   6.308 -1.8860  0.6960 -1.1825
 8593WAT    EPW35080   6.106   3.979   6.348 -0.2059  0.3251  1.1429
 8594WAT      O35081   1.277   0.500   1.325 -0.1426  0.3267  0.3206
 8594WAT     H135082   1.247   0.582   1.323  0.7361  0.6538 -0.2267
 8594WAT     H235083   1.215   0.455   1.282 -0.0915  0.9030 -0.3793
 8594WAT    EPW35084   1.263   0.506   1.318 -0.0388  0.1148 -0.8721
 8595WAT      O35085   7.100   1.045   1.053  0.2931  0.0539  0.3580
 8595WAT     H135086   7.161   1.099   1.082  0.3216 -0.6002  1.5982
 8595WAT     H235087   7.036   1.052   1.112 -0.7112  0.4888 -0.7404
 8595WAT    EPW35088   7.099   1.054   1.066  0.3159 -0.2565 -0.0659
 8596WAT      O35089   7.807   1.589   8.020  0.0642  0.5761  0.2430
 8596WAT     H135090   7.874   1.572   8.074 -0.8735 -1.9867  0.7650
 8596WAT     H235091   7.829   1.546   7.947  0.2199  2.0590 -0.6198
 8596WAT    EPW35092   7.820   1.580   8.017 -0.1426 -0.1742 -1.0650
 8597WAT      O35093   4.472   4.956   5.642 -0.5364 -0.3996 -0.4151
 8597WAT     H135094   4.537   4.901   5.625 -0.9597 -1.1949  0.4946
 8597WAT     H235095   4.424   4.915   5.702 -0.9082  0.9246  0.2395
 8597WAT    EPW35096   4.474   4.942   5.648 -0.2119 -0.2149 -0.1979
 8598WAT      O35097   6.354   3.118   7.707  0.1926 -0.4465  0.3560
 8598WAT     H135098   6.329   3.158   7.633  0.0107 -0.2341  0.5281
 8598WAT     H235099   6.326   3.172   7.770  0.7542 -0.3974  0.5690
 8598WAT    EPW35100   6.346   3.132   7.706  0.0682 -0.0935 -0.1320
 8599WAT      O35101   0.812   4.455   0.971  0.4420 -0.0293 -0.3426
 8599WAT     H135102   0.851   4.530   0.950 -2.1659  1.4662 -0.2588
 8599WAT     H235103   0.733   4.462   0.934 -1.0177 -1.3006  2.2498
 8599WAT    EPW35104   0.806   4.467   0.963  0.1876 -0.1977 -0.3873
 8600WAT      O35105   3.224   7.686   6.505 -0.9884  0.5045 -0.1269
 8600WAT     H135106   3.221   7.647   6.426 -0.9720  0.7127 -0.2294
 8600WAT     H235107   3.307   7.676   6.530 -1.2532 -0.6105  0.3910
 8600WAT    EPW35108   3.236   7.679   6.497  0.2326  0.2648  0.0786
 8601WAT      O35109   2.354   7.679   5.465 -0.0614  0.4687  0.1601
 8601WAT     H135110   2.437   7.670   5.441 -0.3135 -0.7233 -0.3226
 8601WAT     H235111   2.311   7.679   5.389 -0.4607  1.7994  0.3600
 8601WAT    EPW35112   2.360   7.678   5.450  0.2128  0.1883 -1.3292
 8602WAT      O35113   5.098   0.012   5.512  0.2503  0.5329  0.5130
 8602WAT     H135114   5.059   0.089   5.499  1.2079  0.9477 -0.0187
 8602WAT     H235115   5.108   0.008   5.598 -0.8421  0.4722  0.6460
 8602WAT    EPW35116   5.094   0.023   5.523  0.0600 -0.3709 -0.4351
 8603WAT      O35117   8.083   4.858   1.435  0.5272 -0.4034 -0.1417
 8603WAT     H135118   8.013   4.908   1.421  0.5399 -0.9179 -2.4204
 8603WAT     H235119   8.052   4.777   1.425  1.0103 -0.7785  1.1387
 8603WAT    EPW35120   8.068   4.854   1.432  0.4904 -0.4243  0.0718
 8604WAT      O35121   6.163   0.958   1.563 -0.3649 -0.5519  0.0297
 8604WAT     H135122   6.215   0.906   1.517 -0.8589 -0.5518 -0.5421
 8604WAT     H235123   6.173   0.930   1.645  3.7825  2.0550  0.7248
 8604WAT    EPW35124   6.172   0.947   1.568  0.2423 -0.5271 -0.2310
 8605WAT      O35125   7.680   7.392   0.644 -0.4013 -0.7159  0.1439
 8605WAT     H135126   7.677   7.443   0.574 -0.7966  0.0425  0.7063
 8605WAT     H235127   7.740   7.332   0.622  0.4046  0.2377 -0.3583
 8605WAT    EPW35128   7.689   7.390   0.630 -0.7626  0.1992  0.0565
 8606WAT      O35129   3.517  -0.020   3.754 -0.0658  0.0972 -0.2795
 8606WAT     H135130   3.586   0.021   3.718  2.7018 -2.3275  1.7524
 8606WAT     H235131   3.516   0.010   3.836  0.8648 -2.2593  0.7069
 8606WAT    EPW35132   3.527  -0.010   3.761  0.2211  0.1514 -0.2402
 8607WAT      O35133   3.323   1.325   7.607 -0.3019  0.4982  0.4666
 8607WAT     H135134   3.393   1.273   7.602 -1.4240 -0.9922 -0.8871
 8607WAT     H235135   3.290   1.322   7.527 -1.1829  2.2721  0.7164
 8607WAT    EPW35136   3.329   1.316   7.595 -0.1564 -0.0873 -0.8932
 8608WAT      O35137   3.922   5.154   0.622  0.6320 -0.1300 -0.1803
 8608WAT     H135138   3.955   5.225   0.660  1.7789  0.0162 -1.3942
 8608WAT     H235139   3.990   5.120   0.579 -0.6497 -0.0126 -2.4763
 8608WAT    EPW35140   3.937   5.160   0.621 -0.2981 -0.2437  0.2530
 8609WAT      O35141   3.665   0.007   7.329 -0.0726 -0.1171 -0.6240
 8609WAT     H135142   3.680   0.050   7.255  0.4251  1.8509  0.5344
 8609WAT     H235143   3.702   0.058   7.390 -1.4971 -1.0371  1.1164
 8609WAT    EPW35144   3.673   0.021   7.327 -0.7254 -0.1613 -0.1866
 8610WAT      O35145   2.161   4.339   1.182  0.3552  0.6711 -0.2323
 8610WAT     H135146   2.189   4.277   1.127 -0.9934 -1.3856  1.2289
 8610WAT     H235147   2.232   4.358   1.228  0.5582 -0.8183  0.1413
 8610WAT    EPW35148   2.176   4.332   1.181 -0.2615 -0.0635 -0.1236
 8611WAT      O35149   2.847   0.871   5.505  0.2387 -0.1021 -0.8202
 8611WAT     H135150   2.813   0.804   5.550  2.1375  0.4505  1.6357
 8611WAT     H235151   2.921   0.837   5.472  0.6160  0.4554 -0.5527
 8611WAT    EPW35152   2.853   0.856   5.507 -0.3624 -0.4947 -0.4237
 8612WAT      O35153   4.697   4.896   1.586  0.4026  0.2830 -0.1115
 8612WAT     H135154   4.705   4.815   1.618 -1.5849 -0.0146 -0.1969
 8612WAT     H235155   4.611   4.912   1.594  0.7668  2.4281 -0.0217
 8612WAT    EPW35156   4.685   4.886   1.592  0.1792 -0.4746 -0.3560
 8613WAT      O35157   2.983   1.599   6.775  0.0572  0.6439 -0.0175
 8613WAT     H135158   2.912   1.550   6.787  0.6156 -0.2009 -0.0500
 8613WAT     H235159   2.973   1.629   6.694 -0.5090  0.9429  0.1634
 8613WAT    EPW35160   2.971   1.596   6.765  0.1386  0.3194 -0.1734
 8614WAT      O35161   1.628   2.084   0.533 -0.0890 -0.0782  0.1786
 8614WAT     H135162   1.707   2.047   0.528 -0.2656 -0.4744  0.3009
 8614WAT     H235163   1.645   2.169   0.536  0.4144 -0.2167  1.8918
 8614WAT    EPW35164   1.642   2.091   0.533 -0.1997  0.8163  0.1134
 8615WAT      O35165   1.251   5.999   2.527 -0.4025 -0.2595 -0.1595
 8615WAT     H135166   1.248   6.059   2.591 -1.1018 -0.1741 -0.2660
 8615WAT     H235167   1.337   5.989   2.513 -0.1691  2.9580 -2.2337
 8615WAT    EPW35168   1.263   6.006   2.534  0.0810 -0.0734  0.6396
 8616WAT      O35169   2.448   1.043   2.560 -0.3791  0.2323 -0.1873
 8616WAT     H135170   2.526   1.050   2.522  0.6694  1.3818  2.0204
 8616WAT     H235171   2.413   1.123   2.548 -0.4487  0.2901  0.3868
 8616WAT    EPW35172   2.454   1.056   2.552  0.4921  0.0332 -0.5333
 8617WAT      O35173   2.654   7.031   5.796 -0.1504  0.1416 -0.7990
 8617WAT     H135174   2.725   7.005   5.752  0.1010  0.6814 -0.7151
 8617WAT     H235175   2.661   7.118   5.798  0.5096  0.1040  1.3759
 8617WAT    EPW35176   2.666   7.040   5.790  0.0663 -0.1011  0.0897
 8618WAT      O35177   2.108   0.404   4.305  0.7079  0.1800 -0.4633
 8618WAT     H135178   2.168   0.377   4.362  0.8920 -0.5150 -0.9780
 8618WAT     H235179   2.152   0.409   4.229  0.2094  0.0342 -0.7648
 8618WAT    EPW35180   2.123   0.401   4.302  0.0259  0.3316 -0.4266
 8619WAT      O35181   1.158   5.491   1.428 -0.4070 -0.0717 -0.2813
 8619WAT     H135182   1.221   5.551   1.431 -1.4194  0.9822  0.5633
 8619WAT     H235183   1.195   5.420   1.462  0.4740  0.3899 -0.2678
 8619WAT    EPW35184   1.173   5.489   1.433  0.0488 -0.0622  0.0969
 8620WAT      O35185   7.069   3.800   0.508  0.4591  0.0037  0.1699
 8620WAT     H135186   7.025   3.871   0.482  0.3526 -1.0432 -2.8492
 8620WAT     H235187   7.146   3.807   0.467  0.2995 -1.7789 -0.5180
 8620WAT    EPW35188   7.074   3.811   0.498  0.0804  0.1828  0.1098
 8621WAT      O35189   3.765   1.255   4.890 -0.1022  0.3975  0.2482
 8621WAT     H135190   3.797   1.275   4.969 -0.3800  0.0587  0.4486
 8621WAT     H235191   3.829   1.279   4.835 -0.5474  2.1887  0.4348
 8621WAT    EPW35192   3.780   1.261   4.894  0.3080 -0.4562 -0.0085
 8622WAT      O35193   3.146   2.890   6.102  0.6957 -0.3500  0.0283
 8622WAT     H135194   3.229   2.901   6.125  0.5224  0.7370  0.2092
 8622WAT     H235195   3.149   2.830   6.039  1.8394  1.0411 -1.3229
 8622WAT    EPW35196   3.158   2.883   6.096 -0.2119  0.8211  0.2448
 8623WAT      O35197   4.339   6.217   0.216 -0.2680  0.3683 -0.1533
 8623WAT     H135198   4.259   6.221   0.251  0.2468  2.7914  0.9654
 8623WAT     H235199   4.330   6.159   0.151 -2.7618  0.1040  0.3187
 8623WAT    EPW35200   4.326   6.209   0.211  0.0742 -0.6174 -0.0624
 8624WAT      O35201   3.850   7.017   0.089  0.1141  0.1925  0.1853
 8624WAT     H135202   3.772   7.042   0.059  0.1996 -0.8629 -0.9904
 8624WAT     H235203   3.885   6.974   0.022  1.0038 -0.8545  1.2724
 8624WAT    EPW35204   3.843   7.015   0.074  0.1798 -0.0870 -0.0057
 8625WAT      O35205   1.670   6.881   1.361 -0.3756  0.0029  0.5343
 8625WAT     H135206   1.604   6.869   1.305  1.1442  0.2885 -1.4268
 8625WAT     H235207   1.655   6.962   1.393 -0.8332  0.1596 -0.0670
 8625WAT    EPW35208   1.658   6.891   1.358  0.1737 -0.1522  0.6602
 8626WAT      O35209   0.899   6.590   7.711  0.1123  0.2768 -0.1334
 8626WAT     H135210   0.835   6.611   7.657  0.8283  1.3355 -0.6050
 8626WAT     H235211   0.959   6.652   7.697  0.7894 -0.0786  1.0512
 8626WAT    EPW35212   0.899   6.602   7.701 -0.2614 -0.7223 -0.1873
 8627WAT      O35213   2.553   5.200   0.285 -0.2202  0.8896 -0.5493
 8627WAT     H135214   2.611   5.223   0.345 -1.1242  0.3045  0.5786
 8627WAT     H235215   2.526   5.275   0.251  0.4676  1.2064 -0.4122
 8627WAT    EPW35216   2.558   5.214   0.289 -0.1189 -0.6695  0.3648
 8628WAT      O35217   0.493   1.361   4.477  0.3434  0.1321  0.1130
 8628WAT     H135218   0.495   1.277   4.455  0.5759  0.2064 -0.1548
 8628WAT     H235219   0.478   1.359   4.563  0.9976 -0.2020  0.2232
 8628WAT    EPW35220   0.491   1.349   4.487 -0.0915 -0.1852  0.0384
 8629WAT      O35221   7.173   0.145   3.273 -0.3240 -0.4991 -0.2048
 8629WAT     H135222   7.184   0.228   3.298  1.7459 -0.4010 -1.2243
 8629WAT     H235223   7.087   0.132   3.283 -0.1888  0.4060  3.9072
 8629WAT    EPW35224   7.162   0.155   3.278  0.3518 -0.1040 -0.4249
 8630WAT      O35225   5.543   0.661   4.963  0.1869 -0.4516  0.4742
 8630WAT     H135226   5.509   0.613   5.027 -0.8427 -0.3747  0.0159
 8630WAT     H235227   5.601   0.608   4.925 -0.2661 -1.0100  0.5565
 8630WAT    EPW35228   5.546   0.646   4.967 -0.1862  0.2768 -0.0050
 8631WAT      O35229   4.607   1.612   6.564 -0.5810  0.0823  0.4365
 8631WAT     H135230   4.520   1.610   6.576 -0.5074  0.3630  1.0876
 8631WAT     H235231   4.621   1.550   6.505 -1.3333  0.6717 -0.4018
 8631WAT    EPW35232   4.596   1.603   6.557 -0.5449 -0.7519  0.4052
 8632WAT      O35233   4.120   0.342   5.475  0.6230 -0.3957  0.3052
 8632WAT     H135234   4.041   0.323   5.506  0.9547 -0.2815  1.2459
 8632WAT     H235235   4.124   0.296   5.401  0.0493 -1.1817  0.7437
 8632WAT    EPW35236   4.109   0.332   5.469  0.2661 -0.0059 -0.6673
 8633WAT      O35237   6.807   4.550   0.909 -0.3517 -0.1630  0.3530
 8633WAT     H135238   6.873   4.544   0.852 -0.2241  1.3466  0.2983
 8633WAT     H235239   6.738   4.523   0.863 -0.1306  0.3652 -0.3045
 8633WAT    EPW35240   6.806   4.545   0.893  0.7665  0.0319 -0.4532
 8634WAT      O35241   3.753   4.349   1.977 -0.1334 -0.3580 -0.3337
 8634WAT     H135242   3.724   4.392   1.907 -2.0191  1.2958  1.3599
 8634WAT     H235243   3.834   4.380   1.987 -1.1294  2.3409  0.3242
 8634WAT    EPW35244   3.761   4.360   1.968  0.0052  0.5880 -0.2614
 8635WAT      O35245   5.635   5.936   7.160 -0.1432  0.6946  0.0389
 8635WAT     H135246   5.618   5.851   7.173  2.0402  0.2033  0.0428
 8635WAT     H235247   5.679   5.960   7.232 -3.1988  2.6974  1.4606
 8635WAT    EPW35248   5.639   5.927   7.173 -0.3781 -0.4361 -0.7564
 8636WAT      O35249   2.743   2.167   5.905 -0.2341  0.0371  0.3585
 8636WAT     H135250   2.783   2.215   5.844 -1.4007  0.8974  0.2359
 8636WAT     H235251   2.663   2.155   5.873 -0.7252  0.1333  1.5032
 8636WAT    EPW35252   2.737   2.173   5.892  0.0712 -0.2650  0.0383
 8637WAT      O35253   4.526   7.375   3.691  0.2244  0.7798 -0.3695
 8637WAT     H135254   4.496   7.345   3.614  0.4502  1.3895 -0.7043
 8637WAT     H235255   4.468   7.343   3.748 -1.0448  1.8535 -0.9931
 8637WAT    EPW35256   4.513   7.366   3.688  0.0069  0.2835  0.2940
 8638WAT      O35257   2.382   7.665   1.463 -0.1290  0.8805 -0.3218
 8638WAT     H135258   2.313   7.613   1.477  0.2163  0.6581  0.5970
 8638WAT     H235259   2.365   7.736   1.511  1.5313 -0.2969  2.2013
 8638WAT    EPW35260   2.369   7.668   1.472 -0.2982 -0.5596 -0.8747
 8639WAT      O35261   1.195   7.877   7.643  0.0001  0.1760  0.3614
 8639WAT     H135262   1.235   7.862   7.719  0.4521 -2.6766 -0.3462
 8639WAT     H235263   1.261   7.896   7.589 -0.2894  1.8447  0.5330
 8639WAT    EPW35264   1.211   7.878   7.646 -0.3232  0.3807 -0.3883
 8640WAT      O35265   2.705   1.838   7.037  0.3753  0.2563  0.2148
 8640WAT     H135266   2.728   1.894   6.975 -0.2024  0.2113 -0.0450
 8640WAT     H235267   2.643   1.790   6.999 -0.1403  0.3711  0.8960
 8640WAT    EPW35268   2.699   1.839   7.023 -0.0981 -0.6257  0.4846
 8641WAT      O35269   3.476   6.546   6.509 -0.0607  0.7831  0.7423
 8641WAT     H135270   3.420   6.492   6.469  1.9877 -1.3954  0.6379
 8641WAT     H235271   3.504   6.598   6.444  1.1312 -0.8986 -0.1725
 8641WAT    EPW35272   3.472   6.546   6.494 -0.2806  0.5091 -0.6016
 8642WAT      O35273   1.911   3.572   6.358 -0.2452  0.1876 -0.5775
 8642WAT     H135274   1.850   3.514   6.382  0.9704 -0.8405  0.0979
 8642WAT     H235275   1.972   3.565   6.420  0.1910  1.8108 -0.7777
 8642WAT    EPW35276   1.911   3.562   6.370 -0.0473 -0.1975  0.5194
 8643WAT      O35277   3.336   5.162   0.870 -0.4385 -0.2444  0.1325
 8643WAT     H135278   3.369   5.084   0.851 -1.2315 -0.7367  0.7614
 8643WAT     H235279   3.390   5.192   0.932  1.0989  0.6202 -1.5110
 8643WAT    EPW35280   3.349   5.155   0.876 -0.4168  0.0867  0.2582
 8644WAT      O35281   4.102   0.433   1.616  0.2999  0.4350 -0.9568
 8644WAT     H135282   4.136   0.376   1.673  0.0763 -0.2875 -1.5261
 8644WAT     H235283   4.165   0.492   1.606  2.1864 -1.6801 -3.1874
 8644WAT    EPW35284   4.117   0.433   1.623 -0.1324  0.6273 -1.0340
 8645WAT      O35285   0.694   5.296   4.797  0.0517 -0.3475  0.1954
 8645WAT     H135286   0.678   5.219   4.760  0.8335 -0.3692 -0.1099
 8645WAT     H235287   0.780   5.307   4.788 -0.0594  0.6222  0.1140
 8645WAT    EPW35288   0.704   5.287   4.790 -0.0407  0.1537  0.1320
 8646WAT      O35289   3.986   0.443   2.410 -0.2750  0.2825  0.7921
 8646WAT     H135290   4.065   0.471   2.388  0.5127 -2.0658  0.2700
 8646WAT     H235291   3.937   0.515   2.409  1.8557  1.8509  1.3165
 8646WAT    EPW35292   3.990   0.458   2.407  0.2833 -0.6697 -0.0224
 8647WAT      O35293   6.312   0.828   3.198 -0.7708  0.0436 -0.0343
 8647WAT     H135294   6.328   0.744   3.181  0.5556  0.1007  0.7476
 8647WAT     H235295   6.283   0.827   3.280 -0.8659  0.3323 -0.0632
 8647WAT    EPW35296   6.310   0.816   3.208  0.5354 -0.4688  0.3161
 8648WAT      O35297   2.252   0.204   7.831 -0.4261 -0.1472  0.0856
 8648WAT     H135298   2.315   0.191   7.772 -0.3621  0.7266 -0.0521
 8648WAT     H235299   2.238   0.290   7.828 -0.4993 -0.0969  1.2608
 8648WAT    EPW35300   2.259   0.215   7.822 -0.0723  0.3260  0.1343
 8649WAT      O35301   6.052   7.871   2.016  0.1175  0.5044 -0.6680
 8649WAT     H135302   6.096   7.800   1.992 -0.4297  0.2452 -0.9313
 8649WAT     H235303   6.098   7.902   2.083 -0.4733 -0.9837  0.4793
 8649WAT    EPW35304   6.065   7.865   2.022  0.4165  0.4346 -0.3260
 8650WAT      O35305   5.761   7.935   7.321  0.3665  0.0123  0.2639
 8650WAT     H135306   5.684   7.958   7.356 -0.0630 -2.5062  1.1571
 8650WAT     H235307   5.747   7.941   7.235  0.1988  2.4819  0.3805
 8650WAT    EPW35308   5.747   7.939   7.313  0.1853  0.1500 -0.2236
 8651WAT      O35309   6.559   0.557   3.925 -0.0554 -0.2109  0.5517
 8651WAT     H135310   6.560   0.641   3.901  0.7587 -0.7848 -1.6616
 8651WAT     H235311   6.475   0.534   3.918  0.1371 -0.4043 -2.3191
 8651WAT    EPW35312   6.547   0.566   3.921 -0.1517 -0.4727  0.1079
 8652WAT      O35313   2.185   3.919   4.450  0.1877 -0.6618 -0.2340
 8652WAT     H135314   2.147   3.881   4.519 -0.3020 -0.1848 -0.2332
 8652WAT     H235315   2.270   3.914   4.468  0.0427  0.6039  1.0486
 8652WAT    EPW35316   2.192   3.913   4.463 -0.3332 -0.0536  0.1833
 8653WAT      O35317   7.471   1.201   4.129  0.0765 -0.3134 -0.5673
 8653WAT     H135318   7.554   1.209   4.104 -0.1960 -0.5624 -1.5862
 8653WAT     H235319   7.426   1.231   4.061 -0.6867 -0.7187 -0.2554
 8653WAT    EPW35320   7.477   1.207   4.115 -0.0674  0.0874  0.5845
 8654WAT      O35321   2.575   7.558   2.512 -0.1963 -0.0154  0.5259
 8654WAT     H135322   2.537   7.634   2.496 -0.9600 -0.3392  0.7865
 8654WAT     H235323   2.616   7.540   2.437 -1.7411 -0.3467 -0.2800
 8654WAT    EPW35324   2.576   7.566   2.499 -0.0271  0.0656 -0.0537
 8655WAT      O35325   2.636   0.820   0.728  0.6605  0.0400  0.4074
 8655WAT     H135326   2.559   0.817   0.767  0.8598  0.4994  0.8491
 8655WAT     H235327   2.628   0.765   0.661  0.4704 -1.1259  1.3600
 8655WAT    EPW35328   2.624   0.812   0.724 -0.5251 -0.2672 -0.4182
 8656WAT      O35329   3.325   0.650   5.708 -0.4709  0.0083 -0.0774
 8656WAT     H135330   3.281   0.613   5.642  1.4021 -1.3563 -0.6555
 8656WAT     H235331   3.344   0.582   5.760  0.6531  0.5738  0.2890
 8656WAT    EPW35332   3.321   0.634   5.706  0.0378 -0.5178  0.3817
 8657WAT      O35333   1.825   6.560   4.965  0.2864  0.2590 -0.0788
 8657WAT     H135334   1.906   6.592   4.974  0.3195  0.0902  0.2193
 8657WAT     H235335   1.838   6.476   4.946  0.2720  0.8078 -2.9847
 8657WAT    EPW35336   1.839   6.552   4.963  0.4091  0.4289  0.2582
 8658WAT      O35337   0.090   4.537   2.117 -0.0157 -0.1785  0.1990
 8658WAT     H135338   0.060   4.542   2.035  0.3310 -0.5334  0.0456
 8658WAT     H235339   0.073   4.616   2.150 -0.2822 -0.0770 -0.1723
 8658WAT    EPW35340   0.083   4.549   2.110  0.6640  0.1106 -0.6602
 8659WAT      O35341   5.784   4.106   7.200 -0.2064  0.8299 -0.3874
 8659WAT     H135342   5.859   4.131   7.238 -1.0869  1.6379  0.8877
 8659WAT     H235343   5.759   4.177   7.156 -0.7791  0.9505  0.1174
 8659WAT    EPW35344   5.792   4.120   7.199 -0.0380  0.1125 -0.0611
 8660WAT      O35345   5.486   1.818   6.124  0.1445  0.4249  0.1952
 8660WAT     H135346   5.408   1.857   6.113 -0.9330 -0.8837  2.4837
 8660WAT     H235347   5.510   1.797   6.043 -1.6541  1.2773 -0.6181
 8660WAT    EPW35348   5.478   1.821   6.111  1.1543  0.4747 -0.0580
 8661WAT      O35349   1.624   5.174   5.339  0.7492  0.2190 -0.3735
 8661WAT     H135350   1.564   5.116   5.314  1.1479  0.5964 -2.3417
 8661WAT     H235351   1.637   5.222   5.268 -0.1440  3.3100  1.3438
 8661WAT    EPW35352   1.617   5.172   5.325 -0.9640  0.0802 -0.3230
 8662WAT      O35353   5.274   3.314   6.793  0.5893 -0.1954 -0.2164
 8662WAT     H135354   5.198   3.309   6.752  0.6461  0.0521 -0.3559
 8662WAT     H235355   5.332   3.319   6.728  0.6601  0.4745 -0.1115
 8662WAT    EPW35356   5.272   3.314   6.778  0.2436 -0.7379  0.5949
 8663WAT      O35357   4.198   1.872   4.852  0.2213 -0.0822 -0.3326
 8663WAT     H135358   4.206   1.923   4.782  0.2049  1.9812  1.0994
 8663WAT     H235359   4.280   1.863   4.881  0.2148 -0.8435 -0.5103
 8663WAT    EPW35360   4.211   1.878   4.846 -0.0046 -0.1454 -0.6703
 8664WAT      O35361   5.685   3.555   0.836  0.4741 -0.2988 -0.4313
 8664WAT     H135362   5.679   3.642   0.835  3.4422  0.0203  0.1804
 8664WAT     H235363   5.708   3.535   0.754  0.6437 -0.4210 -0.3543
 8664WAT    EPW35364   5.688   3.565   0.824 -0.5360  0.5392  0.0856
 8665WAT      O35365   1.897   5.375   7.738 -0.3504  0.1151 -0.4098
 8665WAT     H135366   1.972   5.376   7.783 -0.4735 -1.3154 -0.1320
 8665WAT     H235367   1.840   5.412   7.793 -0.0344  0.4501 -0.2982
 8665WAT    EPW35368   1.899   5.381   7.753 -0.1930  0.1372 -0.4021
 8666WAT      O35369   4.012   7.985   5.583 -0.6735 -0.2205  0.2617
 8666WAT     H135370   3.984   7.969   5.502  0.5439  0.0042 -0.2282
 8666WAT     H235371   3.956   7.941   5.633 -2.0147  0.4020 -0.6334
 8666WAT    EPW35372   3.999   7.976   5.578  0.0912 -0.4095  0.2082
 8667WAT      O35373   1.564   2.650   2.689  0.3749  0.3705 -0.5876
 8667WAT     H135374   1.544   2.650   2.604 -1.8329  1.7470 -0.1535
 8667WAT     H235375   1.594   2.731   2.704  2.8311 -0.4967 -0.4115
 8667WAT    EPW35376   1.566   2.662   2.679  0.3745 -0.4737 -0.2413
 8668WAT      O35377   3.002   4.309   0.857  0.0511 -0.4835 -0.7447
 8668WAT     H135378   3.081   4.314   0.819  0.2203 -0.9542 -0.4613
 8668WAT     H235379   3.015   4.253   0.923 -0.1278  0.6541  0.2888
 8668WAT    EPW35380   3.016   4.301   0.861  0.3785 -0.4884 -0.6690
 8669WAT      O35381   1.360   7.262   0.223  0.0736 -0.2991 -0.3038
 8669WAT     H135382   1.314   7.300   0.160 -0.2755 -0.2065  0.0036
 8669WAT     H235383   1.361   7.322   0.287  0.1575 -0.5125 -0.1006
 8669WAT    EPW35384   1.353   7.277   0.223 -0.1463 -0.9038 -0.3227
 8670WAT      O35385   5.339   6.502   6.454  0.0859 -0.7370 -0.5137
 8670WAT     H135386   5.344   6.584   6.483  0.4200 -0.4867 -1.2442
 8670WAT     H235387   5.419   6.488   6.420 -0.0349 -1.2890 -0.5652
 8670WAT    EPW35388   5.352   6.512   6.453  0.7945  0.1729  0.4932
 8671WAT      O35389   1.943   5.314   5.479 -0.2887 -0.2846 -0.4389
 8671WAT     H135390   2.012   5.344   5.523 -1.1869 -1.2664  1.8627
 8671WAT     H235391   1.975   5.251   5.429  0.4851 -1.0226  0.9196
 8671WAT    EPW35392   1.958   5.309   5.478  0.3726 -0.0613  0.8932
 8672WAT      O35393   1.518   1.734   6.614  0.2421 -0.3399 -0.1768
 8672WAT     H135394   1.509   1.720   6.700 -0.1120 -1.7660 -0.4251
 8672WAT     H235395   1.436   1.736   6.585  0.3176  1.1185 -0.3719
 8672WAT    EPW35396   1.504   1.732   6.623  0.7069 -0.0141  0.3189
 8673WAT      O35397   4.436   6.111   6.050 -0.6673  0.4204  0.0417
 8673WAT     H135398   4.415   6.194   6.038  0.2333  0.7873  0.8011
 8673WAT     H235399   4.466   6.109   6.132 -0.8338 -0.6883  0.0993
 8673WAT    EPW35400   4.438   6.123   6.061 -0.6544 -0.0903 -0.2886
 8674WAT      O35401   2.642   6.759   4.945  0.4939 -0.7995  0.0487
 8674WAT     H135402   2.703   6.752   4.883  1.2019 -1.7940  0.8237
 8674WAT     H235403   2.683   6.799   5.011  0.3053 -1.4033  0.5484
 8674WAT    EPW35404   2.657   6.764   4.946 -0.6672 -0.2266  0.0054
 8675WAT      O35405   4.044   5.656   2.965 -0.0318 -0.6446  0.4730
 8675WAT     H135406   3.977   5.658   2.909 -1.2336  1.3509  1.8258
 8675WAT     H235407   4.109   5.694   2.921 -1.2775  1.9554  0.6676
 8675WAT    EPW35408   4.043   5.662   2.950 -0.7936 -0.1137 -0.1350
 8676WAT      O35409   2.133   6.652   4.573 -0.0726 -0.3002  0.5044
 8676WAT     H135410   2.142   6.680   4.490  1.4576 -0.4786  0.5802
 8676WAT     H235411   2.053   6.617   4.574  0.0929 -0.8067 -1.0630
 8676WAT    EPW35412   2.122   6.651   4.561 -0.0331  0.6149  0.1508
 8677WAT      O35413   1.402   1.274   0.524  0.1650  0.2496  0.5377
 8677WAT     H135414   1.397   1.326   0.454  0.5143 -1.3194 -0.7246
 8677WAT     H235415   1.350   1.207   0.503  1.3884 -0.9415  1.1531
 8677WAT    EPW35416   1.393   1.272   0.511  0.5631 -1.0411  0.3540
 8678WAT      O35417   3.591   2.698   1.674  1.3650  0.1340 -0.1013
 8678WAT     H135418   3.607   2.784   1.674 -0.9599  0.6348 -0.2566
 8678WAT     H235419   3.564   2.683   1.756  0.2545 -0.1091 -0.5042
 8678WAT    EPW35420   3.590   2.709   1.686  0.2497  0.1839  0.1073
 8679WAT      O35421   6.633   4.747   4.893 -0.2174  0.1174 -0.1896
 8679WAT     H135422   6.648   4.818   4.941  0.2115 -0.6311  0.8066
 8679WAT     H235423   6.672   4.765   4.817 -0.0585  0.9140  0.0718
 8679WAT    EPW35424   6.641   4.760   4.889  0.0512 -0.7196  0.3695
 8680WAT      O35425   5.258   0.237   4.058  0.1129 -0.7816 -0.2430
 8680WAT     H135426   5.330   0.275   4.092  0.4851 -0.7613 -1.0356
 8680WAT     H235427   5.275   0.235   3.972 -1.6339  0.9720 -0.7042
 8680WAT    EPW35428   5.271   0.242   4.050 -0.1243  0.2820  0.8233
 8681WAT      O35429   2.073   7.814   4.392  0.3460 -0.4883  0.0120
 8681WAT     H135430   2.034   7.739   4.370 -2.8034  0.8688  0.3589
 8681WAT     H235431   2.032   7.836   4.467 -0.5892  2.6240 -1.2483
 8681WAT    EPW35432   2.061   7.806   4.400 -0.3043 -0.2238 -0.1845
 8682WAT      O35433   4.559   6.716   6.407 -0.0758  0.3169  0.2082
 8682WAT     H135434   4.574   6.759   6.332  1.3877 -2.3251 -1.1781
 8682WAT     H235435   4.629   6.665   6.415 -0.9142 -0.5963  2.6276
 8682WAT    EPW35436   4.572   6.715   6.397  0.0570 -0.4148 -0.3676
 8683WAT      O35437   1.012   7.494   3.225 -0.0185  0.1069 -0.1991
 8683WAT     H135438   1.099   7.498   3.227  0.0789 -0.1117 -2.1576
 8683WAT     H235439   0.986   7.567   3.265  1.0925  0.6168 -0.3836
 8683WAT    EPW35440   1.021   7.505   3.231  0.4643  0.0908  0.0132
 8684WAT      O35441   3.921   3.628   2.438  0.3901 -0.0345  0.5302
 8684WAT     H135442   3.986   3.638   2.496  2.0551 -0.7000 -1.1227
 8684WAT     H235443   3.921   3.542   2.423  1.8515  0.3491 -2.3546
 8684WAT    EPW35444   3.931   3.617   2.444  0.1346  0.8306  0.4069
 8685WAT      O35445   3.291   7.767   2.366  0.3377 -0.2186 -0.0026
 8685WAT     H135446   3.269   7.777   2.450  1.2907 -1.4807  0.4446
 8685WAT     H235447   3.376   7.787   2.365 -0.0126  1.3424 -1.0039
 8685WAT    EPW35448   3.301   7.771   2.378 -0.2637 -0.7427 -0.1795
 8686WAT      O35449   5.427   3.251   3.517  0.2519  0.4467  0.1062
 8686WAT     H135450   5.431   3.297   3.444  0.1715 -1.0208 -0.8684
 8686WAT     H235451   5.488   3.189   3.507  0.4295  0.3768  1.3949
 8686WAT    EPW35452   5.436   3.248   3.505 -0.0295  0.1264 -0.7176
 8687WAT      O35453   7.810   7.833   0.851  0.3038  0.6982  0.5969
 8687WAT     H135454   7.797   7.791   0.775  0.4662  3.5563 -1.1515
 8687WAT     H235455   7.877   7.789   0.887 -0.2689 -1.2096 -0.4829
 8687WAT    EPW35456   7.818   7.820   0.845  0.7773  0.3274 -0.4136
 8688WAT      O35457   5.301   8.007   7.966 -0.0935 -0.1390  0.1625
 8688WAT     H135458   5.368   7.959   7.937  0.3236 -1.9973  3.5757
 8688WAT     H235459   5.335   8.052   8.032 -1.9711 -0.5963  1.5555
 8688WAT    EPW35460   5.316   8.007   7.971  0.3384 -0.7000 -0.6411
 8689WAT      O35461   6.325   7.178   3.366 -0.3082  0.1237 -0.0953
 8689WAT     H135462   6.382   7.240   3.387  1.5852 -0.9681 -1.6736
 8689WAT     H235463   6.252   7.203   3.406  0.4954  3.0637 -0.2415
 8689WAT    EPW35464   6.323   7.191   3.375  0.1665 -0.5919 -0.7176
 8690WAT      O35465   5.663   0.023   1.671  0.0196 -0.3979 -0.5172
 8690WAT     H135466   5.713   0.061   1.733  0.9124 -0.3662 -1.2333
 8690WAT     H235467   5.583   0.054   1.688  0.4579  0.5666 -0.1147
 8690WAT    EPW35468   5.659   0.033   1.683 -0.1820  0.9219 -0.0821
 8691WAT      O35469   2.643   0.930   4.098  0.4958  0.2251 -0.4282
 8691WAT     H135470   2.711   0.971   4.134 -0.7989  2.1395  0.0038
 8691WAT     H235471   2.616   0.876   4.160  0.8296  0.4290 -0.1030
 8691WAT    EPW35472   2.649   0.928   4.112  0.2211  0.8782  0.3444
 8692WAT      O35473   2.855   2.019   6.291  0.0864 -0.3844 -1.3073
 8692WAT     H135474   2.897   2.094   6.277  2.5472 -1.4918 -0.5104
 8692WAT     H235475   2.857   1.979   6.214  1.2840 -0.7383 -1.1213
 8692WAT    EPW35476   2.862   2.024   6.278 -0.3830 -0.1411 -1.0993
 8693WAT      O35477   2.314   0.030   7.342 -0.1824 -0.2636  0.0940
 8693WAT     H135478   2.380   0.075   7.308 -0.3531  0.4363  0.6732
 8693WAT     H235479   2.256   0.027   7.277 -0.3928  0.8220  0.2224
 8693WAT    EPW35480   2.315   0.036   7.327 -0.3873 -0.1348 -0.1077
 8694WAT      O35481   1.706   6.810   3.094  0.5216  0.1365  0.0966
 8694WAT     H135482   1.727   6.752   3.156  0.4264  1.0663  1.0241
 8694WAT     H235483   1.773   6.805   3.038  0.9534 -0.2258  0.6363
 8694WAT    EPW35484   1.719   6.801   3.095 -0.2700  0.2342 -0.3103
 8695WAT      O35485   1.886   7.671   5.671  0.0970 -0.0257 -0.3926
 8695WAT     H135486   1.956   7.622   5.684  0.5550  0.8314  0.4530
 8695WAT     H235487   1.839   7.624   5.614  1.6465 -0.3162 -1.5040
 8695WAT    EPW35488   1.889   7.657   5.664  0.1750 -0.6535 -0.1442
 8696WAT      O35489   3.922   1.272   3.759  0.1254 -0.3299 -0.4342
 8696WAT     H135490   3.904   1.317   3.832 -1.1346 -0.8942 -0.3668
 8696WAT     H235491   3.906   1.329   3.695 -2.4107 -0.8839 -0.3936
 8696WAT    EPW35492   3.917   1.287   3.760 -0.3891  0.0964  0.1640
 8697WAT      O35493   6.429   6.819   4.699 -0.0009 -0.0910  0.2641
 8697WAT     H135494   6.348   6.820   4.730  0.2684 -0.4995  1.0016
 8697WAT     H235495   6.475   6.863   4.758  0.3190  0.1375 -0.1470
 8697WAT    EPW35496   6.424   6.826   4.712 -0.5384 -0.3070 -0.1325
 8698WAT      O35497   2.505   6.599   0.479  0.3577  0.3158 -0.4738
 8698WAT     H135498   2.488   6.537   0.420  0.2747  0.1833 -0.3128
 8698WAT     H235499   2.489   6.673   0.437  2.0908  0.3211 -1.2470
 8698WAT    EPW35500   2.500   6.601   0.464  0.4092  0.6422 -0.5028
 8699WAT      O35501   4.200   1.094   4.694 -0.0376 -0.2123 -0.0324
 8699WAT     H135502   4.201   1.075   4.609  2.1001 -0.7519  0.0504
 8699WAT     H235503   4.140   1.156   4.700  0.6219  0.7482 -2.1765
 8699WAT    EPW35504   4.191   1.100   4.682 -0.0035  0.2975  0.1758
 8700WAT      O35505   4.885   2.162   7.444 -0.5072 -0.2269 -0.3084
 8700WAT     H135506   4.931   2.233   7.420  1.3061 -1.3130 -0.2082
 8700WAT     H235507   4.821   2.159   7.385  1.5542 -0.5829 -2.7203
 8700WAT    EPW35508   4.883   2.172   7.431 -0.9183 -0.0234  0.1111
 8701WAT      O35509   4.394   1.064   4.927  0.2237 -0.7549 -0.4449
 8701WAT     H135510   4.342   1.063   4.857  0.3312 -0.7789 -0.5242
 8701WAT     H235511   4.449   0.998   4.912  0.4632 -0.5427 -0.4994
 8701WAT    EPW35512   4.395   1.054   4.915 -0.4958  0.1110 -0.6714
 8702WAT      O35513   3.535   3.767   1.258 -0.3619 -0.2428 -0.2457
 8702WAT     H135514   3.512   3.825   1.319  1.5282 -0.2582  0.5353
 8702WAT     H235515   3.549   3.694   1.304 -1.1255 -0.9090 -1.0181
 8702WAT    EPW35516   3.533   3.765   1.274 -0.2771  0.6630 -1.1932
 8703WAT      O35517   2.047   0.352   2.776 -0.2071 -0.3776  0.4207
 8703WAT     H135518   2.017   0.315   2.849 -0.8645  1.2126  0.9808
 8703WAT     H235519   2.030   0.436   2.786 -0.8982 -0.1778 -1.8592
 8703WAT    EPW35520   2.040   0.359   2.788  0.0596  0.2611 -0.0663
 8704WAT      O35521   3.104   1.859   7.196 -0.1383  0.4101 -0.0929
 8704WAT     H135522   3.134   1.812   7.128 -0.2174  1.4633 -0.8803
 8704WAT     H235523   3.114   1.942   7.170  1.4279  0.9061  1.8805
 8704WAT    EPW35524   3.110   1.864   7.182  0.0926 -0.1025 -0.0377
 8705WAT      O35525   5.092   0.502   6.441  0.0969  0.0818 -0.6055
 8705WAT     H135526   5.068   0.475   6.520  0.6801  2.9919  0.6981
 8705WAT     H235527   5.019   0.538   6.408 -0.2250 -1.3693 -1.6050
 8705WAT    EPW35528   5.078   0.504   6.448  0.0993  0.1000  0.2932
 8706WAT      O35529   2.699   7.903   3.554  0.0910 -0.0216 -0.1769
 8706WAT     H135530   2.686   7.817   3.564 -0.0661 -0.1576 -1.4453
 8706WAT     H235531   2.691   7.934   3.635 -2.0007 -0.9357  0.0361
 8706WAT    EPW35532   2.696   7.895   3.568 -0.4535  0.2353 -0.6420
 8707WAT      O35533   2.225   0.505   1.859  0.3309 -0.1350 -0.1463
 8707WAT     H135534   2.210   0.512   1.773  0.7320 -0.2087 -0.2238
 8707WAT     H235535   2.146   0.493   1.892  0.2417 -0.8091 -0.5755
 8707WAT    EPW35536   2.211   0.505   1.851  0.4088 -0.4467  0.2363
 8708WAT      O35537   3.569   0.111   6.273 -0.6257 -0.5725 -0.6155
 8708WAT     H135538   3.503   0.164   6.294 -0.0314  0.6262 -1.6428
 8708WAT     H235539   3.530   0.035   6.258 -1.5841 -0.2692  0.2279
 8708WAT    EPW35540   3.554   0.108   6.274  0.0831 -0.2848  0.0325
 8709WAT      O35541   6.416   4.912   3.577  0.3797  0.4065 -0.8107
 8709WAT     H135542   6.356   4.968   3.605 -0.9110 -2.0628  1.9309
 8709WAT     H235543   6.483   4.925   3.631  0.3091 -0.2240 -0.5615
 8709WAT    EPW35544   6.417   4.922   3.589  0.4522 -0.1942 -0.2880
 8710WAT      O35545   3.985   2.432   5.607 -0.1682 -0.4995 -0.5169
 8710WAT     H135546   3.997   2.496   5.548  0.0084 -2.2107 -2.4519
 8710WAT     H235547   3.986   2.359   5.559  3.7331 -2.4171  1.9550
 8710WAT    EPW35548   3.987   2.431   5.591  0.0886 -0.8346 -0.3727
 8711WAT      O35549   6.455   1.258   1.414 -0.8035 -0.0251 -0.2322
 8711WAT     H135550   6.520   1.229   1.464  1.0879  1.4787 -1.6590
 8711WAT     H235551   6.386   1.260   1.467  0.2164 -1.9824  1.2584
 8711WAT    EPW35552   6.454   1.254   1.429  0.2154 -0.1908  0.2832
 8712WAT      O35553   4.793   0.086   2.230  0.5773 -0.6333  0.0901
 8712WAT     H135554   4.758   0.006   2.241 -1.1601 -0.0709 -0.8581
 8712WAT     H235555   4.853   0.073   2.168  0.7844 -1.3175  0.4195
 8712WAT    EPW35556   4.797   0.072   2.223  0.2998  0.1837 -0.3351
 8713WAT      O35557   2.261   7.162   2.746  0.5774 -0.4633 -0.8903
 8713WAT     H135558   2.258   7.163   2.833 -1.2508  3.3325 -0.7911
 8713WAT     H235559   2.346   7.167   2.728  0.9166  1.2146  0.8239
 8713WAT    EPW35560   2.273   7.163   2.756  0.5764  0.0773  0.0419
 8714WAT      O35561   6.222   7.623   4.134  0.1126 -0.7042  0.3400
 8714WAT     H135562   6.258   7.667   4.199 -0.4777 -0.7673  0.7176
 8714WAT     H235563   6.145   7.598   4.166  0.2235 -1.5718 -0.0376
 8714WAT    EPW35564   6.216   7.625   4.148 -0.2612  0.4318  0.5333
 8715WAT      O35565   5.079   7.534   5.701  0.2992 -0.3335  0.3928
 8715WAT     H135566   5.101   7.616   5.684  1.2382 -0.4764  0.8607
 8715WAT     H235567   5.142   7.487   5.662  0.7070 -0.7644  1.5309
 8715WAT    EPW35568   5.092   7.539   5.693 -0.1922  0.0488 -0.1586
 8716WAT      O35569   5.826   7.830   2.164  0.6316 -0.5242  0.1340
 8716WAT     H135570   5.832   7.887   2.230  1.3421 -0.2748 -0.1415
 8716WAT     H235571   5.899   7.843   2.118  0.7395 -1.5769 -0.0074
 8716WAT    EPW35572   5.838   7.841   2.167  0.2137  0.4918  0.6658
 8717WAT      O35573   6.286   7.219   4.284  0.1490  0.1310 -0.1724
 8717WAT     H135574   6.277   7.139   4.316  1.7833  0.3762  0.9710
 8717WAT     H235575   6.268   7.209   4.199 -0.2624 -1.3088  0.0599
 8717WAT    EPW35576   6.282   7.206   4.276  0.9525 -0.9273  0.1358
 8718WAT      O35577   4.457   5.693   4.082 -0.1811 -0.5297 -0.3031
 8718WAT     H135578   4.415   5.650   4.018  0.6989 -0.9688 -0.5941
 8718WAT     H235579   4.455   5.776   4.055 -1.0764 -0.5030 -0.1902
 8718WAT    EPW35580   4.450   5.699   4.069 -0.2219 -0.7867  0.0328
 8719WAT      O35581   2.643   7.201   3.484  0.0294  0.1924  0.4564
 8719WAT     H135582   2.650   7.115   3.471 -0.1148 -0.2107  2.6926
 8719WAT     H235583   2.562   7.219   3.457  0.4223 -0.1329 -1.0330
 8719WAT    EPW35584   2.632   7.191   3.478 -0.6045  0.2815  0.1604
 8720WAT      O35585   1.920   5.580   7.572  0.1918 -0.2519  0.4563
 8720WAT     H135586   1.911   5.646   7.629  2.5361 -0.1421  0.8018
 8720WAT     H235587   1.905   5.509   7.621 -0.5672 -0.0651  0.5092
 8720WAT    EPW35588   1.916   5.579   7.588 -0.5575 -0.2585 -0.0624
 8721WAT      O35589   2.354   7.816   3.356 -0.3280  0.1031 -0.0133
 8721WAT     H135590   2.295   7.839   3.296 -0.1095  1.8251  0.3978
 8721WAT     H235591   2.365   7.730   3.341 -0.9941  0.2842 -1.7899
 8721WAT    EPW35592   2.347   7.807   3.345 -0.5770  0.2245  0.0898
 8722WAT      O35593   6.934   0.075   0.683 -1.0594 -0.1050  0.3796
 8722WAT     H135594   6.946   0.160   0.670 -0.5685 -0.2877 -0.4228
 8722WAT     H235595   7.001   0.053   0.735  0.0242 -0.3873 -1.0765
 8722WAT    EPW35596   6.945   0.084   0.689  0.3110 -0.6229 -0.0113
 8723WAT      O35597   1.818   0.925   2.353 -0.2548  0.3732 -0.3001
 8723WAT     H135598   1.784   1.004   2.334 -1.0306  0.2460  0.4637
 8723WAT     H235599   1.761   0.869   2.319  0.3986  0.1332 -1.0135
 8723WAT    EPW35600   1.805   0.929   2.345  0.1738  0.4059 -0.0327
 8724WAT      O35601   3.504   7.165   6.928 -0.1225 -0.2474  0.1967
 8724WAT     H135602   3.479   7.115   6.995 -0.3693 -2.1712 -1.2273
 8724WAT     H235603   3.431   7.178   6.884  0.3238 -0.5675 -0.6582
 8724WAT    EPW35604   3.490   7.159   6.932  0.2499  0.0540  0.1682
 8725WAT      O35605   0.586   7.480   4.504 -0.1125 -0.5559 -0.1296
 8725WAT     H135606   0.607   7.501   4.422 -0.3224 -0.3490 -0.1306
 8725WAT     H235607   0.561   7.555   4.539  0.3830 -0.5679  0.2515
 8725WAT    EPW35608   0.586   7.494   4.497  0.9227  0.7399  0.5633
 8726WAT      O35609   1.995   1.112   7.722 -0.0635 -0.1481 -0.6232
 8726WAT     H135610   2.064   1.134   7.673 -0.0759  1.6696  0.1010
 8726WAT     H235611   2.017   1.139   7.802 -0.7380 -1.5242  0.0552
 8726WAT    EPW35612   2.008   1.120   7.727 -0.1740  0.0802  0.8468
 8727WAT      O35613   4.248   3.252   5.931 -0.1103 -0.3375 -0.6649
 8727WAT     H135614   4.259   3.321   5.984  1.2567 -0.3025 -0.9533
 8727WAT     H235615   4.200   3.283   5.865 -2.3476 -0.5180  0.7665
 8727WAT    EPW35616   4.242   3.266   5.929  0.3272 -0.1251 -0.1722
 8728WAT      O35617   2.723   2.947   0.113 -0.1731 -0.2789 -0.5389
 8728WAT     H135618   2.718   2.890   0.046 -0.5421  0.5205 -1.2107
 8728WAT     H235619   2.809   2.961   0.121 -0.1415 -0.0744 -1.1279
 8728WAT    EPW35620   2.735   2.940   0.104 -0.1872  0.3909  0.3038
 8729WAT      O35621   2.799   7.913   7.919 -0.2590  0.0719 -0.6843
 8729WAT     H135622   2.713   7.902   7.921 -0.5165  0.5474 -3.7971
 8729WAT     H235623   2.830   7.845   7.964 -2.2264 -0.2437  0.2690
 8729WAT    EPW35624   2.791   7.901   7.926  0.4146 -0.0369  0.1802
 8730WAT      O35625   6.967   5.522   2.951 -0.2887  0.1279 -0.1513
 8730WAT     H135626   6.993   5.492   2.873 -1.4692  0.2851 -0.6351
 8730WAT     H235627   7.027   5.492   3.006  0.3810 -0.2787 -1.0773
 8730WAT    EPW35628   6.979   5.513   2.947 -0.4196  0.4504 -0.3340
 8731WAT      O35629   2.014   7.665   3.755 -0.3516 -0.0584  0.3995
 8731WAT     H135630   2.046   7.584   3.754  0.5908  0.2909  0.9333
 8731WAT     H235631   2.076   7.711   3.796  0.0356  1.3050 -1.5521
 8731WAT    EPW35632   2.028   7.660   3.761 -0.3559 -0.7909  0.3642
 8732WAT      O35633   6.304   6.740   0.133 -0.0463 -0.0049  0.2089
 8732WAT     H135634   6.314   6.759   0.217 -0.1523 -0.1073  0.2449
 8732WAT     H235635   6.242   6.796   0.106 -0.8512 -0.7347  0.4766
 8732WAT    EPW35636   6.296   6.751   0.141 -0.5050  0.1198 -0.5374
 8733WAT      O35637   2.473   1.440   3.518 -0.2383  0.1889 -0.1525
 8733WAT     H135638   2.508   1.518   3.534 -2.2619  1.3045 -0.6986
 8733WAT     H235639   2.429   1.422   3.591  0.5537 -0.6679  0.1269
 8733WAT    EPW35640   2.472   1.449   3.531 -0.2734 -0.3531 -0.6061
 8734WAT      O35641   1.087   0.626   5.105  0.2799  0.0963  0.1178
 8734WAT     H135642   1.142   0.642   5.170 -0.4288  0.6629  0.6012
 8734WAT     H235643   1.083   0.702   5.062 -1.8098  0.8147  1.4168
 8734WAT    EPW35644   1.094   0.640   5.108  0.3090  0.0068 -0.1976
 8735WAT      O35645   0.938   6.802   0.885 -0.3027  0.7061  0.2049
 8735WAT     H135646   0.865   6.849   0.884 -0.4584  0.4673 -0.8626
 8735WAT     H235647   0.996   6.856   0.921 -1.0158  0.8553  1.1715
 8735WAT    EPW35648   0.936   6.817   0.890  0.2866  0.1718 -0.0002
 8736WAT      O35649   3.264   7.180   6.809  0.0466  0.0691 -0.4561
 8736WAT     H135650   3.220   7.255   6.819  0.3632  0.3580 -1.1476
 8736WAT     H235651   3.220   7.124   6.858 -0.4395  0.6174 -0.2514
 8736WAT    EPW35652   3.251   7.183   6.817  0.6196 -0.5179 -0.3686
 8737WAT      O35653   3.644   6.465   4.107  0.3876 -0.0447  0.1775
 8737WAT     H135654   3.693   6.395   4.088  1.2714  0.6363 -0.1648
 8737WAT     H235655   3.563   6.439   4.089  0.6651 -1.0677  0.3321
 8737WAT    EPW35656   3.640   6.450   4.101  0.0828 -0.1579  0.3875
 8738WAT      O35657   4.214   1.212   0.899  0.1438  0.5657  0.2703
 8738WAT     H135658   4.185   1.146   0.948  0.5495 -0.4751 -0.8644
 8738WAT     H235659   4.191   1.191   0.818 -0.5530  2.2837 -0.0245
 8738WAT    EPW35660   4.207   1.199   0.894  0.0745 -0.4445  0.7614
 8739WAT      O35661   3.282   4.294   7.014  0.0567 -0.5503  0.5321
 8739WAT     H135662   3.201   4.296   6.981  0.0092 -0.6783  0.6403
 8739WAT     H235663   3.325   4.351   6.964  0.1128 -1.1205 -0.0875
 8739WAT    EPW35664   3.276   4.303   7.002 -0.1553  0.1119  0.5021
 8740WAT      O35665   1.993   5.170   0.442 -0.4024 -0.3887 -0.0071
 8740WAT     H135666   1.926   5.119   0.465 -1.7446  1.6633  0.9068
 8740WAT     H235667   2.059   5.139   0.490 -1.4614 -0.6162  1.4002
 8740WAT    EPW35668   1.993   5.158   0.453  0.2798  0.1569  0.0910
 8741WAT      O35669   2.564   0.198   0.214  0.0041  0.2823 -0.1281
 8741WAT     H135670   2.523   0.133   0.173 -0.9403 -0.2769  1.6092
 8741WAT     H235671   2.593   0.249   0.148 -0.8768 -0.8840 -1.4726
 8741WAT    EPW35672   2.562   0.196   0.198  0.7452 -0.3076 -0.6768
 8742WAT      O35673   1.877   3.268   7.351 -0.2929  0.0409 -0.1660
 8742WAT     H135674   1.812   3.215   7.324 -0.6332  0.5397 -0.3410
 8742WAT     H235675   1.864   3.341   7.306  0.4355  0.1312 -0.2435
 8742WAT    EPW35676   1.865   3.271   7.341  0.2366 -0.1611  0.0101
 8743WAT      O35677   4.703   1.443   6.326 -0.4052 -0.9552 -0.1412
 8743WAT     H135678   4.679   1.360   6.342  0.6669 -1.8220 -2.4503
 8743WAT     H235679   4.684   1.452   6.241 -1.7123  1.6602  0.3437
 8743WAT    EPW35680   4.696   1.432   6.316 -0.1702  0.0993 -0.0354
 8744WAT      O35681   5.822   1.147   6.849  0.1781 -0.2774 -0.2235
 8744WAT     H135682   5.833   1.233   6.856  1.7155 -0.4977  0.4147
 8744WAT     H235683   5.741   1.134   6.880  0.9937  0.6224  2.5902
 8744WAT    EPW35684   5.812   1.157   6.855 -0.0090 -0.9316 -0.1052
 8745WAT      O35685   4.478   6.715   5.151 -0.5733 -0.0319 -0.0931
 8745WAT     H135686   4.394   6.707   5.172 -0.0636 -1.7563  1.5672
 8745WAT     H235687   4.484   6.674   5.074 -1.2913  0.3188 -0.3382
 8745WAT    EPW35688   4.467   6.708   5.143 -0.2183 -0.0888  0.2926
 8746WAT      O35689   7.215   0.702   1.375  0.4769 -0.4238  0.2913
 8746WAT     H135690   7.146   0.652   1.393  0.6438 -0.5396  0.6263
 8746WAT     H235691   7.191   0.781   1.404 -0.0144 -0.1727 -0.7677
 8746WAT    EPW35692   7.201   0.706   1.382  0.3709 -0.3270 -0.2517
 8747WAT      O35693   4.172   7.484   6.493 -0.2488  0.2382 -0.2492
 8747WAT     H135694   4.156   7.565   6.521  1.0849  0.9014 -1.2923
 8747WAT     H235695   4.187   7.494   6.408  1.2013 -0.9086 -0.1718
 8747WAT    EPW35696   4.172   7.497   6.485 -0.7536  0.2944  0.6959
 8748WAT      O35697   4.883   3.676   7.303  0.4507  0.0434  0.0023
 8748WAT     H135698   4.938   3.735   7.271 -0.7140  0.9822 -0.3023
 8748WAT     H235699   4.815   3.723   7.329 -0.4677 -1.1536 -0.1697
 8748WAT    EPW35700   4.881   3.691   7.302 -0.3041 -0.0287  0.6227
 8749WAT      O35701   1.065   6.985   0.278  0.0796 -0.1720  0.0071
 8749WAT     H135702   1.037   6.908   0.309 -2.2571  0.8967  0.7925
 8749WAT     H235703   1.036   7.043   0.336 -0.8564  1.5565 -2.0346
 8749WAT    EPW35704   1.057   6.982   0.291 -0.6019 -0.5303  0.1623
 8750WAT      O35705   4.326   3.274   7.432  0.2033 -0.5865 -0.1932
 8750WAT     H135706   4.303   3.253   7.350 -0.9849  1.6063 -0.4815
 8750WAT     H235707   4.362   3.353   7.424 -1.0400  0.2169  1.5063
 8750WAT    EPW35708   4.328   3.282   7.418 -0.3738 -0.0699  0.7446
 8751WAT      O35709   1.905   7.011   4.990 -0.6974 -0.4313  0.0006
 8751WAT     H135710   1.911   6.977   5.070 -0.5014 -1.8244 -0.5780
 8751WAT     H235711   1.987   7.009   4.960 -0.5796  1.0906  0.1331
 8751WAT    EPW35712   1.918   7.006   4.997  0.1400  0.1375 -0.0690
 8752WAT      O35713   7.635   0.395   4.347  0.4926 -0.6586 -0.3004
 8752WAT     H135714   7.697   0.455   4.360  0.3000 -0.7378  1.1380
 8752WAT     H235715   7.592   0.424   4.277  1.4176  0.0153 -0.5963
 8752WAT    EPW35716   7.638   0.408   4.338 -0.5525 -0.1453  0.6832
 8753WAT      O35717   1.567   7.954   5.562 -0.3214  0.1048  0.1878
 8753WAT     H135718   1.542   7.937   5.644  0.1730  0.7766  0.4927
 8753WAT     H235719   1.639   8.001   5.573  2.0216 -2.9742 -0.6466
 8753WAT    EPW35720   1.574   7.958   5.576 -0.5579 -0.0447  0.0946
 8754WAT      O35721   2.733   7.579   1.896  0.5837  0.3100  0.0047
 8754WAT     H135722   2.763   7.515   1.946 -0.9279 -0.5224 -0.0807
 8754WAT     H235723   2.649   7.558   1.884 -0.1880  2.7054  0.6113
 8754WAT    EPW35724   2.725   7.566   1.901 -0.1324 -0.0448  0.2267
 8755WAT      O35725   6.031   5.534   2.702  0.0288  0.0044  0.3844
 8755WAT     H135726   6.020   5.448   2.713 -0.0144 -0.4507 -2.4245
 8755WAT     H235727   5.954   5.568   2.724 -1.0093 -1.0700 -1.3538
 8755WAT    EPW35728   6.018   5.526   2.706 -0.1404 -0.3850  0.1035
 8756WAT      O35729   4.813   0.840   5.262 -0.4628 -0.4727 -0.6570
 8756WAT     H135730   4.836   0.879   5.337 -0.6370  0.7241 -1.1958
 8756WAT     H235731   4.744   0.887   5.235 -0.0817 -0.5530 -1.8294
 8756WAT    EPW35732   4.806   0.853   5.269  0.3117 -0.4163 -0.4708
 8757WAT      O35733   2.123   0.566   1.588 -0.0559  0.0419 -0.0367
 8757WAT     H135734   2.127   0.492   1.541  1.5733  0.1773 -0.1866
 8757WAT     H235735   2.185   0.616   1.552 -0.0981  0.8903  1.0363
 8757WAT    EPW35736   2.133   0.562   1.576  0.0249  0.3395  0.3345
 8758WAT      O35737   2.346   6.378   4.542  0.3474 -0.0428 -0.7541
 8758WAT     H135738   2.398   6.431   4.496  0.0668  0.8796 -0.0427
 8758WAT     H235739   2.279   6.430   4.564 -0.1156 -0.7969 -0.3499
 8758WAT    EPW35740   2.344   6.394   4.538 -0.6392  0.5020  0.5273
 8759WAT      O35741   2.373   5.788   4.637 -0.4386  0.4191  0.0997
 8759WAT     H135742   2.326   5.839   4.690 -1.0979  0.6609 -0.6964
 8759WAT     H235743   2.454   5.795   4.668 -0.8110  0.5450  1.0769
 8759WAT    EPW35744   2.378   5.797   4.649  0.0974  0.0809 -0.3952
 8760WAT      O35745   1.370   5.215   2.898 -0.5445  0.6245  0.1885
 8760WAT     H135746   1.303   5.166   2.875 -1.3120  2.2870 -1.3667
 8760WAT     H235747   1.429   5.202   2.835  0.0007  0.3153  0.7461
 8760WAT    EPW35748   1.369   5.206   2.885 -0.3463 -0.2314 -0.5731
 8761WAT      O35749   3.657   0.076   5.565  0.1773 -0.1711 -0.0123
 8761WAT     H135750   3.628   0.130   5.503  0.3275  0.5249  0.5080
 8761WAT     H235751   3.640   0.118   5.639 -0.8376 -1.3968  0.4954
 8761WAT    EPW35752   3.651   0.090   5.567  0.4191  0.6165 -0.4549
 8762WAT      O35753   2.475   0.447   6.475  0.0657 -0.2636 -0.3422
 8762WAT     H135754   2.558   0.456   6.450  0.8351  0.1454  2.1099
 8762WAT     H235755   2.431   0.450   6.400  2.1723  0.5280 -1.6459
 8762WAT    EPW35756   2.481   0.449   6.460 -0.6942  0.1108  0.2848
 8763WAT      O35757   0.493   6.512   0.768  0.3611 -0.1237  0.0824
 8763WAT     H135758   0.514   6.433   0.739 -0.0319 -0.5271  0.8667
 8763WAT     H235759   0.406   6.508   0.774 -0.0848  1.5039 -3.1427
 8763WAT    EPW35760   0.483   6.500   0.764 -0.1086  0.4421 -0.1681
 8764WAT      O35761   1.320   6.455   1.599  0.5385 -0.1955 -0.1152
 8764WAT     H135762   1.373   6.514   1.563 -0.9549  1.2919  0.0300
 8764WAT     H235763   1.286   6.414   1.530  0.6144  0.0026 -0.2707
 8764WAT    EPW35764   1.322   6.458   1.583  0.4942  0.1692 -0.3923
 8765WAT      O35765   5.312   7.084   2.993 -0.2665 -0.2461  0.1911
 8765WAT     H135766   5.385   7.126   3.013  0.5555 -1.2944 -0.4638
 8765WAT     H235767   5.323   7.005   3.028  1.0258 -2.0082 -3.5692
 8765WAT    EPW35768   5.324   7.078   3.001 -0.2413  0.1292  0.2259
 8766WAT      O35769   3.793   2.358   7.553  0.2516  0.1240 -0.6816
 8766WAT     H135770   3.803   2.411   7.622 -2.9076  0.6368 -0.4786
 8766WAT     H235771   3.770   2.282   7.588 -0.4043  0.1168 -1.1029
 8766WAT    EPW35772   3.791   2.355   7.568 -0.0374  0.1228 -0.0147
 8767WAT      O35773   1.159   1.402   0.015 -0.4800  0.1764  0.1203
 8767WAT     H135774   1.183   1.338  -0.039 -0.0102 -0.1168  0.6701
 8767WAT     H235775   1.196   1.381   0.091 -0.8289  0.7759  0.4711
 8767WAT    EPW35776   1.168   1.390   0.018 -0.7322 -0.6980  0.3510
 8768WAT      O35777   5.818   5.461   3.670 -0.6358  0.0886  0.0409
 8768WAT     H135778   5.818   5.377   3.694 -1.0604 -0.1117 -0.6216
 8768WAT     H235779   5.766   5.499   3.728 -1.0047 -0.2361 -0.0693
 8768WAT    EPW35780   5.810   5.454   3.682  0.4863  0.1359  0.3930
 8769WAT      O35781   4.306   4.683   6.415  0.6007  0.1797 -0.0538
 8769WAT     H135782   4.354   4.751   6.389 -0.8263  1.1938 -0.1565
 8769WAT     H235783   4.279   4.647   6.341  0.6049  0.0490  0.0071
 8769WAT    EPW35784   4.309   4.688   6.400  0.1892 -0.4326  0.3974
 8770WAT      O35785   7.796   5.828   4.246 -0.5174 -0.6217 -0.0312
 8770WAT     H135786   7.803   5.912   4.266 -0.7525  0.0424 -2.4613
 8770WAT     H235787   7.879   5.802   4.238 -0.4458 -0.0767 -1.2216
 8770WAT    EPW35788   7.809   5.836   4.248 -0.0597  0.1388 -0.3274
 8771WAT      O35789   3.762   0.486   6.245 -0.4665 -0.3204 -0.0520
 8771WAT     H135790   3.797   0.407   6.241  0.9351  0.3163 -1.2703
 8771WAT     H235791   3.762   0.505   6.331  3.1258 -0.0092  0.0197
 8771WAT    EPW35792   3.767   0.477   6.257  0.0602 -0.0204 -0.0014
 8772WAT      O35793   0.160   0.702   1.389 -0.3681  0.4516 -0.4286
 8772WAT     H135794   0.148   0.787   1.376 -0.1991  0.5142 -0.1977
 8772WAT     H235795   0.187   0.672   1.312  0.6196  0.8109 -0.2406
 8772WAT    EPW35796   0.162   0.710   1.376 -0.7475  0.0703  0.0980
 8773WAT      O35797   7.694   5.610   4.379 -0.0116  0.3974  0.0259
 8773WAT     H135798   7.752   5.576   4.434 -1.4893  0.3671  1.6437
 8773WAT     H235799   7.738   5.674   4.339  1.2708  0.0265  0.7962
 8773WAT    EPW35800   7.709   5.614   4.381  0.5553 -0.3065 -0.4742
 8774WAT      O35801   5.535   1.169   3.586 -0.1420 -0.7767 -0.4469
 8774WAT     H135802   5.475   1.231   3.594 -1.5867 -1.9992 -1.2732
 8774WAT     H235803   5.531   1.146   3.502  1.1199 -1.2655 -0.4005
 8774WAT    EPW35804   5.525   1.175   3.575 -0.8030 -0.1987  0.1492
 8775WAT      O35805   2.772   7.928   4.215  0.2694 -0.4632  0.2184
 8775WAT     H135806   2.742   7.867   4.270 -0.8042 -1.2807 -1.1947
 8775WAT     H235807   2.846   7.894   4.185  1.2343  0.3004  1.6236
 8775WAT    EPW35808   2.778   7.914   4.219 -0.1907  0.0288 -0.2033
 8776WAT      O35809   3.658   4.853   1.825 -0.7854 -0.2654  0.3684
 8776WAT     H135810   3.725   4.808   1.857  0.4124  0.8422 -0.4701
 8776WAT     H235811   3.639   4.910   1.889 -1.0457 -0.6896  0.6724
 8776WAT    EPW35812   3.665   4.855   1.840  0.6442  0.0559  0.5977
 8777WAT      O35813   5.893   1.027   5.488 -0.5922  0.0484 -0.0946
 8777WAT     H135814   5.824   1.045   5.437  1.2509  3.1415 -1.7281
 8777WAT     H235815   5.932   0.961   5.446 -0.0424  1.4179 -1.8348
 8777WAT    EPW35816   5.888   1.020   5.474 -0.5341 -0.0679 -0.1831
 8778WAT      O35817   0.813   3.698   4.216 -0.8295 -0.8293  0.0987
 8778WAT     H135818   0.780   3.777   4.201 -0.9532 -0.6693  1.1960
 8778WAT     H235819   0.763   3.666   4.280  0.3262 -1.0840  0.9068
 8778WAT    EPW35820   0.801   3.705   4.223 -0.2102 -0.0391 -0.2238
 8779WAT      O35821   6.842   4.735   3.009  0.0253  0.0685  0.5405
 8779WAT     H135822   6.879   4.656   3.006  2.4660  1.1417  0.8565
 8779WAT     H235823   6.757   4.717   2.995  0.6683 -2.4433 -0.8405
 8779WAT    EPW35824   6.835   4.720   3.006 -0.7639 -0.4341 -0.3510
 8780WAT      O35825   2.599   6.219   5.209 -0.9109 -0.1256 -0.5910
 8780WAT     H135826   2.650   6.289   5.208  1.0185 -1.4367  0.2864
 8780WAT     H235827   2.559   6.221   5.131 -0.0094  1.2938 -1.0419
 8780WAT    EPW35828   2.600   6.230   5.198  0.4846 -0.7348 -0.5637
 8781WAT      O35829   3.189   0.787   6.457  0.1431 -0.0978 -0.0283
 8781WAT     H135830   3.155   0.715   6.492 -0.3683 -0.0794 -0.4788
 8781WAT     H235831   3.156   0.851   6.506  0.8514 -0.1796  0.5749
 8781WAT    EPW35832   3.179   0.786   6.470 -0.0835 -0.2619  0.2064
 8782WAT      O35833   5.082   0.797   5.110  0.0956 -0.3566  0.5734
 8782WAT     H135834   5.136   0.797   5.178  0.4375  0.5821  0.3095
 8782WAT     H235835   5.003   0.800   5.147  0.2828  0.2176  0.9308
 8782WAT    EPW35836   5.078   0.797   5.126  0.0031  0.6436 -0.1026
 8783WAT      O35837   1.743   7.722   3.667  0.0319  0.4577  0.3941
 8783WAT     H135838   1.827   7.710   3.685  0.1015  1.1333  0.5305
 8783WAT     H235839   1.707   7.643   3.682  0.6159  0.1955  0.4333
 8783WAT    EPW35840   1.750   7.708   3.672  0.4350 -0.4746  0.0762
 8784WAT      O35841   5.818   5.866   1.822 -0.6157  0.2061  0.4773
 8784WAT     H135842   5.871   5.804   1.791 -0.4807  1.3423 -1.8009
 8784WAT     H235843   5.739   5.837   1.800 -0.5015  1.1599 -1.4029
 8784WAT    EPW35844   5.814   5.852   1.814 -0.3420  0.1580 -0.1018
 8785WAT      O35845   4.404   1.013   0.751  0.7118  0.4254  0.3991
 8785WAT     H135846   4.430   1.085   0.793  0.2444  0.5740  0.4401
 8785WAT     H235847   4.389   1.041   0.669 -0.3227  0.5704  0.6274
 8785WAT    EPW35848   4.406   1.028   0.745  0.0005  0.5611 -0.0121
 8786WAT      O35849   1.033   5.843   1.513  0.3061 -0.2079  0.5498
 8786WAT     H135850   0.994   5.777   1.472  0.5708 -0.0447  0.0194
 8786WAT     H235851   1.104   5.807   1.550  1.4252  0.0641 -1.2005
 8786WAT    EPW35852   1.038   5.828   1.513  0.0724  0.1036  0.2466
 8787WAT      O35853   5.073   7.138   5.736 -0.1843 -0.3505  0.0843
 8787WAT     H135854   5.116   7.089   5.793  0.7976  0.2696 -0.1027
 8787WAT     H235855   5.103   7.218   5.750 -0.4672 -0.0731 -0.8103
 8787WAT    EPW35856   5.084   7.142   5.746  0.3068  0.2205 -0.4938
 8788WAT      O35857   3.579   1.438   1.058 -0.1300  0.1939 -0.0426
 8788WAT     H135858   3.586   1.366   1.009 -0.7318  0.2034 -0.1468
 8788WAT     H235859   3.628   1.496   1.015  0.2953 -0.1236  0.0008
 8788WAT    EPW35860   3.587   1.436   1.044 -0.6080 -0.4324 -0.5805
 8789WAT      O35861   2.836   7.717   2.288 -0.2479  0.2229  0.3026
 8789WAT     H135862   2.792   7.760   2.226  1.4916  0.3535 -0.9295
 8789WAT     H235863   2.799   7.638   2.289 -0.0041  0.0497 -1.2952
 8789WAT    EPW35864   2.824   7.712   2.279 -0.0695  0.1278 -0.2012
 8790WAT      O35865   0.634   1.537   4.885  0.3897  0.1055  0.1779
 8790WAT     H135866   0.622   1.575   4.807 -0.8565  0.9344  0.7317
 8790WAT     H235867   0.674   1.462   4.865 -0.2778  0.0930 -1.3074
 8790WAT    EPW35868   0.638   1.532   4.870  0.2877 -0.0316  0.2610
 8791WAT      O35869   2.535   6.779   3.669 -0.1493  0.2939 -0.2506
 8791WAT     H135870   2.583   6.795   3.740  0.0625  1.0995 -0.5646
 8791WAT     H235871   2.554   6.696   3.650  0.8368  0.4812 -0.1569
 8791WAT    EPW35872   2.545   6.769   3.677  0.5375  0.5414  0.0992
 8792WAT      O35873   3.263   1.337   5.503  0.0797  0.1001  0.3948
 8792WAT     H135874   3.208   1.291   5.454 -0.6941  1.1913  0.2107
 8792WAT     H235875   3.242   1.314   5.585  0.6683 -0.9258  0.2807
 8792WAT    EPW35876   3.252   1.327   5.508 -0.5185  0.2724 -0.0037
 8793WAT      O35877   0.610   3.863   3.717  0.2692 -0.5528  0.4813
 8793WAT     H135878   0.640   3.781   3.711  1.6810  0.0225 -1.0446
 8793WAT     H235879   0.681   3.912   3.702 -0.6683  0.9579  0.7354
 8793WAT    EPW35880   0.625   3.858   3.714  0.3788  0.4901  0.4592
 8794WAT      O35881   7.335   2.107   4.093 -0.3314 -0.0630 -0.7178
 8794WAT     H135882   7.326   2.051   4.160  0.3286 -0.0873 -0.6362
 8794WAT     H235883   7.287   2.176   4.117 -0.2713 -0.1594 -0.3140
 8794WAT    EPW35884   7.327   2.109   4.107 -0.2737 -0.4678 -0.3306
 8795WAT      O35885   1.235   5.167   1.166 -0.7621 -0.3344 -0.5075
 8795WAT     H135886   1.256   5.154   1.082  0.7861 -0.8424 -0.0817
 8795WAT     H235887   1.189   5.241   1.165 -1.6938 -0.8787 -1.9165
 8795WAT    EPW35888   1.231   5.176   1.154 -0.3349 -0.0626 -0.1013
 8796WAT      O35889   0.621   6.370   2.183 -0.1763  0.1426  0.2785
 8796WAT     H135890   0.575   6.298   2.203  0.3639 -0.2809  0.0158
 8796WAT     H235891   0.571   6.411   2.125 -0.2413 -0.2977  0.0199
 8796WAT    EPW35892   0.607   6.365   2.177  0.4860  0.2705 -1.0856
 8797WAT      O35893   1.994   2.346   0.868 -0.1555  0.0847  0.4769
 8797WAT     H135894   1.913   2.340   0.901  0.3035  2.7367  2.3791
 8797WAT     H235895   2.030   2.269   0.890 -2.0012 -1.0201 -0.1145
 8797WAT    EPW35896   1.987   2.334   0.876 -0.3218 -0.3344 -0.0138
 8798WAT      O35897   4.956   7.991   1.739  0.2638  0.0753  0.0053
 8798WAT     H135898   5.010   7.928   1.764 -0.5891 -0.6673  0.0143
 8798WAT     H235899   5.008   8.047   1.697  1.3105  0.2000  1.4112
 8798WAT    EPW35900   4.972   7.990   1.736 -0.1207  0.6546  0.2996
 8799WAT      O35901   4.180   1.191   1.499 -0.0801 -0.3076  0.5646
 8799WAT     H135902   4.114   1.144   1.464 -0.9709  0.6633  0.8870
 8799WAT     H235903   4.145   1.270   1.509  1.0446  0.1346  1.0858
 8799WAT    EPW35904   4.165   1.196   1.495 -0.4284  0.5610  0.0663
 8800WAT      O35905   3.243   1.354   0.926 -0.5134 -0.0286  0.2568
 8800WAT     H135906   3.181   1.410   0.949 -1.4910 -0.1032 -1.9203
 8800WAT     H235907   3.304   1.404   0.888  0.6426 -0.0075  2.0065
 8800WAT    EPW35908   3.243   1.370   0.924 -0.3343 -0.2262 -0.1035
 8801WAT      O35909   3.567   5.819   7.947  0.1978 -0.1691 -0.4061
 8801WAT     H135910   3.598   5.885   7.899 -1.2795  1.4561  0.7351
 8801WAT     H235911   3.481   5.820   7.930 -0.3221  0.2446  1.8788
 8801WAT    EPW35912   3.559   5.829   7.938  0.4012  0.0124  0.0861
 8802WAT      O35913   3.687   6.858   7.160 -0.4886 -0.2298 -0.4041
 8802WAT     H135914   3.755   6.913   7.160  0.5233 -1.4451  0.2537
 8802WAT     H235915   3.710   6.797   7.102 -0.6213 -1.1035  0.4432
 8802WAT    EPW35916   3.701   6.857   7.152  0.5445  0.6622  0.0080
 8803WAT      O35917   5.201   7.928   6.141 -0.6931  0.3429 -0.4998
 8803WAT     H135918   5.123   7.890   6.134 -0.6709 -0.1092  1.2089
 8803WAT     H235919   5.257   7.862   6.128 -0.6540 -0.4162  2.7749
 8803WAT    EPW35920   5.198   7.913   6.138 -0.3735  0.1703 -0.1440
 8804WAT      O35921   1.863   1.065   6.458  0.7688  0.3243 -0.5527
 8804WAT     H135922   1.945   1.035   6.450  0.4589 -0.4799 -0.7871
 8804WAT     H235923   1.818   0.995   6.484  0.4457  1.1554  1.3507
 8804WAT    EPW35924   1.869   1.051   6.461 -0.0455 -0.2398  0.6946
 8805WAT      O35925   1.230   7.497   4.483 -0.4823  0.1246  0.3243
 8805WAT     H135926   1.185   7.492   4.408 -0.1451 -0.8890  0.1744
 8805WAT     H235927   1.225   7.416   4.515  0.5561  0.1967  0.7066
 8805WAT    EPW35928   1.223   7.484   4.477  0.1929  0.0631  0.4346
 8806WAT      O35929   1.585   1.809   2.877 -0.1334 -0.0307  0.1515
 8806WAT     H135930   1.547   1.731   2.885  0.5383 -0.4943 -0.9444
 8806WAT     H235931   1.518   1.865   2.882 -0.5727 -0.6368  1.3606
 8806WAT    EPW35932   1.569   1.806   2.879  0.5578 -0.4821  0.6530
 8807WAT      O35933   5.772   6.383   1.920 -0.1014 -0.2448  0.2094
 8807WAT     H135934   5.850   6.369   1.955  0.9604  1.7854 -1.1871
 8807WAT     H235935   5.741   6.452   1.965 -0.0768  0.3922 -0.7172
 8807WAT    EPW35936   5.779   6.391   1.932 -0.7626  0.1925 -0.0506
 8808WAT      O35937   1.777   6.365   2.567 -0.0383  0.2234  0.3038
 8808WAT     H135938   1.834   6.401   2.511  0.5091  0.5115  1.0265
 8808WAT     H235939   1.803   6.282   2.571 -1.6821 -0.4852 -1.8440
 8808WAT    EPW35940   1.789   6.358   2.559  0.7914  0.2111 -0.0745
 8809WAT      O35941   4.525   4.678   2.578 -0.4495  0.1361 -0.0926
 8809WAT     H135942   4.443   4.652   2.559 -0.7340  1.2204 -0.4385
 8809WAT     H235943   4.558   4.699   2.500  0.7126 -1.7377 -0.1601
 8809WAT    EPW35944   4.517   4.677   2.563 -0.1677 -0.2191 -0.1931
 8810WAT      O35945   1.659   1.198   7.477 -0.2888 -0.2715 -0.0282
 8810WAT     H135946   1.732   1.227   7.515 -0.0504 -1.5089  0.5183
 8810WAT     H235947   1.680   1.194   7.392 -0.9923  3.0104 -0.4723
 8810WAT    EPW35948   1.673   1.202   7.470  0.3639  0.2366  0.5630
 8811WAT      O35949   3.330   4.849   1.298  0.1869  0.3526  0.0460
 8811WAT     H135950   3.303   4.931   1.285  1.3394  0.9666  1.3114
 8811WAT     H235951   3.269   4.815   1.350 -0.2994  0.3953 -0.4922
 8811WAT    EPW35952   3.317   4.856   1.304  0.1445  0.3419 -0.3133
 8812WAT      O35953   1.988   7.260   2.583  0.1770  0.5132 -0.0622
 8812WAT     H135954   1.943   7.260   2.658 -0.7454  0.0710 -0.6008
 8812WAT     H235955   2.052   7.317   2.598 -0.8563  1.5625  0.5601
 8812WAT    EPW35956   1.991   7.268   2.597  0.5648 -0.1505 -0.0978
 8813WAT      O35957   6.801   7.307   0.225 -0.4668  0.3308  0.7269
 8813WAT     H135958   6.867   7.329   0.278  0.4017  0.8776 -0.5481
 8813WAT     H235959   6.841   7.270   0.157 -1.5380 -0.0382  0.2828
 8813WAT    EPW35960   6.817   7.305   0.223  0.6587 -0.4625  0.6052
 8814WAT      O35961   3.120   6.098   3.555  0.2593 -0.1593 -0.2080
 8814WAT     H135962   3.053   6.143   3.521  0.5127  0.6355  0.3221
 8814WAT     H235963   3.115   6.021   3.514  1.4192  1.1659 -3.1232
 8814WAT    EPW35964   3.109   6.093   3.544  0.1459 -0.7517  0.2102
 8815WAT      O35965   1.867   6.543   2.209 -0.0083  0.0978  0.5538
 8815WAT     H135966   1.800   6.488   2.217 -0.0240  0.1957  1.1811
 8815WAT     H235967   1.915   6.526   2.280  0.9518 -0.3984 -0.1783
 8815WAT    EPW35968   1.864   6.532   2.221 -0.0198  0.1644 -0.0080
 8816WAT      O35969   6.430   6.347   3.111 -0.2703  0.0574  0.2449
 8816WAT     H135970   6.386   6.287   3.066 -1.5374  0.3798  1.0162
 8816WAT     H235971   6.373   6.375   3.171  0.6748  1.1742  0.6768
 8816WAT    EPW35972   6.415   6.343   3.113 -0.6626  0.1534  0.1240
 8817WAT      O35973   4.303   7.040   2.102 -0.0414 -0.1649  0.2073
 8817WAT     H135974   4.378   7.080   2.120 -0.0169 -0.6030  1.1494
 8817WAT     H235975   4.317   6.958   2.127 -0.3924 -0.5648 -0.8595
 8817WAT    EPW35976   4.316   7.034   2.108 -0.2719 -0.0598  0.2858
 8818WAT      O35977   4.187   7.459   5.747  0.3569  0.8276  0.3472
 8818WAT     H135978   4.114   7.474   5.793  1.3768  1.3349  1.8773
 8818WAT     H235979   4.204   7.374   5.763 -0.1928  0.5557 -0.4751
 8818WAT    EPW35980   4.179   7.448   5.756 -0.7276 -0.1724  0.8166
 8819WAT      O35981   4.257   5.548   3.558  0.0928 -0.5640 -0.1280
 8819WAT     H135982   4.276   5.632   3.572 -1.3578 -0.1436 -0.5354
 8819WAT     H235983   4.243   5.544   3.472 -2.7480 -0.5393  0.2448
 8819WAT    EPW35984   4.258   5.560   3.547 -0.0154  0.0037  0.1965
 8820WAT      O35985   1.356   5.394   4.528 -0.6989  0.0996  0.2138
 8820WAT     H135986   1.427   5.426   4.489 -0.6395  1.1398  1.1264
 8820WAT     H235987   1.381   5.314   4.552 -0.0155  0.2519  0.0534
 8820WAT    EPW35988   1.370   5.387   4.526  0.1848 -0.0625 -0.1520
 8821WAT      O35989   5.118   4.922   5.719 -0.7121  0.4364  0.7432
 8821WAT     H135990   5.162   4.847   5.725 -1.9573 -0.4225 -0.3809
 8821WAT     H235991   5.146   4.967   5.788  0.8683 -0.6201  0.8396
 8821WAT    EPW35992   5.129   4.917   5.730  0.1502 -0.0969 -0.2145
 8822WAT      O35993   5.847   3.766   1.004  0.1496 -0.2311  0.1764
 8822WAT     H135994   5.903   3.805   1.059  2.5172 -3.1152  0.0693
 8822WAT     H235995   5.899   3.720   0.951 -2.2742 -1.3651 -1.4063
 8822WAT    EPW35996   5.863   3.765   1.004  0.0511 -0.3457  0.2704
 8823WAT      O35997   6.956   7.011   3.941  0.0132 -0.1270  0.3064
 8823WAT     H135998   6.922   6.976   4.013 -0.5166  1.5682  0.9479
 8823WAT     H235999   6.886   7.045   3.900  0.2567 -1.3737 -1.2222
 8823WAT    EPW36000   6.940   7.011   3.946  0.5946 -0.3101 -0.5870
 8824WAT      O36001   1.339   6.754   3.855 -0.2639 -0.0820  0.6488
 8824WAT     H136002   1.347   6.841   3.850  2.1472 -0.2798 -0.4621
 8824WAT     H236003   1.297   6.734   3.781  0.7286  0.0401  0.0312
 8824WAT    EPW36004   1.334   6.764   3.843 -0.0976  0.0587 -0.4851
 8825WAT      O36005   6.882   6.155   1.510 -0.0694  0.1066  0.0618
 8825WAT     H136006   6.940   6.174   1.448  0.4152 -0.3773  0.3648
 8825WAT     H236007   6.814   6.207   1.490  0.6312  1.0103 -0.0229
 8825WAT    EPW36008   6.881   6.166   1.498  0.6489  0.0218 -0.0992
 8826WAT      O36009   1.165   7.304   0.032 -0.1679 -0.2588  0.3042
 8826WAT     H136010   1.086   7.340   0.045 -0.2100 -1.1233  3.1739
 8826WAT     H236011   1.155   7.222   0.058  1.8089 -0.1903  1.5186
 8826WAT    EPW36012   1.152   7.297   0.038  0.6014 -0.6213 -0.5916
 8827WAT      O36013   5.519   0.337   1.382  0.6495 -0.4084 -0.4356
 8827WAT     H136014   5.451   0.344   1.436  0.0602  0.3589 -1.2314
 8827WAT     H236015   5.548   0.256   1.396  0.0791 -0.4688  0.5043
 8827WAT    EPW36016   5.513   0.326   1.392 -0.7633 -0.1208  0.1355
 8828WAT      O36017   0.819   7.891   4.136  0.1901  0.0502  0.5583
 8828WAT     H136018   0.871   7.923   4.074  0.1200 -0.2307  0.3532
 8828WAT     H236019   0.741   7.885   4.096  0.7285 -2.8395 -0.2586
 8828WAT    EPW36020   0.815   7.895   4.121 -0.1095 -0.0735 -0.1267
 8829WAT      O36021   6.079   6.635   2.342 -0.0928  0.4475  0.2595
 8829WAT     H136022   6.130   6.617   2.273 -1.2376  2.1639 -1.1326
 8829WAT     H236023   6.014   6.579   2.334  0.6119 -0.5078  0.9792
 8829WAT    EPW36024   6.077   6.624   2.330  0.5228  0.6786 -0.0294
 8830WAT      O36025   1.502   0.868   1.059 -0.2416 -0.4638 -0.1537
 8830WAT     H136026   1.535   0.915   0.993 -1.0482  0.6619  0.2100
 8830WAT     H236027   1.556   0.800   1.065  0.3730 -0.1094 -1.3730
 8830WAT    EPW36028   1.515   0.865   1.050 -0.1809 -0.1295 -0.0837
 8831WAT      O36029   4.031   6.239   0.842  0.0970 -0.5163  0.6813
 8831WAT     H136030   3.997   6.294   0.783  1.7430 -0.1013  0.0676
 8831WAT     H236031   4.110   6.273   0.859  1.1535 -2.6312  0.3346
 8831WAT    EPW36032   4.038   6.252   0.836 -0.2568 -0.3046  0.3628
 8832WAT      O36033   1.537   3.761   1.293  0.0602 -0.9796 -0.0948
 8832WAT     H136034   1.591   3.700   1.261 -0.2789 -0.8252 -0.9868
 8832WAT     H236035   1.587   3.832   1.297  0.3712 -1.2296  0.6530
 8832WAT    EPW36036   1.552   3.762   1.289 -0.0663  0.4399  0.3117
 8833WAT      O36037   7.842   5.533   1.759 -0.1807  0.3617 -0.4411
 8833WAT     H136038   7.868   5.565   1.681 -2.6959 -0.3236 -1.6544
 8833WAT     H236039   7.909   5.481   1.783  0.7842  0.8175 -1.9856
 8833WAT    EPW36040   7.856   5.530   1.751 -0.4491 -0.1315 -0.5117
 8834WAT      O36041   3.889   5.648   3.439  0.1896  0.3531 -0.8863
 8834WAT     H136042   3.962   5.636   3.484 -0.6569 -0.0491  0.4305
 8834WAT     H236043   3.855   5.568   3.432 -0.0740  0.5182 -1.5846
 8834WAT    EPW36044   3.895   5.635   3.445 -0.1185  0.1274 -0.1199
 8835WAT      O36045   2.257   5.580   4.213  0.3960 -0.4780  0.3233
 8835WAT     H136046   2.286   5.506   4.177 -1.7742 -1.1595 -0.1934
 8835WAT     H236047   2.278   5.571   4.298  1.2515 -1.0915  0.0660
 8835WAT    EPW36048   2.265   5.567   4.220  0.6284 -0.0445 -0.2993
 8836WAT      O36049   4.669   1.100   4.697 -0.0061 -0.2922  0.2736
 8836WAT     H136050   4.756   1.093   4.700  0.0478  0.3875  2.2278
 8836WAT     H236051   4.652   1.120   4.614  1.9481  1.9973  0.2977
 8836WAT    EPW36052   4.679   1.102   4.685  0.3967  0.4183  0.1668
 8837WAT      O36053   6.267   7.527   2.479  0.1409 -0.1420  0.2235
 8837WAT     H136054   6.314   7.516   2.552 -0.1575  0.9059  0.5939
 8837WAT     H236055   6.326   7.523   2.415  0.5094 -0.3387  0.5689
 8837WAT    EPW36056   6.282   7.525   2.481  0.7695  0.4002 -0.2522
 8838WAT      O36057   2.166   4.731   0.493  0.0936 -0.0072 -0.9392
 8838WAT     H136058   2.165   4.648   0.521  1.1973  0.2282 -0.1551
 8838WAT     H236059   2.115   4.772   0.551  1.1596  0.2043 -0.1173
 8838WAT    EPW36060   2.159   4.725   0.506  0.4202  0.4803 -0.4605
 8839WAT      O36061   5.212   6.069   3.210  0.7551 -0.0628 -0.0340
 8839WAT     H136062   5.277   6.110   3.168  1.0556 -0.0345  0.4488
 8839WAT     H236063   5.253   6.030   3.276  0.3818 -0.6425 -0.1369
 8839WAT    EPW36064   5.228   6.070   3.213 -0.8984  0.1353  0.2509
 8840WAT      O36065   3.070   5.531   3.839 -0.0528 -0.2197 -0.4605
 8840WAT     H136066   3.084   5.604   3.793 -0.5598 -0.0252 -0.3137
 8840WAT     H236067   3.090   5.554   3.921 -0.5811 -0.1263 -0.3523
 8840WAT    EPW36068   3.075   5.545   3.844  0.4196  0.2677 -0.4196
 8841WAT      O36069   4.245   7.775   6.206 -0.4258 -0.3442  0.1928
 8841WAT     H136070   4.246   7.847   6.257  0.3077  0.3985 -0.8230
 8841WAT     H236071   4.271   7.805   6.128  3.4151 -2.2635  0.5037
 8841WAT    EPW36072   4.249   7.790   6.202  0.1725 -0.7519  0.6047
 8842WAT      O36073   3.325   1.396   0.401 -0.1224 -0.1307  0.4905
 8842WAT     H136074   3.338   1.455   0.463  0.5144  0.9211 -0.6149
 8842WAT     H236075   3.240   1.378   0.407 -0.5477  1.6751  0.1752
 8842WAT    EPW36076   3.314   1.402   0.411  0.2423  0.1456  0.3042
 8843WAT      O36077   1.494   4.397   3.144  0.3517 -0.6029 -0.2985
 8843WAT     H136078   1.552   4.334   3.129  1.3418  0.3173 -0.4236
 8843WAT     H236079   1.449   4.367   3.212  1.2125 -1.1733  0.0349
 8843WAT    EPW36080   1.496   4.383   3.152  0.1572  0.1548 -0.1348
 8844WAT      O36081   0.202   6.524   2.652  0.0141  0.1831 -0.0461
 8844WAT     H136082   0.190   6.468   2.586  2.4174 -0.6355  0.0986
 8844WAT     H236083   0.285   6.511   2.675  0.3065  2.9334  0.8573
 8844WAT    EPW36084   0.213   6.514   2.646 -0.0469 -0.1021  0.5497
 8845WAT      O36085   6.329   2.008   7.998  0.3010  0.3917 -0.3284
 8845WAT     H136086   6.355   1.999   8.081 -0.0004  0.5103 -0.2174
 8845WAT     H236087   6.270   1.945   7.989 -0.6525  1.2162 -0.0365
 8845WAT    EPW36088   6.324   1.998   8.009  0.0244 -0.1900 -0.0650
 8846WAT      O36089   5.474   4.861   0.645 -0.2971  0.0395 -0.3022
 8846WAT     H136090   5.404   4.909   0.622 -1.5902 -0.7571  1.6501
 8846WAT     H236091   5.509   4.906   0.710  0.8151  0.2253 -1.0086
 8846WAT    EPW36092   5.469   4.875   0.651  0.6471 -0.2626 -0.2372
 8847WAT      O36093   0.428   3.888   0.528  0.2352  0.0299 -0.2708
 8847WAT     H136094   0.436   3.897   0.614  0.1102  1.4559 -0.3835
 8847WAT     H236095   0.351   3.925   0.511  0.1255 -0.4955 -0.9711
 8847WAT    EPW36096   0.418   3.895   0.538  0.0709 -0.2063 -0.7715
 8848WAT      O36097   4.130   6.725   1.496 -0.1621 -0.4254  0.3098
 8848WAT     H136098   4.050   6.746   1.523 -0.5563 -0.5774 -0.7076
 8848WAT     H236099   4.122   6.642   1.469  0.5584 -0.7477  1.0297
 8848WAT    EPW36100   4.117   6.716   1.496 -0.3656  0.7160 -0.3127
 8849WAT      O36101   6.426   7.458   4.420  0.0396  0.2107 -0.4697
 8849WAT     H136102   6.381   7.504   4.479 -0.2284  0.8387 -1.1525
 8849WAT     H236103   6.366   7.439   4.360  0.5059  0.3351 -0.9797
 8849WAT    EPW36104   6.410   7.462   4.420  0.1523  0.1317 -0.0179
 8850WAT      O36105   7.758   5.406   4.168  0.1228  0.5142  0.0015
 8850WAT     H136106   7.831   5.381   4.208 -0.2726 -0.0584  0.3848
 8850WAT     H236107   7.718   5.455   4.229 -0.8160 -0.9342  0.6091
 8850WAT    EPW36108   7.763   5.410   4.183 -0.4785  0.4123  0.6926
 8851WAT      O36109   6.111   6.671   1.634  0.2436 -0.6815  0.0611
 8851WAT     H136110   6.123   6.585   1.640  1.2731 -0.5826 -0.2492
 8851WAT     H236111   6.093   6.695   1.716 -1.5170 -1.3666 -0.0890
 8851WAT    EPW36112   6.110   6.662   1.647  0.2649 -0.4587 -0.1548
 8852WAT      O36113   7.859   7.188   4.079 -0.1248  0.3243 -0.0111
 8852WAT     H136114   7.938   7.193   4.117  0.5056  1.2115 -1.3406
 8852WAT     H236115   7.849   7.103   4.063  0.9536  0.2818 -0.5550
 8852WAT    EPW36116   7.869   7.176   4.082  0.0902 -0.1647  0.0014
 8853WAT      O36117   2.477   2.004   2.645  0.1196  0.1709  0.1610
 8853WAT     H136118   2.552   2.033   2.679 -0.6280  2.7263 -0.1641
 8853WAT     H236119   2.422   2.006   2.713  0.2776 -1.7324  0.4107
 8853WAT    EPW36120   2.480   2.008   2.660  0.0328  0.5045 -0.8089
 8854WAT      O36121   4.531   7.500   1.624  0.6028 -0.9647 -0.0113
 8854WAT     H136122   4.538   7.516   1.710  0.3712 -0.4472 -0.0858
 8854WAT     H236123   4.609   7.523   1.593 -0.6781  3.4442 -0.6297
 8854WAT    EPW36124   4.543   7.506   1.632  0.6295  0.3748 -0.0936
 8855WAT      O36125   0.194   6.115   2.757 -0.3865 -0.1456 -0.3459
 8855WAT     H136126   0.275   6.082   2.764 -0.0288  0.6064 -0.8525
 8855WAT     H236127   0.161   6.074   2.687 -1.1213 -1.7987  0.9020
 8855WAT    EPW36128   0.201   6.104   2.748 -0.2506  0.0805  0.3629
 8856WAT      O36129   4.630   5.553   4.245  0.0832  0.3000 -0.4883
 8856WAT     H136130   4.580   5.523   4.310  0.4835  0.2235 -0.2112
 8856WAT     H236131   4.578   5.608   4.202 -1.1529 -1.7521 -1.8196
 8856WAT    EPW36132   4.615   5.556   4.248  0.3968 -0.0747  0.0120
 8857WAT      O36133   5.712   5.335   0.811  0.2669 -0.1651 -0.1340
 8857WAT     H136134   5.698   5.294   0.887 -0.2708  0.7563  0.2797
 8857WAT     H236135   5.799   5.339   0.806  0.3108 -0.4387  0.3270
 8857WAT    EPW36136   5.723   5.330   0.821 -0.0406  0.6769  0.1810
 8858WAT      O36137   2.212   5.921   2.634 -0.4940  0.1424 -0.3542
 8858WAT     H136138   2.129   5.938   2.654 -0.7844 -0.8790 -0.6269
 8858WAT     H236139   2.209   5.900   2.549 -0.0859 -0.6378 -0.1864
 8858WAT    EPW36140   2.200   5.921   2.624  0.7164  0.2249 -0.1802
 8859WAT      O36141   3.622   7.086   1.994  0.7211  0.4712 -0.0489
 8859WAT     H136142   3.549   7.086   2.043  1.3189 -0.7410  0.9004
 8859WAT     H236143   3.659   7.163   2.014  0.6413  0.2685  0.9584
 8859WAT    EPW36144   3.616   7.098   2.004 -0.1262 -0.3898 -0.4686
 8860WAT      O36145   1.294   0.972   2.216  0.0774  0.2191 -0.2162
 8860WAT     H136146   1.348   1.010   2.160  1.4990 -1.3493  0.0068
 8860WAT     H236147   1.327   0.993   2.294 -0.5880  0.5638 -0.0204
 8860WAT    EPW36148   1.307   0.980   2.219  0.7310  0.6526  0.2168
 8861WAT      O36149   2.017   6.747   7.804  0.2715  0.2221  0.3191
 8861WAT     H136150   2.074   6.685   7.828  0.4987  0.5686  0.6826
 8861WAT     H236151   2.066   6.804   7.760  0.1167  0.2869  0.2311
 8861WAT    EPW36152   2.033   6.746   7.801  0.3413 -0.7544 -0.0242
 8862WAT      O36153   3.104   7.530   4.049 -0.1197  0.6791  0.3837
 8862WAT     H136154   3.150   7.565   3.984  0.7824 -0.4699  0.3773
 8862WAT     H236155   3.030   7.505   4.011 -0.0238  0.9414  0.0203
 8862WAT    EPW36156   3.100   7.531   4.034 -0.1495 -0.1286  0.3817
 8863WAT      O36157   7.767   6.012   3.666 -0.5877 -0.8301  0.1462
 8863WAT     H136158   7.766   6.075   3.605 -0.6153  1.0230  1.9549
 8863WAT     H236159   7.685   5.983   3.666 -1.5089  1.5079  1.5100
 8863WAT    EPW36160   7.755   6.017   3.657  0.1376  0.3955  0.0086
 8864WAT      O36161   5.858   1.935   5.734  0.2430  0.1766  0.2002
 8864WAT     H136162   5.802   2.000   5.748 -1.0458 -0.4771 -1.6431
 8864WAT     H236163   5.824   1.892   5.667  1.0436 -2.4522  1.3405
 8864WAT    EPW36164   5.845   1.938   5.726  0.4298 -0.3399 -0.3878
 8865WAT      O36165   5.779   1.672   2.921  0.5459  0.6434 -0.6170
 8865WAT     H136166   5.754   1.620   2.856 -2.8797  1.2785  0.0121
 8865WAT     H236167   5.846   1.716   2.887  1.6286 -1.9930 -2.1852
 8865WAT    EPW36168   5.785   1.671   2.906 -0.0736 -0.2141 -0.1793
 8866WAT      O36169   2.755   0.470   0.989  0.1315 -0.3616  0.5096
 8866WAT     H136170   2.668   0.470   1.000  0.1361 -0.6176  0.5408
 8866WAT     H236171   2.785   0.493   1.068  0.0154  2.3543 -0.1284
 8866WAT    EPW36172   2.746   0.474   1.003 -0.4353 -0.6920  0.7797
 8867WAT      O36173   0.250   2.083   3.126 -0.2344  0.2213 -0.0785
 8867WAT     H136174   0.333   2.059   3.138 -0.0209  1.2506  0.6903
 8867WAT     H236175   0.257   2.158   3.082 -0.8219 -0.4215 -1.2898
 8867WAT    EPW36176   0.263   2.090   3.122 -0.5485 -0.1762 -0.3698
 8868WAT      O36177   0.537   6.755   3.533  0.1059  0.4853 -0.0150
 8868WAT     H136178   0.545   6.697   3.468  1.2683  0.2072  0.3422
 8868WAT     H236179   0.577   6.715   3.600  0.5279  1.5139  0.3625
 8868WAT    EPW36180   0.544   6.740   3.533 -0.0157  0.1095 -0.2499
 8869WAT      O36181   6.591   7.638   1.369 -0.4247 -0.0105 -0.2570
 8869WAT     H136182   6.556   7.655   1.290 -0.7301  1.7046  0.2195
 8869WAT     H236183   6.649   7.576   1.352  0.0974  0.8952 -1.9966
 8869WAT    EPW36184   6.594   7.631   1.355  0.4704  0.0965 -0.3524
 8870WAT      O36185   1.084   5.432   5.254 -0.4370 -0.9460  0.5072
 8870WAT     H136186   1.123   5.506   5.229  1.7928 -2.0438  0.4790
 8870WAT     H236187   1.002   5.457   5.272 -0.1140  1.2605 -0.7197
 8870WAT    EPW36188   1.077   5.446   5.253  0.5121 -0.1962  0.4874
 8871WAT      O36189   2.202   5.324   5.626 -0.4629 -0.2221  0.0237
 8871WAT     H136190   2.203   5.275   5.698  0.3194  1.0829  0.9402
 8871WAT     H236191   2.259   5.284   5.573  0.9659  0.2413  1.1578
 8871WAT    EPW36192   2.211   5.311   5.629  0.0350  0.0341  0.3452
 8872WAT      O36193   4.165   6.565   3.752  0.2370 -0.2321 -0.3200
 8872WAT     H136194   4.134   6.485   3.767  2.1253 -0.9458  0.0394
 8872WAT     H236195   4.119   6.615   3.807  0.8858 -1.5170  1.5213
 8872WAT    EPW36196   4.154   6.561   3.763  0.8757 -0.2653  0.4740
 8873WAT      O36197   7.544   1.335   4.667 -0.1737 -0.3495 -0.2321
 8873WAT     H136198   7.627   1.336   4.640  0.3272 -0.2710  1.2298
 8873WAT     H236199   7.501   1.375   4.603  1.3059  2.1152  0.1705
 8873WAT    EPW36200   7.550   1.341   4.654 -0.3835 -0.0720 -0.2893
 8874WAT      O36201   1.166   4.349   3.217  0.5480  0.0332  0.5601
 8874WAT     H136202   1.220   4.318   3.279  0.5118 -0.8625  0.1686
 8874WAT     H236203   1.091   4.360   3.260  0.1704 -1.7520  0.4702
 8874WAT    EPW36204   1.163   4.346   3.233 -0.0148 -0.2292 -0.1287
 8875WAT      O36205   1.822   3.282   7.636 -0.0287  0.1023  0.3496
 8875WAT     H136206   1.843   3.263   7.553 -0.8214 -1.6972  0.5304
 8875WAT     H236207   1.746   3.323   7.629 -0.4710 -0.7209  0.2114
 8875WAT    EPW36208   1.814   3.285   7.623 -0.7968 -0.1513  0.1181
 8876WAT      O36209   8.063   5.253   2.318  0.4217  0.6722  0.6623
 8876WAT     H136210   8.073   5.276   2.234 -2.1574  0.1261  0.1412
 8876WAT     H236211   8.074   5.167   2.317  1.5799  0.7976  1.1369
 8876WAT    EPW36212   8.066   5.244   2.305 -0.3359  0.1616  0.1703
 8877WAT      O36213   4.626   0.292   4.356 -0.2005 -0.2929  0.2981
 8877WAT     H136214   4.681   0.320   4.294 -0.8839  0.4168 -0.0057
 8877WAT     H236215   4.669   0.227   4.394  0.2136 -0.7738 -0.9600
 8877WAT    EPW36216   4.640   0.287   4.353  0.5874  0.0917 -0.0836
 8878WAT      O36217   5.784   4.640   1.726 -0.2732 -0.1207  0.1958
 8878WAT     H136218   5.781   4.553   1.721 -0.7253 -0.2383  2.0150
 8878WAT     H236219   5.710   4.666   1.687  0.7254 -0.4055 -2.0364
 8878WAT    EPW36220   5.772   4.631   1.719  0.1043 -0.3878  0.7453
 8879WAT      O36221   1.400   4.703   4.449  0.0973  0.3064  0.2097
 8879WAT     H136222   1.432   4.682   4.370 -1.2698  0.5640 -0.4483
 8879WAT     H236223   1.400   4.627   4.492 -0.3695 -0.1029 -0.5002
 8879WAT    EPW36224   1.405   4.689   4.444  0.6565  0.6679  0.2933
 8880WAT      O36225   4.177   0.216   2.488  0.5887  0.5381  0.4256
 8880WAT     H136226   4.164   0.264   2.560 -1.4075  1.2043 -0.3034
 8880WAT     H236227   4.193   0.276   2.427 -0.6693  0.2367 -0.2394
 8880WAT    EPW36228   4.177   0.232   2.490  0.2334 -0.0729 -0.0656
 8881WAT      O36229   6.994   5.919   1.668  0.1838  0.0632 -0.7004
 8881WAT     H136230   6.976   5.991   1.622 -0.2599 -0.0372 -0.6870
 8881WAT     H236231   7.042   5.871   1.613 -1.6681 -0.7708 -1.6809
 8881WAT    EPW36232   6.999   5.923   1.653 -0.2761  0.4756  0.0832
 8882WAT      O36233   3.279   0.364   2.662  0.2128  0.3276 -0.2070
 8882WAT     H136234   3.203   0.405   2.650  0.5244  1.1783  0.5691
 8882WAT     H236235   3.318   0.411   2.724  0.0463 -1.9038  1.7022
 8882WAT    EPW36236   3.274   0.377   2.669  0.0941  0.2043 -0.7400
 8883WAT      O36237   5.655   6.107   2.853  0.1813 -0.6311  0.5273
 8883WAT     H136238   5.629   6.033   2.814  1.7137 -1.7808  1.5647
 8883WAT     H236239   5.728   6.128   2.810  0.1778 -0.1652  0.7493
 8883WAT    EPW36240   5.662   6.099   2.841  0.0394  0.2688 -0.7699
 8884WAT      O36241   7.669   6.952   3.281  0.1563 -0.0333 -0.1707
 8884WAT     H136242   7.642   6.870   3.266  0.7096 -0.2762  0.0982
 8884WAT     H236243   7.596   6.994   3.302  0.1113 -0.9499  1.7808
 8884WAT    EPW36244   7.654   6.946   3.282  0.6543 -0.1406 -0.2949
 8885WAT      O36245   2.150   7.515   1.217  0.3843 -0.1455 -0.0224
 8885WAT     H136246   2.205   7.531   1.150  0.0752 -0.1689 -0.2853
 8885WAT     H236247   2.072   7.510   1.178  0.2854 -0.8593  0.2462
 8885WAT    EPW36248   2.147   7.517   1.201 -0.0852 -0.4823  0.2408
 8886WAT      O36249   6.544   7.159   3.187 -0.6410 -0.4097  0.3172
 8886WAT     H136250   6.463   7.137   3.210 -0.8029 -0.3209 -0.1527
 8886WAT     H236251   6.578   7.190   3.260 -1.1669 -0.0623  0.4208
 8886WAT    EPW36252   6.537   7.160   3.201  0.1040  0.6594 -0.0861
 8887WAT      O36253   0.583   5.027   4.665 -0.1775  0.4008  0.1917
 8887WAT     H136254   0.615   4.947   4.649 -1.7767 -0.2743  0.1455
 8887WAT     H236255   0.548   5.020   4.744 -0.1151  1.1341  0.2940
 8887WAT    EPW36256   0.583   5.014   4.674  0.2096  0.2764  0.3346
 8888WAT      O36257   4.098   0.526   6.009  0.0044  0.4695  0.4944
 8888WAT     H136258   4.167   0.520   6.063  0.0204 -0.6008  0.3581
 8888WAT     H236259   4.110   0.604   5.971  0.3743  0.9311  1.5031
 8888WAT    EPW36260   4.110   0.537   6.011  0.0764 -0.5648  0.8664
 8889WAT      O36261   3.287   4.465   3.736 -0.0719  0.0483 -0.0583
 8889WAT     H136262   3.315   4.385   3.756  0.1090  0.0430 -0.3332
 8889WAT     H236263   3.281   4.464   3.649  2.3626  1.0965 -0.3373
 8889WAT    EPW36264   3.290   4.453   3.726  0.0986  0.2490  0.6150
 8890WAT      O36265   6.025   4.400   7.208  0.4792  0.0911 -0.6015
 8890WAT     H136266   6.050   4.320   7.230  0.0782 -0.3241 -1.5999
 8890WAT     H236267   6.042   4.405   7.123 -1.4951  0.2753 -1.0409
 8890WAT    EPW36268   6.031   4.389   7.199 -0.1727 -0.4182  0.8427
 8891WAT      O36269   5.166   1.368   3.855 -0.4247  0.1572 -0.1942
 8891WAT     H136270   5.215   1.430   3.892 -0.9240  0.1118  0.5728
 8891WAT     H236271   5.169   1.302   3.912 -3.0290  0.8979  0.9697
 8891WAT    EPW36272   5.173   1.368   3.869  0.5877  0.3125 -0.8901
 8892WAT      O36273   1.712   7.714   7.221  0.1980 -0.3457  0.3415
 8892WAT     H136274   1.628   7.725   7.243  0.3903  2.0441  0.2018
 8892WAT     H236275   1.713   7.735   7.136  0.9006 -0.5837  0.2896
 8892WAT    EPW36276   1.700   7.719   7.211  0.1059 -0.2405  0.0523
 8893WAT      O36277   2.846   5.920   2.286  0.1436  0.2844 -0.1319
 8893WAT     H136278   2.911   5.972   2.260 -1.3722  1.0990 -2.5966
 8893WAT     H236279   2.817   5.959   2.359  0.5475  1.5506 -0.6218
 8893WAT    EPW36280   2.851   5.933   2.293  0.2504 -0.1750  0.0004
 8894WAT      O36281   3.567   5.626   3.104  0.0063  0.7976 -0.3170
 8894WAT     H136282   3.649   5.655   3.094  0.5723 -0.9135 -0.9501
 8894WAT     H236283   3.574   5.567   3.167 -0.6813  0.4089 -0.5985
 8894WAT    EPW36284   3.580   5.622   3.112 -0.5941 -0.2455  0.5385
 8895WAT      O36285   2.722   7.362   0.588 -0.5134 -0.2025 -0.3648
 8895WAT     H136286   2.777   7.391   0.526 -1.2734 -1.6112 -1.7845
 8895WAT     H236287   2.718   7.428   0.645  0.9764  0.7717 -1.3188
 8895WAT    EPW36288   2.729   7.376   0.587  0.2112 -0.2554  0.2929
 8896WAT      O36289   4.223   5.775   4.488 -0.1347 -0.8127 -0.3567
 8896WAT     H136290   4.180   5.823   4.547  1.9721 -1.2577  1.6595
 8896WAT     H236291   4.226   5.695   4.524  2.2372 -0.8205 -0.3960
 8896WAT    EPW36292   4.217   5.770   4.502 -0.3218 -0.2031 -0.1779
 8897WAT      O36293   3.140   4.926   5.950  0.3577  0.0157 -0.3865
 8897WAT     H136294   3.054   4.925   5.936  0.3922  1.8785 -0.9702
 8897WAT     H236295   3.173   4.887   5.880 -0.0219 -1.6188  0.3038
 8897WAT    EPW36296   3.133   4.920   5.938  0.0035  0.5182 -0.1576
 8898WAT      O36297   3.400   2.475   5.907  0.1309 -0.1047  0.2351
 8898WAT     H136298   3.482   2.471   5.875  0.3121 -1.5212  0.8437
 8898WAT     H236299   3.351   2.464   5.836  0.5327 -3.1346  0.3163
 8898WAT    EPW36300   3.405   2.473   5.892  0.1901  0.2689  1.0203
 8899WAT      O36301   6.787   4.091   0.489 -0.6775 -0.0864 -0.0588
 8899WAT     H136302   6.775   4.107   0.404 -1.1334 -0.4864 -0.0718
 8899WAT     H236303   6.745   4.156   0.529 -1.5835 -0.6186 -0.1262
 8899WAT    EPW36304   6.779   4.103   0.483 -0.2270 -0.3694  0.0434
 8900WAT      O36305   3.440   7.910   3.205 -0.2154  0.1893 -0.5187
 8900WAT     H136306   3.451   7.861   3.277 -1.3251  0.7535  0.0622
 8900WAT     H236307   3.405   7.984   3.236  0.2184  0.8378 -1.5378
 8900WAT    EPW36308   3.436   7.913   3.220 -0.3567  0.1521  0.7717
 8901WAT      O36309   3.253   1.651   5.499  0.5175 -0.3298 -0.2507
 8901WAT     H136310   3.294   1.699   5.439  2.3288 -1.5554 -0.0754
 8901WAT     H236311   3.279   1.569   5.481 -1.1139 -1.0597  0.5078
 8901WAT    EPW36312   3.263   1.646   5.487  0.3373  0.3247 -0.0772
 8902WAT      O36313   1.321   0.036   0.316 -0.1691  0.6360  0.3487
 8902WAT     H136314   1.404   0.030   0.340 -0.2511 -0.2697  0.4497
 8902WAT     H236315   1.280  -0.018   0.370 -0.3664 -1.4881 -1.7628
 8902WAT    EPW36316   1.327   0.027   0.328  0.4339 -0.1205  0.2855
 8903WAT      O36317   2.747   1.961   5.602 -0.1026 -0.1322  0.2885
 8903WAT     H136318   2.760   1.896   5.545  0.4566 -0.0730  0.3455
 8903WAT     H236319   2.672   1.996   5.576  0.4280  0.2653 -0.7692
 8903WAT    EPW36320   2.738   1.956   5.590 -0.1982 -0.1235  0.6470
 8904WAT      O36321   3.028   4.567   3.237  0.4772  0.2791  0.6562
 8904WAT     H136322   2.948   4.588   3.263 -0.1583 -0.7055 -0.4209
 8904WAT     H236323   3.023   4.482   3.218  1.6882  0.2714  0.2515
 8904WAT    EPW36324   3.015   4.558   3.238  0.5845  0.1171  0.1092
 8905WAT      O36325   0.166   1.886   1.002 -0.5723  0.3152 -0.0795
 8905WAT     H136326   0.093   1.839   1.007 -0.6589  0.5348  0.9235
 8905WAT     H236327   0.156   1.932   0.928  0.0736 -2.0977 -1.7666
 8905WAT    EPW36328   0.154   1.886   0.992 -0.1135 -0.1790 -0.2231
 8906WAT      O36329   3.364   6.861   1.748 -0.0334 -0.0769  0.1730
 8906WAT     H136330   3.280   6.853   1.770 -0.5682  0.1375 -1.6666
 8906WAT     H236331   3.362   6.877   1.662  1.9185 -0.7877 -0.0589
 8906WAT    EPW36332   3.351   6.862   1.739  0.8473 -0.5262  0.4368
 8907WAT      O36333   7.762   7.584   3.563  0.2169 -0.3282  0.2698
 8907WAT     H136334   7.705   7.600   3.628 -0.0243 -1.2288  0.2921
 8907WAT     H236335   7.831   7.633   3.585  1.1009 -2.3832  2.5061
 8907WAT    EPW36336   7.764   7.594   3.576 -0.8054 -0.0172  0.4644
 8908WAT      O36337   3.081   5.162   6.414 -0.1056 -0.1793  0.1887
 8908WAT     H136338   3.126   5.111   6.359  0.3543  0.0757  0.3227
 8908WAT     H236339   3.053   5.227   6.363 -0.1707 -0.2461  0.1401
 8908WAT    EPW36340   3.084   5.164   6.398  0.1560 -0.3081  0.8757
 8909WAT      O36341   0.654   6.329   3.647 -0.8909 -0.0598 -0.4091
 8909WAT     H136342   0.573   6.324   3.681 -1.4814 -0.1601 -1.7815
 8909WAT     H236343   0.668   6.248   3.617 -0.4199  0.0542 -0.5038
 8909WAT    EPW36344   0.644   6.316   3.648 -0.1270 -0.0094  0.0877
 8910WAT      O36345   7.624   4.369   2.700  0.2572  0.1439  0.8066
 8910WAT     H136346   7.686   4.425   2.675  1.0669 -0.5033  1.2850
 8910WAT     H236347   7.666   4.315   2.755  0.1752 -2.4041 -1.4224
 8910WAT    EPW36348   7.639   4.369   2.705 -0.1849  0.2834 -0.3540
 8911WAT      O36349   3.190   7.003   7.903 -0.0914  0.6708  0.0865
 8911WAT     H136350   3.199   7.070   7.958 -0.7767  0.3696  0.5734
 8911WAT     H236351   3.182   6.934   7.955 -0.1578  0.3064 -0.4021
 8911WAT    EPW36352   3.190   7.003   7.919 -0.1458 -0.0513  0.2149
 8912WAT      O36353   2.806   1.436   7.585 -0.4262 -0.5583  0.1438
 8912WAT     H136354   2.817   1.392   7.660 -2.2753 -0.8760  0.2948
 8912WAT     H236355   2.778   1.514   7.611 -1.2101 -0.7150 -0.1913
 8912WAT    EPW36356   2.803   1.441   7.600  0.3901  0.1782 -0.7328
 8913WAT      O36357   7.447   7.100   3.405 -0.0001 -0.4846 -0.4752
 8913WAT     H136358   7.457   7.076   3.488  0.4345 -0.4971 -0.5297
 8913WAT     H236359   7.437   7.186   3.409  0.5769 -0.4152 -0.4518
 8913WAT    EPW36360   7.447   7.109   3.418 -0.2354  0.2685 -0.3354
 8914WAT      O36361   2.347   5.808   7.902 -0.4362  0.0363 -0.1243
 8914WAT     H136362   2.270   5.849   7.894 -1.4048 -1.6455  0.1191
 8914WAT     H236363   2.352   5.789   7.987  0.8570  1.1646  0.0950
 8914WAT    EPW36364   2.336   5.811   7.913  0.2747 -0.4205  0.0844
 8915WAT      O36365   1.989   2.411   2.803 -0.6823 -0.5718 -0.1201
 8915WAT     H136366   2.024   2.332   2.797  0.4353 -0.0601 -0.5568
 8915WAT     H236367   1.925   2.410   2.744  0.0258 -0.8075 -0.8964
 8915WAT    EPW36368   1.985   2.399   2.793  0.1455 -0.3794  0.0391
 8916WAT      O36369   4.363   5.288   1.361  0.9044  0.4011 -0.5222
 8916WAT     H136370   4.428   5.323   1.408  0.8419  0.0414 -0.1642
 8916WAT     H236371   4.386   5.204   1.355 -0.7241 -0.3010  1.6870
 8916WAT    EPW36372   4.376   5.281   1.367 -0.2475 -0.0397 -0.2100
 8917WAT      O36373   4.707   7.389   4.090  0.0424 -0.0421 -0.1351
 8917WAT     H136374   4.702   7.452   4.150 -2.4868 -0.1731 -0.0869
 8917WAT     H236375   4.623   7.369   4.075  0.7049 -2.0102 -1.6137
 8917WAT    EPW36376   4.694   7.395   4.097 -0.1036 -0.3264  0.1379
 8918WAT      O36377   3.341   6.591   6.075  0.4240 -0.3076 -0.2344
 8918WAT     H136378   3.359   6.577   6.160  2.0217 -0.9093 -0.6448
 8918WAT     H236379   3.278   6.652   6.078 -1.1895 -1.9276  1.4320
 8918WAT    EPW36380   3.334   6.598   6.088 -0.2096  0.3899  0.2405
 8919WAT      O36381   5.130   1.644   6.164  0.1631  0.3445  0.2846
 8919WAT     H136382   5.197   1.614   6.212  0.1476  1.8493  1.3127
 8919WAT     H236383   5.157   1.722   6.136 -0.6200  0.3548 -0.4974
 8919WAT    EPW36384   5.144   1.651   6.167  0.8431 -0.6394 -0.3692
 8920WAT      O36385   1.295   5.011   8.012 -0.0572  0.5652 -0.5800
 8920WAT     H136386   1.301   4.980   8.094 -0.1906  1.1003 -0.3643
 8920WAT     H236387   1.222   5.059   8.014 -0.4685 -0.0061 -1.2115
 8920WAT    EPW36388   1.285   5.013   8.025 -0.3736 -0.9341  0.5582
 8921WAT      O36389   2.722   0.800   5.079 -0.3206 -0.5102 -0.3108
 8921WAT     H136390   2.638   0.784   5.064 -0.0078 -0.4837 -2.4095
 8921WAT     H236391   2.720   0.851   5.150 -1.8205 -2.9350  1.5511
 8921WAT    EPW36392   2.709   0.805   5.087 -0.2806  0.2260  0.5795
 8922WAT      O36393   1.475   5.470   7.867  0.6417 -0.5992  0.6139
 8922WAT     H136394   1.540   5.521   7.839 -1.1744  0.9661 -1.0147
 8922WAT     H236395   1.482   5.399   7.816 -0.0006  0.3745 -0.9114
 8922WAT    EPW36396   1.486   5.467   7.855 -0.4732 -0.6536 -0.0631
 8923WAT      O36397   3.318   5.942   5.205 -0.4688  0.3026 -0.2682
 8923WAT     H136398   3.289   6.003   5.261  0.9013  0.3071  0.4962
 8923WAT     H236399   3.276   5.870   5.229 -0.5233  0.4942  0.2299
 8923WAT    EPW36400   3.307   5.941   5.217  0.1382 -0.0705  0.2616
 8924WAT      O36401   4.127   7.310   7.401  0.7136 -0.0713 -0.4318
 8924WAT     H136402   4.045   7.335   7.384  0.9008  0.6327 -0.3411
 8924WAT     H236403   4.117   7.231   7.437 -0.0004  0.4111  0.4707
 8924WAT    EPW36404   4.113   7.302   7.404  0.4793  1.0534 -0.0601
 8925WAT      O36405   0.849   6.359   1.159 -0.0565 -0.3878 -0.5522
 8925WAT     H136406   0.920   6.405   1.182 -0.8444  1.0380 -0.8370
 8925WAT     H236407   0.815   6.406   1.094 -0.5905 -1.7137 -1.2585
 8925WAT    EPW36408   0.854   6.373   1.153 -0.7390  0.1521 -0.3223
 8926WAT      O36409   7.010   7.431   0.370 -0.0426 -0.2528  0.6703
 8926WAT     H136410   6.972   7.495   0.416  0.4747 -0.4907  1.4393
 8926WAT     H236411   7.031   7.470   0.294  2.1430  1.0993  1.8578
 8926WAT    EPW36412   7.007   7.446   0.365 -0.3079  0.1095 -0.1927
 8927WAT      O36413   1.160   0.185   4.743  0.2110  0.2663  0.0027
 8927WAT     H136414   1.171   0.254   4.796 -2.2318  0.7932 -0.0607
 8927WAT     H236415   1.074   0.177   4.738  0.4181 -2.0834 -0.9881
 8927WAT    EPW36416   1.149   0.194   4.750 -0.1313 -0.8446  0.3102
 8928WAT      O36417   0.062   0.713   3.669  0.2386  0.2168 -0.4487
 8928WAT     H136418   0.049   0.652   3.608  0.1716 -1.0094  0.7433
 8928WAT     H236419   0.123   0.678   3.720 -0.4723  0.7422  0.7899
 8928WAT    EPW36420   0.069   0.699   3.667  0.1016  0.1940 -0.2607
 8929WAT      O36421   1.487   7.044   1.763 -0.1568 -0.1946  0.0192
 8929WAT     H136422   1.533   7.077   1.697  0.6897 -0.4450  0.4716
 8929WAT     H236423   1.410   7.025   1.727  0.0726  0.2751 -0.7369
 8929WAT    EPW36424   1.482   7.046   1.748  0.0141  0.4059  0.3137
 8930WAT      O36425   0.487   0.053   5.072 -0.2069 -0.0358 -0.2665
 8930WAT     H136426   0.475   0.023   5.153  1.1903  0.2756  0.0982
 8930WAT     H236427   0.411   0.092   5.052  0.0673  1.7164  1.7311
 8930WAT    EPW36428   0.474   0.054   5.081 -0.2469  0.6587 -0.1413
 8931WAT      O36429   4.738   2.272   0.133 -0.3138 -0.1967  0.1248
 8931WAT     H136430   4.781   2.331   0.085  0.1368 -0.6290 -0.0121
 8931WAT     H236431   4.705   2.319   0.199  0.1199  0.1953  0.0663
 8931WAT    EPW36432   4.739   2.287   0.136 -0.4887 -0.1458 -0.1519
 8932WAT      O36433   1.319   3.592   0.551 -0.1073 -0.0648  0.2473
 8932WAT     H136434   1.246   3.584   0.505 -0.8832 -0.4333  1.4988
 8932WAT     H236435   1.304   3.661   0.602 -0.1400 -0.9437  1.4664
 8932WAT    EPW36436   1.306   3.601   0.552  0.1516  0.6074  0.3893
 8933WAT      O36437   0.976   6.722   0.395 -0.3274  0.0275 -0.6537
 8933WAT     H136438   1.035   6.677   0.350  0.3133 -0.2444  0.4304
 8933WAT     H236439   0.940   6.663   0.448  4.0526  1.2641  4.6233
 8933WAT    EPW36440   0.979   6.707   0.396 -0.3786 -0.2325 -0.3246
 8934WAT      O36441   4.056   0.648   1.938  0.4218 -0.5338  0.3947
 8934WAT     H136442   4.103   0.607   1.998  1.3453 -0.6781 -0.4090
 8934WAT     H236443   4.001   0.587   1.910  0.4965 -0.6740  0.5564
 8934WAT    EPW36444   4.054   0.633   1.943 -0.1196 -0.1096  0.5115
 8935WAT      O36445   4.990   5.092   0.104 -0.1141 -0.0063 -0.0436
 8935WAT     H136446   5.043   5.140   0.153 -0.1914  0.8592 -0.7731
 8935WAT     H236447   5.011   5.010   0.124 -1.1705  0.2506  2.5351
 8935WAT    EPW36448   5.001   5.087   0.114 -0.5344  0.3299 -0.0291
 8936WAT      O36449   5.262   0.686   1.434  0.1845  0.1799 -0.2042
 8936WAT     H136450   5.319   0.751   1.446  0.1381  0.5130 -1.6458
 8936WAT     H236451   5.310   0.614   1.441  0.1607  0.3092  1.8616
 8936WAT    EPW36452   5.277   0.685   1.437 -0.4310 -0.0527  0.2131
 8937WAT      O36453   1.833   7.164   7.398  0.0838 -0.6995 -0.4986
 8937WAT     H136454   1.746   7.167   7.405  0.2271 -0.4563  2.1468
 8937WAT     H236455   1.855   7.244   7.373 -0.4148 -0.6064 -0.6396
 8937WAT    EPW36456   1.824   7.176   7.395  0.1555 -0.0890 -0.8842
 8938WAT      O36457   7.809   2.334   2.535  0.1331  0.0801 -0.1870
 8938WAT     H136458   7.859   2.284   2.587 -0.5147  1.6418  2.0783
 8938WAT     H236459   7.868   2.383   2.492  0.6616 -0.5496 -0.1935
 8938WAT    EPW36460   7.825   2.334   2.536 -0.0553 -0.0455 -0.0740
 8939WAT      O36461   4.606   3.530   6.483  0.0886 -0.4242 -0.2105
 8939WAT     H136462   4.539   3.548   6.536 -0.4351 -0.7535 -0.7508
 8939WAT     H236463   4.569   3.488   6.416  0.5223  1.0291 -1.4337
 8939WAT    EPW36464   4.591   3.527   6.481 -0.5062  0.2965 -0.2450
 8940WAT      O36465   0.643   4.807   3.457 -0.4642  0.3065  0.1083
 8940WAT     H136466   0.687   4.732   3.445  1.1778  1.1311  0.7004
 8940WAT     H236467   0.664   4.830   3.538 -2.4327  0.5090  0.6099
 8940WAT    EPW36468   0.653   4.799   3.467  0.5441  0.5876 -0.4641
 8941WAT      O36469   0.807   1.402   4.551 -0.0084 -0.5853  0.4072
 8941WAT     H136470   0.742   1.354   4.518 -0.4040 -0.9008  1.6090
 8941WAT     H236471   0.811   1.376   4.634  1.2539 -0.1231  0.5036
 8941WAT    EPW36472   0.798   1.391   4.558 -0.3688 -0.1282 -0.1271
 8942WAT      O36473   1.370   1.589   1.855 -0.3023  0.0178 -0.0864
 8942WAT     H136474   1.310   1.652   1.850  0.4132  1.6757  5.6444
 8942WAT     H236475   1.329   1.525   1.897  0.8466 -0.5192  0.2423
 8942WAT    EPW36476   1.355   1.589   1.860 -0.2010  0.0731  0.0301
 8943WAT      O36477   4.703   7.271   1.918  0.0141  0.0437 -0.0427
 8943WAT     H136478   4.691   7.204   1.863 -0.5130 -0.4825  0.7090
 8943WAT     H236479   4.784   7.298   1.900 -0.2493  0.0786 -1.2927
 8943WAT    EPW36480   4.713   7.265   1.907  0.1848  0.0710 -0.1350
 8944WAT      O36481   1.461   2.091   1.650 -0.6413  0.7272  0.0408
 8944WAT     H136482   1.414   2.038   1.599 -0.2177 -0.0931  0.4866
 8944WAT     H236483   1.401   2.138   1.691 -1.0390  0.3938 -0.1496
 8944WAT    EPW36484   1.445   2.090   1.649  0.4909 -0.5561 -0.4150
 8945WAT      O36485   3.004   4.479   3.770 -0.0202 -0.2899 -0.0570
 8945WAT     H136486   3.090   4.488   3.757  0.0544 -1.3737 -0.4877
 8945WAT     H236487   2.970   4.554   3.742  0.9004  0.8486  1.6714
 8945WAT    EPW36488   3.012   4.491   3.764  0.1002 -0.1146  0.4666
 8946WAT      O36489   3.181   6.963   0.270  0.2287 -0.0386  0.0249
 8946WAT     H136490   3.174   6.933   0.189 -1.3545  1.4099 -0.4453
 8946WAT     H236491   3.147   6.900   0.319  0.5962 -0.6571 -0.5136
 8946WAT    EPW36492   3.175   6.949   0.265  0.2963 -0.0633 -0.1806
 8947WAT      O36493   3.028   4.569   7.569  0.4831 -0.7314  0.2062
 8947WAT     H136494   2.948   4.584   7.539  0.9701 -1.0852 -1.3271
 8947WAT     H236495   3.014   4.544   7.652 -0.9209 -0.1067  0.1890
 8947WAT    EPW36496   3.014   4.567   7.577 -0.4671 -0.6942 -0.0121
 8948WAT      O36497   1.111   1.849   8.034 -0.0327  0.2760  0.4031
 8948WAT     H136498   1.156   1.912   7.993 -0.3428  0.9652  1.0778
 8948WAT     H236499   1.059   1.816   7.972  0.9525 -0.1097 -0.2344
 8948WAT    EPW36500   1.110   1.854   8.019 -0.3854  0.4020  0.1135
 8949WAT      O36501   2.766   2.048   7.981  0.2129  0.4609 -0.5613
 8949WAT     H136502   2.750   1.963   7.985  2.0215  0.1286  1.4098
 8949WAT     H236503   2.688   2.085   7.996 -0.0998 -0.9126  1.6914
 8949WAT    EPW36504   2.752   2.041   7.984  0.2124  0.3061 -0.3789
 8950WAT      O36505   3.162   4.484   5.476  0.0982  0.2414 -0.2462
 8950WAT     H136506   3.178   4.540   5.411  0.9852  0.0532 -0.2031
 8950WAT     H236507   3.242   4.462   5.505 -0.2097 -1.2223 -0.4141
 8950WAT    EPW36508   3.177   4.489   5.471 -0.2967  0.1342 -0.6474
 8951WAT      O36509   6.666   6.449   1.255  0.2006 -0.0943 -0.6362
 8951WAT     H136510   6.624   6.486   1.188  1.6468 -0.4450 -1.7951
 8951WAT     H236511   6.729   6.507   1.274  1.9910 -1.5185 -1.9422
 8951WAT    EPW36512   6.669   6.463   1.248  0.1933  0.3746  0.2235
 8952WAT      O36513   2.394   0.849   1.682  0.2393 -0.2869 -0.0262
 8952WAT     H136514   2.481   0.842   1.687  0.4033 -0.2971 -2.1271
 8952WAT     H236515   2.367   0.808   1.754  1.9760  1.2962  1.6985
 8952WAT    EPW36516   2.403   0.842   1.693 -0.0716  0.7987 -0.5798
 8953WAT      O36517   0.693   6.888   0.705  0.4507 -0.2360 -0.0326
 8953WAT     H136518   0.702   6.826   0.644 -1.0759  0.2073 -0.7531
 8953WAT     H236519   0.720   6.960   0.665 -0.9756  0.1353 -0.3751
 8953WAT    EPW36520   0.698   6.889   0.690  0.4115 -0.0630  0.3067
 8954WAT      O36521   2.543   4.109   5.524  0.3589  0.0235  0.0749
 8954WAT     H136522   2.579   4.185   5.500  1.0124  0.2825  1.7684
 8954WAT     H236523   2.544   4.111   5.611 -0.6525 -1.4534  0.1666
 8954WAT    EPW36524   2.549   4.120   5.533 -0.5215 -0.1247  0.1139
 8955WAT      O36525   1.420   5.917   0.718  0.4923  0.5159 -0.1071
 8955WAT     H136526   1.425   5.888   0.636  0.6037 -0.1066  0.1115
 8955WAT     H236527   1.500   5.905   0.749  0.3155  0.2320  0.2543
 8955WAT    EPW36528   1.432   5.911   0.711  0.1802 -0.4125  0.1333
 8956WAT      O36529   1.431   6.258   2.595  0.1653  0.0833  0.2192
 8956WAT     H136530   1.459   6.217   2.668 -0.8214 -0.3929  0.3496
 8956WAT     H236531   1.469   6.213   2.531  1.1880  0.6161  0.4370
 8956WAT    EPW36532   1.441   6.245   2.597 -0.7208 -0.4105 -0.2527
 8957WAT      O36533   2.674   3.694   0.021  0.0074  0.5230  0.4945
 8957WAT     H136534   2.677   3.739   0.096 -2.0964  0.0182  0.9635
 8957WAT     H236535   2.654   3.613   0.047 -0.2035  0.2188 -0.5730
 8957WAT    EPW36536   2.671   3.689   0.036  0.1638 -0.1723 -0.3791
 8958WAT      O36537   5.646   1.393   4.454  0.0653  0.4134 -0.0408
 8958WAT     H136538   5.646   1.478   4.432 -0.3912  1.5298  3.6079
 8958WAT     H236539   5.729   1.378   4.477  0.0669 -0.0300 -0.3340
 8958WAT    EPW36540   5.659   1.403   4.454 -0.2330  0.2540 -0.3914
 8959WAT      O36541   4.193   5.985   4.119 -0.2965  0.0389 -0.2323
 8959WAT     H136542   4.160   5.906   4.132 -1.8398  0.2442 -2.4120
 8959WAT     H236543   4.137   6.037   4.163 -0.6931  0.0885 -0.7870
 8959WAT    EPW36544   4.180   5.981   4.128  0.3106 -0.3457  0.2261
 8960WAT      O36545   2.724   2.543   2.927  0.0075  0.0315  0.3273
 8960WAT     H136546   2.763   2.602   2.876 -0.9934  0.5116  0.0865
 8960WAT     H236547   2.657   2.515   2.878  1.3202 -2.4484 -0.1760
 8960WAT    EPW36548   2.720   2.548   2.912 -0.5785  0.3270 -0.8848
 8961WAT      O36549   1.860   0.889   1.131 -0.5095 -0.4473  0.0186
 8961WAT     H136550   1.815   0.964   1.135  0.7426  0.3520 -0.3084
 8961WAT     H236551   1.899   0.884   1.209  0.9247  0.2566 -0.6153
 8961WAT    EPW36552   1.859   0.899   1.143  0.2663 -0.2970 -0.4708
 8962WAT      O36553   2.162   5.449   7.540 -0.0557 -0.6738 -0.2594
 8962WAT     H136554   2.089   5.497   7.538  0.2938 -0.1364 -0.3702
 8962WAT     H236555   2.191   5.460   7.622 -0.0020 -0.7379 -0.2700
 8962WAT    EPW36556   2.155   5.458   7.552  0.0529  0.2556  0.4454
 8963WAT      O36557   2.047   7.508   0.885  0.1280 -0.1166  0.4470
 8963WAT     H136558   2.065   7.579   0.838 -0.7687  0.1330  0.4739
 8963WAT     H236559   2.094   7.445   0.847 -0.3831  0.1357 -0.6132
 8963WAT    EPW36560   2.057   7.509   0.873 -0.5207 -0.1910 -0.2906
 8964WAT      O36561   7.243   8.009   3.042  0.0711 -0.1979  0.2929
 8964WAT     H136562   7.227   8.058   3.112  1.9630  0.6492  0.2138
 8964WAT     H236563   7.329   7.995   3.046 -0.2237 -2.6044 -0.3197
 8964WAT    EPW36564   7.253   8.014   3.053  0.1284  0.1027  0.2849
 8965WAT      O36565   5.446   5.989   0.362 -0.7088 -0.2189  0.2071
 8965WAT     H136566   5.514   5.981   0.309 -0.6202  1.3175  0.0429
 8965WAT     H236567   5.468   5.942   0.432  0.2087 -0.2919 -0.1233
 8965WAT    EPW36568   5.459   5.981   0.365 -0.3895  0.3501  0.0763
 8966WAT      O36569   0.293   1.016   4.071  0.9468 -0.3741  0.1780
 8966WAT     H136570   0.264   1.078   4.124 -0.1944 -2.0690  1.6273
 8966WAT     H236571   0.237   1.019   4.003  1.1314  0.3921  0.0483
 8966WAT    EPW36572   0.280   1.025   4.069 -0.6938 -0.0446  0.6818
 8967WAT      O36573   2.898   5.454   3.062 -0.4962 -0.0251  0.0480
 8967WAT     H136574   2.884   5.502   2.991 -0.1140  2.3743  1.4799
 8967WAT     H236575   2.895   5.372   3.032  2.5031  0.8186 -3.3188
 8967WAT    EPW36576   2.896   5.449   3.047  0.1014 -0.5441 -0.1918
 8968WAT      O36577   5.116   1.738   3.201  0.4221 -0.0455  0.2973
 8968WAT     H136578   5.128   1.756   3.117 -1.1628  1.0296  0.2652
 8968WAT     H236579   5.102   1.651   3.202  2.3860 -0.4124 -0.2646
 8968WAT    EPW36580   5.115   1.728   3.189 -0.2182 -0.0883  0.2929
 8969WAT      O36581   1.918   0.593   3.405 -0.5709  0.7222 -0.2409
 8969WAT     H136582   1.908   0.595   3.492 -1.8198 -0.0987 -0.3350
 8969WAT     H236583   1.878   0.519   3.382  1.9096 -0.4169 -1.2667
 8969WAT    EPW36584   1.910   0.582   3.415  0.0498  0.3494 -0.3255
 8970WAT      O36585   4.510   1.544   1.303  0.2316 -0.0585  0.3460
 8970WAT     H136586   4.497   1.464   1.270  1.7856 -0.0033 -0.4856
 8970WAT     H236587   4.524   1.593   1.233 -1.3226  1.1340  0.7990
 8970WAT    EPW36588   4.510   1.539   1.288 -0.2542 -0.3683 -0.3956
 8971WAT      O36589   7.017   5.498   4.211  0.0997 -0.1919 -0.4317
 8971WAT     H136590   6.951   5.466   4.259  0.7426 -0.4223  0.3112
 8971WAT     H236591   7.018   5.583   4.234  2.2188 -0.8049  2.2240
 8971WAT    EPW36592   7.007   5.506   4.222  0.4738 -0.1803  0.2804
 8972WAT      O36593   7.028   2.394   2.215  0.0417  0.2773  0.2425
 8972WAT     H136594   7.090   2.456   2.217 -0.3161  0.7204 -1.4543
 8972WAT     H236595   7.012   2.383   2.130 -0.9403 -1.1306  0.5721
 8972WAT    EPW36596   7.035   2.401   2.203  0.3778  0.0770  0.0893
 8973WAT      O36597   1.036   5.894   2.373 -0.3833  0.6857 -0.4535
 8973WAT     H136598   1.102   5.922   2.423  0.5423  0.2358 -1.3934
 8973WAT     H236599   1.010   5.967   2.331  1.9810  0.3336 -2.8441
 8973WAT    EPW36600   1.042   5.909   2.374 -0.0239 -0.0077 -0.6517
 8974WAT      O36601   4.193   2.107   3.161  0.8194 -0.0815  0.1930
 8974WAT     H136602   4.272   2.081   3.135  1.9813  1.5926  1.7837
 8974WAT     H236603   4.199   2.194   3.159 -1.4045  0.1140 -0.7484
 8974WAT    EPW36604   4.205   2.116   3.156  0.1445 -0.3445 -0.1574
 8975WAT      O36605   2.484   7.883   5.281  0.0654 -0.0705  0.0527
 8975WAT     H136606   2.479   7.890   5.194  1.0465  0.5041  0.0259
 8975WAT     H236607   2.435   7.950   5.309 -0.5585 -0.4783 -0.0425
 8975WAT    EPW36608   2.476   7.894   5.272  0.8341  0.0754  0.0126
 8976WAT      O36609   3.259   6.163   6.474 -0.4063 -0.0047 -0.0380
 8976WAT     H136610   3.277   6.095   6.525  1.9896 -0.2858 -1.0931
 8976WAT     H236611   3.221   6.126   6.404 -1.5525  0.1052  0.5051
 8976WAT    EPW36612   3.256   6.148   6.471 -0.0903  0.2704 -0.4259
 8977WAT      O36613   3.775   5.880   3.593 -0.4501  0.4250  0.0646
 8977WAT     H136614   3.773   5.810   3.541 -0.2495  0.9093 -0.6143
 8977WAT     H236615   3.821   5.854   3.662  2.4620  0.7978 -1.5676
 8977WAT    EPW36616   3.781   5.866   3.596  0.1026 -0.0788 -0.3471
 8978WAT      O36617   0.188   0.397   0.482  0.1228 -0.5152  0.3712
 8978WAT     H136618   0.263   0.413   0.439  0.5602 -1.2707  0.8346
 8978WAT     H236619   0.165   0.475   0.513  0.6109 -0.2390  0.0518
 8978WAT    EPW36620   0.196   0.411   0.480  0.6318 -0.2342  0.4240
 8979WAT      O36621   3.435   0.349   1.862  0.9235  1.2130  0.4475
 8979WAT     H136622   3.492   0.415   1.861  0.6609  1.5193 -2.0992
 8979WAT     H236623   3.358   0.390   1.853  0.5351  0.6672  1.2372
 8979WAT    EPW36624   3.432   0.365   1.861 -0.4535 -0.2516 -0.6166
 8980WAT      O36625   1.218   1.038   7.721  0.5119 -0.4427 -0.3943
 8980WAT     H136626   1.185   1.052   7.641  2.1624 -2.6478 -1.5638
 8980WAT     H236627   1.301   1.063   7.714  0.7784 -1.0246  0.5118
 8980WAT    EPW36628   1.225   1.044   7.708  0.6286 -0.0767  0.3666
 8981WAT      O36629   3.999   4.870   0.096 -0.3119 -0.9084 -0.0244
 8981WAT     H136630   4.070   4.918   0.078 -1.0636  0.2440  0.0040
 8981WAT     H236631   4.008   4.800   0.044  0.0644 -0.0422 -1.1537
 8981WAT    EPW36632   4.011   4.866   0.085 -0.1848 -0.4399  0.7449
 8982WAT      O36633   1.254   3.818   2.130  0.0506  0.9966 -0.8615
 8982WAT     H136634   1.207   3.781   2.193 -0.4638  1.3555 -1.0335
 8982WAT     H236635   1.279   3.751   2.081 -0.0911  0.7847 -0.6446
 8982WAT    EPW36636   1.251   3.803   2.132  0.3544  0.3180 -0.3775
 8983WAT      O36637   6.996   4.714   3.399  0.4537  0.2242 -0.3773
 8983WAT     H136638   7.069   4.668   3.385  0.0659 -0.6219  0.3172
 8983WAT     H236639   6.980   4.751   3.322  0.7724 -0.8001 -0.9498
 8983WAT    EPW36640   7.005   4.713   3.386 -0.0966 -0.1177 -0.7226
 8984WAT      O36641   1.683   1.958   7.610 -0.1865  0.0502 -0.0321
 8984WAT     H136642   1.627   1.898   7.582  2.4159 -2.3800 -0.5938
 8984WAT     H236643   1.657   2.032   7.572 -1.8582 -1.3459 -1.7474
 8984WAT    EPW36644   1.671   1.960   7.600  0.0682 -0.4274 -0.2138
 8985WAT      O36645   2.632   3.900   0.656 -0.9006 -0.0724  0.1140
 8985WAT     H136646   2.638   3.986   0.640 -0.0760 -0.6150 -3.2847
 8985WAT     H236647   2.711   3.880   0.687 -1.0886  0.3513  0.9033
 8985WAT    EPW36648   2.644   3.910   0.658  0.0060 -0.2378 -0.7756
 8986WAT      O36649   2.444   0.518   5.442 -0.4213  0.1970  1.0261
 8986WAT     H136650   2.409   0.440   5.464  0.0803 -0.5211 -0.5563
 8986WAT     H236651   2.492   0.539   5.512  0.7812 -1.7585  0.8754
 8986WAT    EPW36652   2.446   0.509   5.456  0.1936  0.3239  0.6809
 8987WAT      O36653   2.991   0.822   0.137  0.1852 -0.3274  0.3522
 8987WAT     H136654   3.077   0.809   0.125 -0.0571 -0.6183 -1.3245
 8987WAT     H236655   2.959   0.823   0.056 -1.1889  1.3664  0.8481
 8987WAT    EPW36656   2.999   0.820   0.123 -0.1488 -0.1527  0.2101
 8988WAT      O36657   7.620   7.597   0.433  0.4073 -0.0720  0.2819
 8988WAT     H136658   7.620   7.670   0.387 -0.6313 -1.2911 -1.8087
 8988WAT     H236659   7.704   7.584   0.453  0.7190  1.1688 -0.1577
 8988WAT    EPW36660   7.632   7.606   0.429  0.6398 -0.1128 -0.3240
 8989WAT      O36661   6.053   7.951   3.098 -0.6520  0.0076  0.1146
 8989WAT     H136662   6.108   8.018   3.094  1.4362 -1.6213 -0.1515
 8989WAT     H236663   5.974   7.988   3.090  0.3720  2.4429  0.5640
 8989WAT    EPW36664   6.049   7.966   3.096 -0.2682 -0.7536  0.2274
 8990WAT      O36665   3.236   2.740   5.661  0.1969 -0.3037  0.0795
 8990WAT     H136666   3.274   2.818   5.654 -0.2578 -0.0807  0.0378
 8990WAT     H236667   3.192   2.745   5.736  1.2489 -1.0086  0.7754
 8990WAT    EPW36668   3.235   2.752   5.671  0.1547  0.2039  0.3738
 8991WAT      O36669   1.127   0.961   1.907  0.2533 -0.5572  1.0451
 8991WAT     H136670   1.209   0.980   1.931  0.2886 -0.5035  0.8813
 8991WAT     H236671   1.084   1.036   1.921  0.2285 -0.5888  1.1423
 8991WAT    EPW36672   1.132   0.975   1.913  0.5363 -0.0322  0.2139
 8992WAT      O36673   0.572   4.728   1.128  0.2969 -0.5545 -0.3973
 8992WAT     H136674   0.552   4.798   1.175  1.7842 -1.6596  2.0363
 8992WAT     H236675   0.603   4.761   1.053  1.3053  1.3911  0.8154
 8992WAT    EPW36676   0.573   4.743   1.124  0.0676  0.6464  0.5613
 8993WAT      O36677   8.031   0.308   1.350 -0.1103 -0.5792  0.6086
 8993WAT     H136678   8.030   0.338   1.268  0.3061  1.3191  1.2435
 8993WAT     H236679   7.947   0.300   1.371 -0.2158 -1.0242  0.0069
 8993WAT    EPW36680   8.019   0.312   1.341 -0.1475  0.7300 -0.2249
 8994WAT      O36681   2.082   3.119   2.109 -0.5609  0.2299  0.5562
 8994WAT     H136682   2.150   3.163   2.141 -0.8276  1.0348  0.0351
 8994WAT     H236683   2.105   3.035   2.119  0.5434  0.4936  0.3087
 8994WAT    EPW36684   2.095   3.113   2.115 -0.3239 -0.1592 -0.3797
 8995WAT      O36685   6.031   4.338   7.550 -0.1198 -0.1238 -0.5496
 8995WAT     H136686   6.091   4.340   7.614 -1.0610 -1.2828  0.4120
 8995WAT     H236687   6.040   4.417   7.513  0.0089  0.8926  1.4566
 8995WAT    EPW36688   6.041   4.350   7.554  0.2711  0.4966 -0.1256
 8996WAT      O36689   5.699   0.511   0.497 -0.4642  0.4573  0.4958
 8996WAT     H136690   5.629   0.460   0.484  0.7335 -0.8119 -1.6981
 8996WAT     H236691   5.766   0.459   0.473  0.9522  2.5639 -0.3770
 8996WAT    EPW36692   5.699   0.496   0.492  0.2688  0.2202  0.0286
 8997WAT      O36693   7.259   7.102   0.117 -0.2841  0.0827 -0.5541
 8997WAT     H136694   7.195   7.156   0.094 -0.0983  0.0096 -1.2660
 8997WAT     H236695   7.289   7.072   0.041 -0.2357 -0.8511 -0.1813
 8997WAT    EPW36696   7.254   7.106   0.103 -0.2818 -0.3069  0.2851
 8998WAT      O36697   5.175   6.845   1.279 -0.2484 -0.1242 -0.1707
 8998WAT     H136698   5.141   6.805   1.349 -1.4339 -0.0725 -0.6912
 8998WAT     H236699   5.250   6.802   1.266 -0.5084 -0.8179  0.5119
 8998WAT    EPW36700   5.181   6.833   1.288 -0.4286 -0.3934  0.4650
 8999WAT      O36701   0.714   3.588   4.864 -0.2123  0.8343 -0.4165
 8999WAT     H136702   0.776   3.528   4.849  0.1350  0.1318  3.0280
 8999WAT     H236703   0.645   3.540   4.885 -1.0801  1.6590 -1.3211
 8999WAT    EPW36704   0.713   3.572   4.865  0.6435  0.3650  0.0491
 9000WAT      O36705   4.323   7.752   0.563 -0.5634  0.6426  0.4824
 9000WAT     H136706   4.404   7.721   0.568 -1.2671 -1.2907  1.1868
 9000WAT     H236707   4.284   7.719   0.634 -1.9271  1.6493  0.2525
 9000WAT    EPW36708   4.329   7.742   0.574  0.3793 -0.4892  0.1374
 9001WAT      O36709   3.795   4.672   7.829 -0.3908 -0.3050 -0.3955
 9001WAT     H136710   3.792   4.759   7.832 -0.8486 -0.2966 -1.0140
 9001WAT     H236711   3.799   4.655   7.744 -0.9101 -0.9127 -0.2987
 9001WAT    EPW36712   3.795   4.683   7.817  0.7783  0.2319  0.2085
 9002WAT      O36713   2.922   3.986   5.958  0.3307 -0.1037 -0.1706
 9002WAT     H136714   2.998   3.944   5.967  0.3306  0.1645  1.3558
 9002WAT     H236715   2.871   3.948   6.018  0.2257  1.7926  1.0197
 9002WAT    EPW36716   2.925   3.974   5.968 -0.2982 -0.5325 -0.7033
 9003WAT      O36717   1.749   4.799   1.968  0.7601  0.3137  0.0533
 9003WAT     H136718   1.751   4.830   2.050 -0.7023  1.0361 -0.1556
 9003WAT     H236719   1.748   4.712   1.980 -1.8609  0.3953  0.9534
 9003WAT    EPW36720   1.749   4.791   1.982 -0.5936  0.4734  0.6120
 9004WAT      O36721   0.582   7.590   2.904 -0.7399 -0.5312  0.2363
 9004WAT     H136722   0.537   7.590   2.979  0.9257 -2.5304  1.3445
 9004WAT     H236723   0.665   7.592   2.931 -0.0891  1.0599 -1.6705
 9004WAT    EPW36724   0.588   7.590   2.919  0.2549 -0.4395  0.5638
 9005WAT      O36725   7.480   6.728   0.787 -0.1369  0.4788  0.2225
 9005WAT     H136726   7.439   6.687   0.722  0.9769  0.9668 -0.8227
 9005WAT     H236727   7.455   6.683   0.858 -1.2709 -0.1483 -0.5366
 9005WAT    EPW36728   7.470   6.715   0.788 -0.0398  0.7858  0.0474
 9006WAT      O36729   2.095   6.141   5.202 -0.1108  0.1959  0.0098
 9006WAT     H136730   2.104   6.221   5.169  1.3561  0.5001  1.0595
 9006WAT     H236731   2.008   6.132   5.209 -0.4520  0.6245 -2.5488
 9006WAT    EPW36732   2.083   6.151   5.198 -0.3770 -0.4392 -1.1514
 9007WAT      O36733   4.047   5.869   2.109  0.5081 -0.3630 -0.2576
 9007WAT     H136734   4.042   5.956   2.115 -0.0117 -0.2823 -1.5495
 9007WAT     H236735   4.082   5.845   2.185  0.6575  0.9749  0.1168
 9007WAT    EPW36736   4.052   5.878   2.121 -0.1052 -0.3505  0.4309
 9008WAT      O36737   3.988   6.673   7.260 -1.0244  0.4523 -0.2916
 9008WAT     H136738   4.041   6.617   7.300 -2.1199 -0.6623 -0.3522
 9008WAT     H236739   4.039   6.710   7.200 -0.5328 -1.3526 -1.0555
 9008WAT    EPW36740   4.003   6.670   7.257  0.1957 -0.1541 -0.5791
 9009WAT      O36741   1.607   0.906   6.993  0.1796  0.1076 -0.2354
 9009WAT     H136742   1.581   0.988   6.983 -0.5056 -0.1610 -0.7717
 9009WAT     H236743   1.542   0.868   7.036  0.1353 -0.3285 -0.6704
 9009WAT    EPW36744   1.594   0.912   6.998 -0.1827  0.0460 -0.0060
 9010WAT      O36745   5.723   5.581   0.643 -0.1356 -0.0554  0.2184
 9010WAT     H136746   5.723   5.494   0.648  0.2191 -0.0095  1.5870
 9010WAT     H236747   5.769   5.605   0.713 -0.1092  1.2347 -0.2146
 9010WAT    EPW36748   5.730   5.572   0.654 -0.1870 -1.0937 -0.2963
 9011WAT      O36749   5.603   0.140   5.771  0.1719 -0.3296  0.0768
 9011WAT     H136750   5.602   0.101   5.692 -0.0461  0.4223 -0.2956
 9011WAT     H236751   5.688   0.142   5.791  0.4591  1.4439 -1.1442
 9011WAT    EPW36752   5.616   0.134   5.762  0.3964  0.4013 -0.2937
 9012WAT      O36753   2.813   4.221   2.326  0.2014 -0.0859  0.5785
 9012WAT     H136754   2.830   4.164   2.263 -0.5883 -0.3624  0.6148
 9012WAT     H236755   2.824   4.175   2.400 -0.0771 -0.0954  0.6150
 9012WAT    EPW36756   2.817   4.206   2.328  0.4898 -0.3348  0.3128
 9013WAT      O36757   0.076   2.750   1.755 -0.5291  0.6332 -0.3098
 9013WAT     H136758   0.050   2.789   1.681  0.4186 -0.4089 -1.2428
 9013WAT     H236759   0.004   2.710   1.783 -0.8524  0.8709 -0.7788
 9013WAT    EPW36760   0.061   2.750   1.748 -0.2603  0.2662 -0.3012
 9014WAT      O36761   7.615   6.641   4.407 -0.1417 -0.2095 -0.6297
 9014WAT     H136762   7.615   6.613   4.324  1.8657  0.3419 -0.8734
 9014WAT     H236763   7.693   6.680   4.415 -0.3057 -0.2204  1.5144
 9014WAT    EPW36764   7.627   6.643   4.396 -0.3210 -0.1759 -0.1625
 9015WAT      O36765   4.690   4.402   2.374 -0.1945 -0.2776  0.7223
 9015WAT     H136766   4.720   4.396   2.293 -0.8754 -0.2827  0.4679
 9015WAT     H236767   4.603   4.401   2.365 -0.2852  0.2024  1.4112
 9015WAT    EPW36768   4.682   4.401   2.361 -0.2746 -0.3224 -0.2990
 9016WAT      O36769   4.011   7.954   1.874  0.2523  0.2092 -0.1487
 9016WAT     H136770   4.078   7.902   1.896 -1.1779 -2.0068 -0.6660
 9016WAT     H236771   3.941   7.905   1.892 -1.1527  1.2579 -2.4034
 9016WAT    EPW36772   4.011   7.939   1.880  0.2275  0.2074  0.3412
 9017WAT      O36773   3.277   3.229   3.370  0.2772 -0.1133 -0.4669
 9017WAT     H136774   3.201   3.237   3.411  0.2416 -0.7905 -0.3851
 9017WAT     H236775   3.335   3.224   3.434  0.4813  1.1539 -0.5387
 9017WAT    EPW36776   3.274   3.229   3.385 -0.1327  0.6017  0.1803
 9018WAT      O36777   2.056   1.697   5.949 -0.0343 -0.0083  0.3150
 9018WAT     H136778   1.986   1.653   5.921  0.7437 -1.5110  0.6304
 9018WAT     H236779   2.122   1.643   5.933  1.1286  1.5037 -0.2585
 9018WAT    EPW36780   2.055   1.682   5.943 -0.1769 -0.5762  0.1946
 9019WAT      O36781   3.999   0.154   4.510  1.1031 -0.0560  0.1489
 9019WAT     H136782   4.063   0.113   4.468  1.1641  0.0213  0.1670
 9019WAT     H236783   3.941   0.172   4.447  0.9263 -0.4577  0.1934
 9019WAT    EPW36784   4.000   0.150   4.494 -0.2814  0.4726  0.4427
 9020WAT      O36785   3.200   4.942   2.305  0.0543  0.4573  0.0369
 9020WAT     H136786   3.189   4.993   2.235  0.4808  0.0083 -0.3664
 9020WAT     H236787   3.149   4.979   2.366 -0.1468  0.9809 -0.4411
 9020WAT    EPW36788   3.191   4.955   2.304 -0.3760 -0.0455 -0.3421
 9021WAT      O36789   4.816   7.203   7.761  0.0593  0.2338 -0.0005
 9021WAT     H136790   4.800   7.267   7.704  0.4781  1.2017  0.9262
 9021WAT     H236791   4.783   7.132   7.722  0.5263  0.8161 -1.5219
 9021WAT    EPW36792   4.808   7.202   7.747 -0.1296  0.9354 -0.5445
 9022WAT      O36793   1.345   6.194   0.559 -0.3610  0.0928 -0.2199
 9022WAT     H136794   1.277   6.249   0.565  0.6716  1.4230 -0.2736
 9022WAT     H236795   1.308   6.115   0.569 -1.8062  0.8156  0.5110
 9022WAT    EPW36796   1.329   6.190   0.561 -0.1608  0.4152  0.4230
 9023WAT      O36797   0.420   5.415   1.232 -0.2807 -0.2188  0.1638
 9023WAT     H136798   0.338   5.388   1.215 -0.9056  0.8357  1.3170
 9023WAT     H236799   0.453   5.349   1.279  0.2244 -1.5060 -1.8800
 9023WAT    EPW36800   0.413   5.401   1.237 -0.7319 -0.5272  0.3012
 9024WAT      O36801   0.754   0.350   7.783 -0.5782  0.1590 -0.8502
 9024WAT     H136802   0.807   0.396   7.731 -0.1431 -0.1496 -0.6844
 9024WAT     H236803   0.685   0.403   7.794  0.5741  1.4657  0.6279
 9024WAT    EPW36804   0.751   0.365   7.777 -0.0467 -0.7761  0.7289
 9025WAT      O36805   1.790   4.025   6.064 -0.4799  0.0988 -0.0592
 9025WAT     H136806   1.858   3.979   6.036 -1.0125  0.1451 -1.5050
 9025WAT     H236807   1.724   3.996   6.015 -2.1259 -1.8001  2.9923
 9025WAT    EPW36808   1.790   4.014   6.052 -0.5053 -0.4721  0.2351
 9026WAT      O36809   4.446   0.287   3.108  0.2776  0.4085 -0.2624
 9026WAT     H136810   4.425   0.208   3.077  1.6542 -0.7121  1.4610
 9026WAT     H236811   4.369   0.329   3.111 -0.8401 -1.5435  0.5191
 9026WAT    EPW36812   4.431   0.281   3.104 -0.3021 -0.2097  0.0112
 9027WAT      O36813   3.055   7.602   0.737  0.3592 -0.1570  0.4019
 9027WAT     H136814   3.040   7.685   0.717  1.8020  0.6700  2.4199
 9027WAT     H236815   3.116   7.578   0.679 -0.4435  0.0050 -0.5232
 9027WAT    EPW36816   3.062   7.610   0.725  0.0874  0.6323 -0.1279
 9028WAT      O36817   0.721   7.747   1.738 -0.1118 -0.0596 -0.2291
 9028WAT     H136818   0.786   7.802   1.760  1.8646 -2.2095 -0.2200
 9028WAT     H236819   0.691   7.720   1.815 -0.9169  0.7949 -0.2339
 9028WAT    EPW36820   0.726   7.751   1.753  0.4141  0.4210 -0.2291
 9029WAT      O36821   2.250   3.422   0.097  0.4500 -0.3467  0.1609
 9029WAT     H136822   2.285   3.405   0.019 -0.7909 -1.4065 -0.1835
 9029WAT     H236823   2.304   3.483   0.130  0.4949  0.8096 -1.8892
 9029WAT    EPW36824   2.263   3.429   0.091  0.0818 -0.6018 -0.2493
 9030WAT      O36825   3.162   6.005   7.760 -0.2184  0.2576 -0.3098
 9030WAT     H136826   3.127   5.971   7.688  0.7434  1.3596 -1.3497
 9030WAT     H236827   3.093   6.036   7.804 -0.8731 -0.9943 -0.4347
 9030WAT    EPW36828   3.147   6.005   7.756  0.2570  0.0085 -0.5130
 9031WAT      O36829   8.049   3.744   1.204 -0.1454 -0.4642  0.1663
 9031WAT     H136830   8.018   3.757   1.284 -0.7426  2.5566 -0.4067
 9031WAT     H236831   8.027   3.818   1.162 -1.1507 -2.4723 -3.2146
 9031WAT    EPW36832   8.041   3.757   1.209 -0.6224  0.0322 -0.2742
 9032WAT      O36833   6.228   4.279   7.743 -0.0302 -0.4632 -0.3835
 9032WAT     H136834   6.266   4.201   7.751  0.8212 -0.3512 -2.5529
 9032WAT     H236835   6.243   4.318   7.819  0.9758 -1.8066  0.1340
 9032WAT    EPW36836   6.236   4.273   7.755  0.2298  0.0864  0.2845
 9033WAT      O36837   3.687   0.354   0.025  0.6149  0.0165 -0.5008
 9033WAT     H136838   3.669   0.408   0.091 -0.2736 -0.3525 -0.4303
 9033WAT     H236839   3.693   0.407  -0.044  0.8248  0.3249 -0.2480
 9033WAT    EPW36840   3.685   0.370   0.025 -0.1209 -0.0898  0.2209
 9034WAT      O36841   2.120   6.578   0.694 -0.1295 -0.2126  0.3235
 9034WAT     H136842   2.075   6.504   0.687  0.7403 -0.9570  2.1112
 9034WAT     H236843   2.196   6.553   0.729 -0.2349  1.6259  2.0422
 9034WAT    EPW36844   2.125   6.564   0.698 -0.3207  0.0008 -0.2458
 9035WAT      O36845   1.634   7.876   2.578  0.1962 -0.1732 -0.1208
 9035WAT     H136846   1.712   7.872   2.617 -0.7795 -0.2841  1.9411
 9035WAT     H236847   1.579   7.855   2.642 -1.4809 -0.8501 -1.7322
 9035WAT    EPW36848   1.638   7.872   2.593  0.3611 -0.3590 -0.1290
 9036WAT      O36849   0.574   0.157   1.315 -0.3949  0.2557  0.5092
 9036WAT     H136850   0.601   0.167   1.233  1.1877  0.5099  1.0407
 9036WAT     H236851   0.558   0.071   1.322  0.0089  0.1478  0.1016
 9036WAT    EPW36852   0.575   0.146   1.304 -0.0594  0.0458  0.2842
 9037WAT      O36853   5.494   3.619   6.570  0.1825  0.1702 -0.0683
 9037WAT     H136854   5.410   3.642   6.573  0.7008  2.2849  3.0623
 9037WAT     H236855   5.533   3.686   6.531  0.4309 -1.1707 -2.2913
 9037WAT    EPW36856   5.488   3.632   6.565  0.4266 -0.0404 -1.1333
 9038WAT      O36857   0.471   0.360   1.992 -0.3022 -0.0224 -0.6141
 9038WAT     H136858   0.394   0.400   1.996 -0.8665 -1.1450  0.7480
 9038WAT     H236859   0.494   0.351   2.076  1.1705 -0.0043 -0.9789
 9038WAT    EPW36860   0.463   0.364   2.005  0.1007  0.6415 -0.4321
 9039WAT      O36861   7.292   4.912   2.977  0.3145 -0.3910  0.1934
 9039WAT     H136862   7.352   4.950   2.926  0.2949 -0.2647  0.2641
 9039WAT     H236863   7.221   4.907   2.925  0.4845 -0.8408  0.0029
 9039WAT    EPW36864   7.290   4.917   2.962 -0.0684 -0.1962  0.5603
 9040WAT      O36865   3.315   4.495   6.435  0.1143 -0.4300 -0.2716
 9040WAT     H136866   3.399   4.503   6.458 -0.2023 -1.2848  1.3025
 9040WAT     H236867   3.277   4.565   6.473  0.0542 -0.2426 -0.6755
 9040WAT    EPW36868   3.322   4.507   6.444 -0.0128 -0.1758 -0.0184
 9041WAT      O36869   7.015   3.771   1.523  0.1469 -0.0663 -0.2262
 9041WAT     H136870   7.065   3.793   1.591 -0.2411 -0.1594  0.0914
 9041WAT     H236871   7.065   3.714   1.479  0.1245 -0.5428  0.3607
 9041WAT    EPW36872   7.030   3.766   1.527  0.5630  0.2578 -0.0916
 9042WAT      O36873   1.636   7.336   7.605  0.1772  0.2548  0.2612
 9042WAT     H136874   1.619   7.263   7.650 -0.8300  0.0997 -0.3365
 9042WAT     H236875   1.711   7.364   7.639  1.1212 -1.6035 -0.1655
 9042WAT    EPW36876   1.645   7.330   7.617 -0.0974 -0.5033 -0.2442
 9043WAT      O36877   1.696   4.150   4.504 -0.1750  0.0465 -0.4847
 9043WAT     H136878   1.616   4.116   4.502  0.4234 -1.7743  1.8887
 9043WAT     H236879   1.681   4.236   4.495 -2.5092 -0.1221  0.8086
 9043WAT    EPW36880   1.682   4.158   4.503 -0.2125  0.5138  0.0025
 9044WAT      O36881   0.904   5.600   2.133  0.3860  0.3476 -0.5141
 9044WAT     H136882   0.958   5.544   2.094  1.7039  1.0046  0.3061
 9044WAT     H236883   0.930   5.678   2.103 -0.6968  0.6212 -0.7840
 9044WAT    EPW36884   0.916   5.603   2.123  0.4213 -0.1404  0.9598
 9045WAT      O36885   2.798   3.600   2.046  0.2521 -0.3653  0.0785
 9045WAT     H136886   2.848   3.551   1.995 -0.3884 -1.4140  0.4218
 9045WAT     H236887   2.832   3.588   2.126  0.2463 -0.0512  0.1290
 9045WAT    EPW36888   2.810   3.591   2.050  0.7755 -0.6724  0.1605
 9046WAT      O36889   3.580   6.945   4.840 -0.8139  0.1538  0.3088
 9046WAT     H136890   3.566   6.964   4.923  0.4264  1.5646  0.2325
 9046WAT     H236891   3.582   6.858   4.839  0.7404  0.1231  2.0428
 9046WAT    EPW36892   3.578   6.935   4.852 -0.2400 -0.3320 -0.1040
 9047WAT      O36893   1.480   2.532   0.457  0.8926  0.0977 -0.8398
 9047WAT     H136894   1.455   2.448   0.460  0.4254  0.2536  0.9209
 9047WAT     H236895   1.471   2.553   0.373 -2.2513 -0.6783 -0.8392
 9047WAT    EPW36896   1.475   2.523   0.445  0.0434  0.1268 -0.0962
 9048WAT      O36897   5.477   7.237   6.753  0.0774  0.3011 -0.0102
 9048WAT     H136898   5.551   7.280   6.740 -0.4134  1.2008  0.1376
 9048WAT     H236899   5.435   7.284   6.814 -0.5849 -0.2252 -0.0423
 9048WAT    EPW36900   5.482   7.250   6.760 -0.1289 -0.1503  0.1583
 9049WAT      O36901   3.278   6.421   7.975  0.1928  0.8163 -0.1001
 9049WAT     H136902   3.208   6.461   8.008 -1.3738 -0.5166 -1.5834
 9049WAT     H236903   3.295   6.466   7.902 -0.6255 -0.1935 -0.9589
 9049WAT    EPW36904   3.270   6.433   7.969 -0.3514  0.0286  0.1837
 9050WAT      O36905   7.748   3.148   3.840 -0.0689 -0.1420 -0.5828
 9050WAT     H136906   7.799   3.205   3.798 -0.0346  1.4274  1.4069
 9050WAT     H236907   7.674   3.193   3.853  0.2281 -0.2024  1.7131
 9050WAT    EPW36908   7.745   3.163   3.836  0.1305  0.1142  0.5868
 9051WAT      O36909   7.010   7.430   0.872  0.0833 -0.3418  0.1317
 9051WAT     H136910   7.025   7.391   0.949  0.1587  0.6066  0.6194
 9051WAT     H236911   7.091   7.444   0.841  0.1971  1.5534  1.0961
 9051WAT    EPW36912   7.024   7.426   0.879  0.8239  0.4561  0.0675
 9052WAT      O36913   2.132   6.284   0.674  0.1689  0.1426 -0.2079
 9052WAT     H136914   2.058   6.280   0.720  0.9394  2.1075  1.3658
 9052WAT     H236915   2.193   6.263   0.732  0.9462 -0.5974 -1.2545
 9052WAT    EPW36916   2.130   6.280   0.690 -0.2525  0.3210 -0.0743
 9053WAT      O36917   4.920   1.968   6.590  0.2768 -0.3313  0.3770
 9053WAT     H136918   4.978   1.991   6.651  0.8357 -1.3548  0.2551
 9053WAT     H236919   4.943   2.016   6.521 -0.8895  1.4746  1.1839
 9053WAT    EPW36920   4.932   1.979   6.588  0.3145  0.0229 -0.2773
 9054WAT      O36921   4.128   6.834   7.654 -0.6424 -0.4705  0.7163
 9054WAT     H136922   4.200   6.832   7.702 -0.6643  1.2008  0.8708
 9054WAT     H236923   4.064   6.845   7.713 -0.6935  1.3219  0.3651
 9054WAT    EPW36924   4.129   6.835   7.670 -0.1248 -0.1031 -0.0201
 9055WAT      O36925   4.129   0.152   1.154  0.1225  0.6385 -0.0434
 9055WAT     H136926   4.194   0.099   1.178  0.1726  1.2609  1.2813
 9055WAT     H236927   4.059   0.099   1.153  0.1547  0.5371  1.3681
 9055WAT    EPW36928   4.128   0.136   1.157 -0.1857  0.2420  0.7649
 9056WAT      O36929   0.837   5.627   0.359  0.1024  0.0030 -0.3110
 9056WAT     H136930   0.912   5.652   0.323 -0.7977  2.9379 -0.4378
 9056WAT     H236931   0.842   5.658   0.441 -1.1491  0.7966 -0.4939
 9056WAT    EPW36932   0.848   5.635   0.366  0.1085 -0.6276  0.1010
 9057WAT      O36933   3.713   1.218   5.329 -0.2894  0.2892  0.3597
 9057WAT     H136934   3.627   1.226   5.336 -0.1482  1.7212  0.6408
 9057WAT     H236935   3.741   1.228   5.412  0.2429  1.3549  0.0646
 9057WAT    EPW36936   3.704   1.221   5.343  0.2439  0.7813  0.0117
 9058WAT      O36937   4.854   1.945   1.594 -0.2453 -0.5003  0.4042
 9058WAT     H136938   4.824   2.020   1.562  2.4328  1.4025  1.9014
 9058WAT     H236939   4.930   1.934   1.553  0.0565 -1.6477  1.2048
 9058WAT    EPW36940   4.861   1.954   1.583 -0.2027 -0.4140 -0.2934
 9059WAT      O36941   3.730   5.461   0.929  0.1244  0.2314  0.6331
 9059WAT     H136942   3.692   5.383   0.937 -0.2256  0.1783 -1.1443
 9059WAT     H236943   3.682   5.501   0.869  0.9600  1.4117  0.7176
 9059WAT    EPW36944   3.718   5.455   0.922  0.6720  0.5801  0.0263
 9060WAT      O36945   2.890   6.994   6.837 -0.1097 -0.3428 -0.3549
 9060WAT     H136946   2.875   6.994   6.751 -0.5065 -0.1932 -0.2904
 9060WAT     H236947   2.862   7.073   6.862  1.1865  0.1083 -0.2806
 9060WAT    EPW36948   2.884   7.006   6.828  0.1600  0.3915  0.1909
 9061WAT      O36949   2.261   2.118   2.085  0.3502 -0.1354 -0.4106
 9061WAT     H136950   2.209   2.096   2.151  1.1289  0.5333  0.4557
 9061WAT     H236951   2.297   2.042   2.061 -0.6638 -0.5336 -0.7294
 9061WAT    EPW36952   2.259   2.103   2.091  0.0365 -0.3231 -0.2349
 9062WAT      O36953   3.398   7.779   2.713  0.0875 -0.9052  0.5223
 9062WAT     H136954   3.310   7.780   2.714  0.0144 -0.0908 -1.5081
 9062WAT     H236955   3.419   7.860   2.739 -0.0036  0.4136 -2.9454
 9062WAT    EPW36956   3.388   7.791   2.717 -0.1548 -0.0502 -0.1289
 9063WAT      O36957   4.832   2.307   0.907  0.3542  0.0110 -0.3854
 9063WAT     H136958   4.758   2.299   0.862 -0.1922  0.6881  0.3718
 9063WAT     H236959   4.810   2.284   0.988  0.8100  0.8460 -0.0163
 9063WAT    EPW36960   4.818   2.302   0.912 -0.5248 -0.5034  0.1755
 9064WAT      O36961   4.965   5.492   7.372  0.5732  0.1410 -0.4925
 9064WAT     H136962   4.957   5.488   7.285  0.1291  1.3132 -0.5218
 9064WAT     H236963   4.968   5.577   7.388 -0.7534 -0.0035  0.7614
 9064WAT    EPW36964   4.964   5.504   7.362 -0.4227 -0.0934  0.0155
 9065WAT      O36965   6.299   1.824   1.987  0.3938  0.1533  0.6409
 9065WAT     H136966   6.271   1.843   1.907 -1.6042 -0.4602  1.1333
 9065WAT     H236967   6.367   1.878   1.999  0.5324  0.4665 -1.3216
 9065WAT    EPW36968   6.305   1.835   1.977  0.5304  0.1128  0.1457
 9066WAT      O36969   2.371   7.383   2.487 -0.5120  0.2441 -0.2265
 9066WAT     H136970   2.414   7.448   2.449 -1.3172  0.9459  0.0469
 9066WAT     H236971   2.435   7.335   2.523  0.2982 -0.5945 -2.6111
 9066WAT    EPW36972   2.387   7.385   2.487 -0.0774 -0.0960  0.7214
 9067WAT      O36973   3.476   2.310   5.219 -0.0341 -0.2906  0.2292
 9067WAT     H136974   3.462   2.363   5.287 -0.0009  1.4369 -1.0488
 9067WAT     H236975   3.473   2.363   5.150  3.8483 -1.1520 -0.8970
 9067WAT    EPW36976   3.474   2.325   5.219 -0.0217 -0.2381 -0.0688
 9068WAT      O36977   0.471   6.491   1.317  0.3722 -0.6584  0.6431
 9068WAT     H136978   0.510   6.566   1.295  1.4907 -1.7685 -1.4554
 9068WAT     H236979   0.534   6.446   1.357  0.7955 -1.7623 -1.1590
 9068WAT    EPW36980   0.486   6.495   1.319  0.9049  0.3353 -0.0074
 9069WAT      O36981   4.303   4.686   0.088  0.5057 -0.0506 -0.3090
 9069WAT     H136982   4.275   4.766   0.069 -0.1883 -0.7728 -2.5958
 9069WAT     H236983   4.357   4.699   0.155  1.1982  2.4406 -1.2404
 9069WAT    EPW36984   4.307   4.699   0.095  0.0284 -0.7691  0.0647
 9070WAT      O36985   5.022   6.405   0.580  0.0737  0.4762  0.7490
 9070WAT     H136986   4.980   6.384   0.507 -0.6665 -0.2915  1.3739
 9070WAT     H236987   5.071   6.474   0.557 -1.5070  1.4022 -0.0056
 9070WAT    EPW36988   5.023   6.412   0.566  0.2053  0.0089 -0.8302
 9071WAT      O36989   4.981   1.457   5.998  0.4378  0.0085 -0.5198
 9071WAT     H136990   5.043   1.421   5.949  1.2882 -1.0382  1.2271
 9071WAT     H236991   5.021   1.523   6.037  0.3883 -0.4750  0.3760
 9071WAT    EPW36992   4.996   1.462   5.997 -0.4384  0.4626  0.2570
 9072WAT      O36993   1.344   0.927   8.060 -0.1478  0.3068 -0.2713
 9072WAT     H136994   1.335   0.887   7.983  0.1546 -0.3309  0.0191
 9072WAT     H236995   1.430   0.933   8.070 -0.1880  0.4436 -0.0041
 9072WAT    EPW36996   1.355   0.922   8.050  0.7543 -0.0621  0.1127
 9073WAT      O36997   5.238   7.850   4.046 -0.2899  0.1145  0.8318
 9073WAT     H136998   5.250   7.794   4.112 -0.6498  1.4719  2.1134
 9073WAT     H236999   5.296   7.913   4.062 -1.7132  1.4483  1.0458
 9073WAT    EPW37000   5.248   7.851   4.058  0.5768  0.3620 -0.2203
 9074WAT      O37001   3.380   4.081   0.803 -0.7972  0.3188  0.1018
 9074WAT     H137002   3.358   3.998   0.788  2.8209 -0.4505 -2.3653
 9074WAT     H237003   3.325   4.126   0.754 -2.2807 -0.6305  0.8183
 9074WAT    EPW37004   3.369   4.075   0.794 -0.2649 -0.5175  0.0689
 9075WAT      O37005   5.378   6.721   4.042  0.0328  0.1090  0.2576
 9075WAT     H137006   5.340   6.648   4.070  1.8523 -0.5337  1.2694
 9075WAT     H237007   5.314   6.779   4.040 -1.2860 -1.2851  0.2965
 9075WAT    EPW37008   5.363   6.719   4.046  0.2668 -0.0064  0.0692
 9076WAT      O37009   1.340   7.821   7.981 -0.1561  0.1664  0.2380
 9076WAT     H137010   1.264   7.812   8.023 -0.6367  0.3207 -0.5710
 9076WAT     H237011   1.378   7.743   7.990 -0.8532 -0.2291 -0.1890
 9076WAT    EPW37012   1.334   7.808   7.989  0.0719  0.1664 -0.3461
 9077WAT      O37013   6.231   1.952   0.393 -0.5270  0.2071 -0.4015
 9077WAT     H137014   6.203   1.996   0.463  2.7231  0.0379  1.2002
 9077WAT     H237015   6.172   1.971   0.331 -2.4242  2.0357  1.7929
 9077WAT    EPW37016   6.218   1.961   0.394  0.1412  0.2496 -0.4474
 9078WAT      O37017   8.065   5.382   0.688 -0.3638 -0.1897 -0.5863
 9078WAT     H137018   8.011   5.415   0.628 -0.8561 -0.7143 -0.4500
 9078WAT     H237019   8.092   5.306   0.653  1.0382  0.4970 -1.0531
 9078WAT    EPW37020   8.061   5.375   0.674 -0.0698 -0.2390  0.2876
 9079WAT      O37021   5.079   6.633   0.834 -0.2171 -0.6267 -0.2230
 9079WAT     H137022   5.063   6.646   0.919 -0.4253  0.5164 -0.4187
 9079WAT     H237023   5.001   6.643   0.796  0.1375  0.5795 -0.7086
 9079WAT    EPW37024   5.065   6.637   0.841 -0.0822  0.3131  0.5820
 9080WAT      O37025   1.445   4.255   2.172 -0.1136 -0.4552 -0.0991
 9080WAT     H137026   1.430   4.175   2.203  1.4369 -0.0470  1.9157
 9080WAT     H237027   1.515   4.244   2.121  0.2711 -0.3438  0.4026
 9080WAT    EPW37028   1.453   4.241   2.169  0.3770 -0.1602  0.5636
 9081WAT      O37029   1.508   0.384   0.986  0.3559  0.5610 -0.4998
 9081WAT     H137030   1.486   0.450   1.039  0.3851  1.7458 -1.8793
 9081WAT     H237031   1.592   0.400   0.968  0.4618 -0.0636 -0.5866
 9081WAT    EPW37032   1.517   0.396   0.991  0.1485 -0.5033  0.2089
 9082WAT      O37033   3.022   4.886   7.841  0.2282 -0.1008 -0.1852
 9082WAT     H137034   2.993   4.805   7.827 -1.0216  0.3373 -0.2912
 9082WAT     H237035   2.953   4.936   7.821  0.4077  0.9017  1.5199
 9082WAT    EPW37036   3.007   4.881   7.836  0.1107  0.2635  0.0100
 9083WAT      O37037   5.774   2.452   1.075 -0.2165  0.3872  0.6043
 9083WAT     H137038   5.737   2.531   1.072 -0.2265  0.3475 -0.6117
 9083WAT     H237039   5.717   2.405   1.122 -1.1289  0.6461 -0.2136
 9083WAT    EPW37040   5.760   2.456   1.082  0.1677  0.2614  0.2192
 9084WAT      O37041   4.145   6.572   7.497  0.1067 -0.0567 -0.2918
 9084WAT     H137042   4.151   6.644   7.547  1.2627  0.0819 -0.5939
 9084WAT     H237043   4.214   6.579   7.443 -0.0353 -1.1616 -0.6419
 9084WAT    EPW37044   4.156   6.584   7.496  0.1811 -0.6490 -0.2210
 9085WAT      O37045   2.643   5.200   5.432 -0.4692  0.4330 -0.0343
 9085WAT     H137046   2.685   5.124   5.439 -1.2298  0.0594  0.6781
 9085WAT     H237047   2.704   5.259   5.450  0.0652 -0.0231 -0.3194
 9085WAT    EPW37048   2.658   5.197   5.435  0.3724 -0.3135  0.6789
 9086WAT      O37049   5.407   5.930   6.970  0.4797 -0.3980 -0.7034
 9086WAT     H137050   5.483   5.936   7.012 -0.6125 -2.1395  1.7818
 9086WAT     H237051   5.356   5.886   7.026 -2.3332  0.5816 -2.2990
 9086WAT    EPW37052   5.410   5.924   6.984  0.0726 -0.2274  0.3100
 9087WAT      O37053   4.204   3.547   0.311  0.1093  0.3829 -0.0145
 9087WAT     H137054   4.170   3.496   0.249  0.8828 -0.0046 -0.1234
 9087WAT     H237055   4.134   3.590   0.342 -0.2530  0.7715 -1.3174
 9087WAT    EPW37056   4.188   3.546   0.307  0.2594  0.4011 -0.6391
 9088WAT      O37057   4.458   2.398   5.235 -0.3390  0.2731  0.7170
 9088WAT     H137058   4.371   2.402   5.227 -0.3089  1.0425  0.7595
 9088WAT     H237059   4.484   2.481   5.225  0.3866  0.0595  0.7728
 9088WAT    EPW37060   4.449   2.411   5.232 -1.3166  0.6216 -0.1287
 9089WAT      O37061   2.448   4.297   5.179  0.0847  0.0067 -0.0650
 9089WAT     H137062   2.520   4.307   5.131  0.0852 -0.7941 -0.2413
 9089WAT     H237063   2.410   4.227   5.145  1.2121 -2.0372  2.4555
 9089WAT    EPW37064   2.453   4.288   5.167  0.1867  0.3231  0.2760
 9090WAT      O37065   6.779   3.848   1.398  0.1039  0.2307  0.1089
 9090WAT     H137066   6.732   3.873   1.466 -0.4909  0.3652 -0.3463
 9090WAT     H237067   6.852   3.817   1.434 -0.5717 -0.5345  0.8617
 9090WAT    EPW37068   6.783   3.847   1.413 -0.4861 -0.5602  0.3922
 9091WAT      O37069   0.741   4.239   4.307 -0.2170 -0.4136  0.3129
 9091WAT     H137070   0.787   4.225   4.234 -0.5742 -0.9185  0.1718
 9091WAT     H237071   0.679   4.296   4.282  0.1234  0.0043  0.4176
 9091WAT    EPW37072   0.738   4.245   4.293 -0.7152 -0.6454 -0.2244
 9092WAT      O37073   6.971   1.111   4.206 -0.2403  0.3539 -0.4000
 9092WAT     H137074   7.032   1.056   4.235  0.7731  1.4252 -0.4225
 9092WAT     H237075   6.987   1.116   4.120  0.1175  1.1583 -0.3047
 9092WAT    EPW37076   6.982   1.104   4.197  0.0903  0.5482  0.2038
 9093WAT      O37077   1.732   3.351   1.572  0.0935  0.1571  0.2937
 9093WAT     H137078   1.657   3.380   1.539  0.4892 -0.4452 -1.1793
 9093WAT     H237079   1.786   3.419   1.563  0.5884 -0.4485 -1.6953
 9093WAT    EPW37080   1.729   3.365   1.566  0.5174 -0.0752 -0.1610
 9094WAT      O37081   3.237   6.567   2.624 -0.5828  0.7646 -0.3332
 9094WAT     H137082   3.230   6.554   2.710 -0.1135  2.5800  0.0268
 9094WAT     H237083   3.199   6.644   2.612 -0.4876  0.6165 -1.7353
 9094WAT    EPW37084   3.230   6.576   2.635  1.0047  0.6544  0.1929
 9095WAT      O37085   1.936   1.873   0.816 -0.1431  0.1758  0.1475
 9095WAT     H137086   1.879   1.910   0.871  0.6713  1.0680  0.4014
 9095WAT     H237087   1.939   1.790   0.842 -0.2876  0.4367  1.0031
 9095WAT    EPW37088   1.928   1.866   0.828  0.1739  0.0950 -0.4988
 9096WAT      O37089   2.683   2.988   7.057 -0.1661 -0.8477 -0.5070
 9096WAT     H137090   2.753   2.991   7.110 -0.3486 -1.1015 -0.2520
 9096WAT     H237091   2.638   2.920   7.086 -1.8270  0.7807  0.9516
 9096WAT    EPW37092   2.687   2.978   7.069  0.1384  0.7131 -0.5421
 9097WAT      O37093   4.001   7.812   7.118  0.1212  0.0973 -0.1071
 9097WAT     H137094   3.999   7.732   7.085 -0.1423  0.1663 -0.2547
 9097WAT     H237095   4.034   7.800   7.198  0.5184 -0.0988 -0.2931
 9097WAT    EPW37096   4.006   7.799   7.125  0.3352  0.4919 -0.0207
 9098WAT      O37097   3.303   3.819   8.011 -0.5677 -0.0425  0.0353
 9098WAT     H137098   3.233   3.783   7.974 -0.9169  1.9232 -1.3911
 9098WAT     H237099   3.322   3.886   7.958  1.3012  0.5663  1.3697
 9098WAT    EPW37100   3.295   3.824   7.998 -0.1882  0.9733 -0.0401
 9099WAT      O37101   8.011   5.745   1.112  0.0941 -0.1397  0.0894
 9099WAT     H137102   8.053   5.753   1.189  0.0177  0.6030  0.0630
 9099WAT     H237103   7.932   5.715   1.135 -0.0171  0.3312  0.3300
 9099WAT    EPW37104   8.006   5.742   1.127  0.1781  0.1170  0.6199
 9100WAT      O37105   6.296   6.891   4.272 -0.5882  0.4705  0.2064
 9100WAT     H137106   6.366   6.910   4.322  0.5055 -3.6214  0.5711
 9100WAT     H237107   6.235   6.868   4.331 -0.3882 -1.1698 -0.1897
 9100WAT    EPW37108   6.298   6.891   4.288 -0.2011 -0.0037  0.0849
 9101WAT      O37109   4.396   2.308   1.886 -0.2525  0.5553  0.1254
 9101WAT     H137110   4.312   2.290   1.868 -0.2140 -1.2675  1.5418
 9101WAT     H237111   4.422   2.241   1.935  1.7188  1.6733  0.7277
 9101WAT    EPW37112   4.387   2.296   1.890 -0.2045  0.0342  0.3934
 9102WAT      O37113   0.721   4.234   2.557  0.3230  0.3692 -0.6624
 9102WAT     H137114   0.765   4.302   2.525 -0.9557  0.9601 -1.2431
 9102WAT     H237115   0.729   4.173   2.495 -0.4865  0.8335 -1.2581
 9102WAT    EPW37116   0.728   4.235   2.543  0.5792 -0.2960 -0.0754
 9103WAT      O37117   7.639   3.274   2.788  0.3187  0.5981  0.0466
 9103WAT     H137118   7.661   3.336   2.731 -0.5160  0.7052 -0.1776
 9103WAT     H237119   7.638   3.201   2.739  1.5863  0.3428  0.3721
 9103WAT    EPW37120   7.642   3.272   2.772  0.4461 -0.0729 -0.1616
 9104WAT      O37121   3.579   7.653   4.891  0.3801  0.1071  0.0017
 9104WAT     H137122   3.576   7.741   4.890  0.8413  0.1284  0.2552
 9104WAT     H237123   3.496   7.630   4.899  0.3106  0.5361  0.5752
 9104WAT    EPW37124   3.567   7.663   4.892  0.1099  0.3001 -0.4498
 9105WAT      O37125   7.744   6.994   3.836  0.4088  0.3967 -0.3742
 9105WAT     H137126   7.669   7.019   3.800 -0.1119  0.1353  0.5234
 9105WAT     H237127   7.791   6.966   3.767  0.5500  2.6102 -1.2697
 9105WAT    EPW37128   7.740   6.994   3.820 -0.0245 -0.2840 -0.1065
 9106WAT      O37129   7.373   7.454   1.438 -0.0191  0.4584  0.4510
 9106WAT     H137130   7.422   7.458   1.510 -1.3105  0.6912  1.3675
 9106WAT     H237131   7.310   7.397   1.460 -0.9293  1.2075 -0.1592
 9106WAT    EPW37132   7.371   7.446   1.452 -0.2287  0.8933  0.3683
 9107WAT      O37133   8.059   5.782   3.899  1.2173  0.3674  0.9133
 9107WAT     H137134   8.064   5.863   3.867 -0.4530 -0.4497 -1.7343
 9107WAT     H237135   8.127   5.741   3.862  0.4725 -0.0812  0.0128
 9107WAT    EPW37136   8.070   5.788   3.889  0.0286  0.4811 -1.1139
 9108WAT      O37137   5.883   5.328   2.211 -0.0987 -0.4541 -0.2775
 9108WAT     H137138   5.827   5.394   2.223 -1.9823 -2.0783  0.3275
 9108WAT     H237139   5.842   5.276   2.154  2.3776 -0.0461 -2.6355
 9108WAT    EPW37140   5.869   5.330   2.205 -0.4563  0.3935  0.7130
 9109WAT      O37141   3.876   1.362   1.198 -0.0889  0.0987  0.0373
 9109WAT     H137142   3.936   1.375   1.136  1.1679  1.8469  1.5142
 9109WAT     H237143   3.862   1.442   1.231 -1.1728 -0.6617  1.5612
 9109WAT    EPW37144   3.883   1.376   1.194  0.2768 -0.3230  0.3178
 9110WAT      O37145   3.697   0.147   1.269  0.3124 -0.1803 -0.2763
 9110WAT     H137146   3.770   0.174   1.309 -0.0285 -1.3107  1.1977
 9110WAT     H237147   3.694   0.062   1.286 -0.9606 -0.2976 -0.9631
 9110WAT    EPW37148   3.707   0.139   1.277 -0.1147 -0.1828 -0.2876
 9111WAT      O37149   2.483   5.347   7.518  0.0319 -0.0141 -0.4063
 9111WAT     H137150   2.447   5.408   7.568 -0.4937 -0.9963  0.4565
 9111WAT     H237151   2.499   5.389   7.443 -1.1706  0.9446 -0.1676
 9111WAT    EPW37152   2.480   5.362   7.514  0.5845 -0.6500  0.2806
 9112WAT      O37153   1.592   3.562   0.525 -0.2840  0.3230  0.1066
 9112WAT     H137154   1.507   3.562   0.502 -0.4066  1.0201  0.5074
 9112WAT     H237155   1.589   3.553   0.612  0.1320 -1.2446 -0.0145
 9112WAT    EPW37156   1.579   3.561   0.535  0.1627  0.1212  0.1382
 9113WAT      O37157   6.653   5.173   1.364  0.0187  0.1454 -0.0968
 9113WAT     H137158   6.617   5.115   1.310  1.2998  0.3344 -1.1800
 9113WAT     H237159   6.583   5.213   1.399 -0.8414 -0.5249 -0.9823
 9113WAT    EPW37160   6.637   5.170   1.361  0.1702 -0.1432 -0.2183
 9114WAT      O37161   5.370   1.124   5.050 -0.3289  0.1627  0.3341
 9114WAT     H137162   5.438   1.095   5.002  0.1585 -0.1241  1.1706
 9114WAT     H237163   5.374   1.210   5.040 -2.0594  0.0335 -2.5459
 9114WAT    EPW37164   5.381   1.132   5.042 -0.0539 -0.1956 -0.4273
 9115WAT      O37165   1.849   4.160   5.420  0.6439 -0.2357 -0.5083
 9115WAT     H137166   1.781   4.143   5.369  0.2376  0.3964 -0.1859
 9115WAT     H237167   1.911   4.187   5.365  0.0220  1.0178 -0.6253
 9115WAT    EPW37168   1.848   4.161   5.404  0.2561 -0.0145  0.5555
 9116WAT      O37169   5.589   5.202   6.603  0.6128 -0.0418  0.7439
 9116WAT     H137170   5.530   5.149   6.638  0.9102 -1.3316 -0.6219
 9116WAT     H237171   5.657   5.196   6.657  1.0321 -1.9284  0.0827
 9116WAT    EPW37172   5.590   5.193   6.616 -0.5248 -0.2480 -0.8186
 9117WAT      O37173   4.156   4.969   7.277 -0.1113  0.0624  0.2188
 9117WAT     H137174   4.090   4.993   7.225 -0.3604 -1.5493 -0.2608
 9117WAT     H237175   4.226   4.999   7.236 -0.4270  0.2619 -0.1854
 9117WAT    EPW37176   4.156   4.977   7.263  0.0280 -0.2015 -0.1311
 9118WAT      O37177   2.957   5.827   0.851 -0.6807  0.1414  0.4224
 9118WAT     H137178   2.939   5.910   0.873  1.0653  0.7955 -0.4568
 9118WAT     H237179   2.913   5.816   0.776  0.0880  0.7214 -0.1304
 9118WAT    EPW37180   2.948   5.838   0.843  0.0636  0.6911  0.3346
 9119WAT      O37181   2.345   5.093   7.850  0.7238 -0.4342  0.3985
 9119WAT     H137182   2.270   5.060   7.880  1.5594 -0.3914  2.7607
 9119WAT     H237183   2.406   5.045   7.891  1.9592  0.7944  0.0636
 9119WAT    EPW37184   2.343   5.081   7.861 -0.0534 -0.4655 -0.3608
 9120WAT      O37185   5.282   6.426   1.522 -0.2460 -0.3511 -0.4835
 9120WAT     H137186   5.310   6.344   1.523 -0.0871 -0.2987 -0.5861
 9120WAT     H237187   5.196   6.418   1.511 -0.2205 -0.5015 -0.5762
 9120WAT    EPW37188   5.273   6.413   1.521 -0.1739 -0.4228  0.1583
 9121WAT      O37189   1.498   6.309   1.307 -0.1873 -0.1764 -0.3855
 9121WAT     H137190   1.463   6.261   1.371  0.3990  0.1659  0.2061
 9121WAT     H237191   1.529   6.379   1.349 -0.7191  0.5653 -1.1829
 9121WAT    EPW37192   1.497   6.312   1.323 -0.5491 -0.4657 -0.2421
 9122WAT      O37193   0.578   5.073   4.060 -0.5122  0.1812  0.0543
 9122WAT     H137194   0.664   5.058   4.056 -0.3017  0.8982  1.2680
 9122WAT     H237195   0.553   5.072   3.976  1.1646  2.5478 -0.5925
 9122WAT    EPW37196   0.587   5.071   4.047  0.0394 -0.4294  0.1407
 9123WAT      O37197   2.497   5.455   6.375  0.8553  0.0234 -0.3780
 9123WAT     H137198   2.542   5.382   6.357  0.5908 -0.0174 -0.8863
 9123WAT     H237199   2.500   5.460   6.462 -1.1229 -1.8985 -0.1039
 9123WAT    EPW37200   2.504   5.445   6.385  0.1076 -0.1885  0.5007
 9124WAT      O37201   2.162   6.039   3.288 -0.7234  0.4400  0.3919
 9124WAT     H137202   2.151   6.040   3.374 -2.2841  0.4110  0.2170
 9124WAT     H237203   2.123   6.112   3.262  0.6561  0.9977 -0.2165
 9124WAT    EPW37204   2.155   6.050   3.297  0.1287  0.1127  0.5318
 9125WAT      O37205   2.662   4.935   1.847 -0.1763  0.0507  0.1141
 9125WAT     H137206   2.686   4.973   1.772  2.6484 -0.0294  0.8534
 9125WAT     H237207   2.648   5.002   1.900 -0.1885  0.1017  0.0471
 9125WAT    EPW37208   2.663   4.951   1.844  0.0243 -0.5212 -0.2648
 9126WAT      O37209   1.601   2.331   7.022 -0.0537  0.2858  0.1842
 9126WAT     H137210   1.579   2.276   6.958  0.6336  1.5484 -1.1928
 9126WAT     H237211   1.534   2.325   7.077 -0.4464 -1.2025 -0.3912
 9126WAT    EPW37212   1.588   2.322   7.020 -0.0173 -0.4188  0.0860
 9127WAT      O37213   2.123   7.550   1.484  0.3460  0.6409 -0.4720
 9127WAT     H137214   2.168   7.486   1.524  3.2404  0.8814 -3.0025
 9127WAT     H237215   2.128   7.529   1.399 -4.5242  0.7359 -1.0981
 9127WAT    EPW37216   2.130   7.537   1.477  0.0811 -0.4446 -0.2008
 9128WAT      O37217   0.493   7.406   1.578 -0.1102 -0.0858 -0.0185
 9128WAT     H137218   0.412   7.437   1.587 -0.3200 -1.0545  2.3432
 9128WAT     H237219   0.481   7.329   1.538 -0.3590 -0.1910  0.2563
 9128WAT    EPW37220   0.479   7.399   1.573  0.3068  0.4597  0.3859
 9129WAT      O37221   3.356   3.583   7.199  0.1430 -0.1233  0.0664
 9129WAT     H137222   3.352   3.632   7.128 -1.0377 -0.6452 -0.2686
 9129WAT     H237223   3.396   3.510   7.172 -0.4303 -0.3794 -0.1272
 9129WAT    EPW37224   3.361   3.579   7.185  0.0229  0.1647  0.6464
 9130WAT      O37225   3.149   5.598   7.929 -0.0500  0.1858 -0.1585
 9130WAT     H137226   3.086   5.571   7.875  0.2224  0.4938 -0.6430
 9130WAT     H237227   3.200   5.528   7.938 -2.1785 -1.2148  2.9328
 9130WAT    EPW37228   3.147   5.583   7.922 -0.1089  0.2519 -0.1629
 9131WAT      O37229   4.116   3.937   6.034 -0.2565 -0.7225 -0.1867
 9131WAT     H137230   4.190   3.954   5.991  0.8990 -2.4578  0.9563
 9131WAT     H237231   4.053   3.958   5.978  1.0766  1.2390 -1.0361
 9131WAT    EPW37232   4.118   3.943   6.019 -0.1224  0.0295 -0.2016
 9132WAT      O37233   3.144   6.444   1.923 -0.1453 -0.2958  0.1403
 9132WAT     H137234   3.066   6.412   1.947 -0.5845 -1.5385 -2.5795
 9132WAT     H237235   3.126   6.487   1.849  1.5736  0.4914  0.1349
 9132WAT    EPW37236   3.130   6.446   1.916  0.2009  0.5337  0.4473
 9133WAT      O37237   4.979   6.012   1.598 -0.1709  0.2704  0.2228
 9133WAT     H137238   4.957   6.077   1.652  3.3371 -0.0476  2.3399
 9133WAT     H237239   5.041   6.047   1.548 -1.3167 -0.3083 -1.7144
 9133WAT    EPW37240   4.985   6.026   1.599 -0.1409  0.0376  0.2580
 9134WAT      O37241   3.874   5.568   7.236 -0.1868  0.8607 -0.3679
 9134WAT     H137242   3.800   5.602   7.265 -1.1380 -2.1997  1.1967
 9134WAT     H237243   3.871   5.581   7.150 -2.0689  1.6641 -0.2056
 9134WAT    EPW37244   3.863   5.575   7.227  0.3945 -0.0123 -0.1616
 9135WAT      O37245   0.736   1.493   2.488  0.1402  0.1282  0.5171
 9135WAT     H137246   0.686   1.424   2.470 -0.5706  1.1890 -1.9832
 9135WAT     H237247   0.811   1.475   2.448  0.4051  0.2451  0.9580
 9135WAT    EPW37248   0.740   1.480   2.480  0.0309  0.1814  0.4735
 9136WAT      O37249   3.440   3.697   6.416 -0.2225  0.4634  0.9458
 9136WAT     H137250   3.383   3.639   6.448 -1.7648  0.9511 -0.7667
 9136WAT     H237251   3.472   3.734   6.488 -1.2566 -0.5949  2.0091
 9136WAT    EPW37252   3.436   3.694   6.432  0.8128 -0.9278 -0.0217
 9137WAT      O37253   1.287   6.506   7.701 -0.2819 -0.2411 -0.7268
 9137WAT     H137254   1.242   6.575   7.730  3.1990  1.4354  1.3337
 9137WAT     H237255   1.279   6.447   7.766  1.3051  0.5359  0.2347
 9137WAT    EPW37256   1.279   6.507   7.715  0.4752 -0.5563 -0.2319
 9138WAT      O37257   7.937   1.387   1.484  0.6154  0.0573 -0.1069
 9138WAT     H137258   7.992   1.339   1.531  2.0436  0.5530 -1.1932
 9138WAT     H237259   7.946   1.467   1.518 -1.9129 -0.3301  1.8468
 9138WAT    EPW37260   7.946   1.392   1.496 -0.0595  0.3485 -0.3459
 9139WAT      O37261   5.934   7.561   7.130  0.4164  0.2846  1.0524
 9139WAT     H137262   5.896   7.537   7.205  0.7282 -1.3412  0.7379
 9139WAT     H237263   5.902   7.640   7.115 -1.6975 -0.3977  1.5761
 9139WAT    EPW37264   5.923   7.569   7.139  0.6828  0.4015 -0.2751
 9140WAT      O37265   0.597   6.171   1.327 -0.2377  0.2252  0.1008
 9140WAT     H137266   0.558   6.127   1.263  0.1960 -0.5304  0.3395
 9140WAT     H237267   0.669   6.202   1.290  0.3912 -0.8317  0.3817
 9140WAT    EPW37268   0.602   6.169   1.312 -0.1789  0.3447 -0.3968
 9141WAT      O37269   3.642   2.535   0.156 -0.5363 -0.3941  0.5833
 9141WAT     H137270   3.668   2.533   0.240  1.8415  0.2977 -0.0736
 9141WAT     H237271   3.670   2.612   0.127  0.9206 -1.5956 -1.4717
 9141WAT    EPW37272   3.650   2.546   0.164  0.0725 -0.0883 -0.0152
 9142WAT      O37273   2.605   5.850   4.751 -0.0671 -0.8781 -0.5640
 9142WAT     H137274   2.677   5.800   4.747  1.9116  1.7189 -0.1204
 9142WAT     H237275   2.603   5.875   4.835  0.1840  1.2501 -1.1311
 9142WAT    EPW37276   2.615   5.846   4.763  0.2662 -0.6178  0.3964
 9143WAT      O37277   2.352   7.514   2.830 -0.3586  0.2566  0.1483
 9143WAT     H137278   2.293   7.502   2.767 -0.0078  0.5400 -0.2362
 9143WAT     H237279   2.428   7.496   2.791 -0.2456 -0.9657  0.8628
 9143WAT    EPW37280   2.355   7.510   2.815 -0.1721 -0.3881  0.5766
 9144WAT      O37281   3.672   6.232   2.699  0.4553  0.3349 -0.4721
 9144WAT     H137282   3.673   6.173   2.763 -0.9734  0.2506 -0.5131
 9144WAT     H237283   3.753   6.225   2.665  0.7364 -0.6806  0.3353
 9144WAT    EPW37284   3.684   6.222   2.703  0.1748  0.5471  0.2437
 9145WAT      O37285   2.221   3.975   6.672 -0.0907 -0.2445 -0.0046
 9145WAT     H137286   2.282   4.006   6.726  0.0824  2.4180 -1.5377
 9145WAT     H237287   2.261   3.909   6.631  1.5700  0.9938 -0.4773
 9145WAT    EPW37288   2.236   3.970   6.673  0.1634 -0.2757 -0.2179
 9146WAT      O37289   3.879   1.204   5.805  0.0211 -0.1563 -0.1267
 9146WAT     H137290   3.812   1.150   5.819 -1.8030  2.0407  0.2271
 9146WAT     H237291   3.856   1.246   5.731  0.2931  1.5869  0.7261
 9146WAT    EPW37292   3.865   1.202   5.796 -0.1777 -0.1799  0.0081
 9147WAT      O37293   2.260   6.144   1.464 -0.3357 -0.0068  0.0656
 9147WAT     H137294   2.173   6.138   1.460 -0.3559 -1.3956  1.5095
 9147WAT     H237295   2.284   6.064   1.489  1.3991  0.2708 -0.5924
 9147WAT    EPW37296   2.250   6.131   1.467 -0.2003 -0.2603 -0.0033
 9148WAT      O37297   2.666   5.912   7.357  0.2915 -0.4313 -0.4738
 9148WAT     H137298   2.702   5.879   7.284  0.2501 -3.4788  0.7007
 9148WAT     H237299   2.708   5.869   7.420 -0.4953  1.2525  1.2642
 9148WAT    EPW37300   2.677   5.900   7.355  0.5668 -0.6826 -0.5620
 9149WAT      O37301   3.400   0.793   6.782 -0.4954 -0.1839 -0.4178
 9149WAT     H137302   3.415   0.761   6.702 -0.3554  0.2321 -0.5573
 9149WAT     H237303   3.441   0.736   6.835 -0.5944 -0.4611 -0.6387
 9149WAT    EPW37304   3.409   0.780   6.778 -0.5870 -0.2265 -0.2451
 9150WAT      O37305   7.393   6.601   1.015  0.1627  0.1901 -0.7022
 9150WAT     H137306   7.409   6.648   1.086  0.5528  0.9694 -1.2862
 9150WAT     H237307   7.306   6.602   1.009  0.0707 -0.6555  0.2557
 9150WAT    EPW37308   7.382   6.608   1.025 -0.0821 -0.5164 -0.2096
 9151WAT      O37309   0.415   6.403   1.730 -0.5546 -0.3824 -0.5099
 9151WAT     H137310   0.414   6.316   1.739 -3.6205 -0.8184 -3.0259
 9151WAT     H237311   0.476   6.417   1.669  0.6408 -0.5839  0.5987
 9151WAT    EPW37312   0.424   6.392   1.723  0.5050 -0.2543 -0.0074
 9152WAT      O37313   3.467   2.340   4.297 -0.1431  0.9466 -0.5552
 9152WAT     H137314   3.469   2.388   4.370 -1.6790  0.1802  0.0482
 9152WAT     H237315   3.539   2.364   4.255  0.5308  1.7848  0.9737
 9152WAT    EPW37316   3.478   2.351   4.302  0.1267  0.4544 -0.1888
 9153WAT      O37317   7.165   1.649   4.234 -0.4557  0.1890 -0.1514
 9153WAT     H137318   7.194   1.730   4.253  0.3314  0.1140 -0.9465
 9153WAT     H237319   7.165   1.609   4.311 -0.5324  0.8444  0.2035
 9153WAT    EPW37320   7.169   1.655   4.248  0.0304 -0.9133  0.3680
 9154WAT      O37321   5.110   5.416   6.254  0.1636 -0.0367 -0.4961
 9154WAT     H137322   5.095   5.462   6.181 -1.7195  1.0713  0.4961
 9154WAT     H237323   5.109   5.477   6.316  2.0484 -0.9103  0.4690
 9154WAT    EPW37324   5.108   5.432   6.253 -0.2352 -0.1459 -0.8241
 9155WAT      O37325   1.165   4.143   7.964 -0.0926 -0.0515  0.4965
 9155WAT     H137326   1.090   4.101   7.979 -1.2923  0.7612 -2.5508
 9155WAT     H237327   1.217   4.081   7.931 -0.9913  0.1919 -1.5338
 9155WAT    EPW37328   1.162   4.128   7.962  0.3730 -0.2069  1.0173
 9156WAT      O37329   2.259   3.658   2.378  0.0223 -0.1750 -0.0221
 9156WAT     H137330   2.230   3.683   2.457 -0.7121  1.2100 -0.6846
 9156WAT     H237331   2.255   3.571   2.382 -0.6262 -0.1213  1.2456
 9156WAT    EPW37332   2.254   3.649   2.390  0.8443  0.5409 -0.2721
 9157WAT      O37333   0.463   0.185   4.470  0.1380  0.0164 -0.4150
 9157WAT     H137334   0.465   0.221   4.550  1.0112 -0.5976 -0.1565
 9157WAT     H237335   0.543   0.197   4.439 -0.5807  1.5776 -1.8250
 9157WAT    EPW37336   0.475   0.192   4.477  0.4332 -0.9322  0.2018
 9158WAT      O37337   3.065   6.113   0.109 -0.4527 -0.0502  0.1591
 9158WAT     H137338   3.146   6.126   0.137 -0.6878  0.7050  0.5151
 9158WAT     H237339   3.051   6.028   0.126  1.0639 -0.8590 -2.0813
 9158WAT    EPW37340   3.075   6.102   0.116 -0.1709 -0.3097 -0.1918
 9159WAT      O37341   1.467   3.922   0.754  0.1408 -0.3091 -0.5775
 9159WAT     H137342   1.383   3.901   0.764  0.1280 -0.0813 -0.1676
 9159WAT     H237343   1.480   3.917   0.668 -0.5248  0.5534 -0.7365
 9159WAT    EPW37344   1.457   3.918   0.743 -0.6752 -0.0064 -0.2818
 9160WAT      O37345   2.296   4.536   2.944  0.4259 -0.0603  0.4754
 9160WAT     H137346   2.262   4.612   2.918  0.4354  0.2228  1.2710
 9160WAT     H237347   2.291   4.486   2.873 -0.4790  0.3726  0.2256
 9160WAT    EPW37348   2.290   4.540   2.930  0.3559 -0.2310  0.5166
 9161WAT      O37349   3.957   5.728   0.960  0.3173  0.1622  0.2849
 9161WAT     H137350   4.006   5.706   1.029 -0.7441 -0.8061  0.7639
 9161WAT     H237351   3.897   5.781   0.994  1.0889  1.4541 -0.3222
 9161WAT    EPW37352   3.955   5.732   0.976 -0.0819  0.3420 -0.0812
 9162WAT      O37353   2.309   4.307   3.917 -0.4563 -0.5246 -0.2304
 9162WAT     H137354   2.375   4.266   3.877  0.8405  0.5792  0.6925
 9162WAT     H237355   2.333   4.307   4.001 -2.0321 -0.7881  0.2436
 9162WAT    EPW37356   2.322   4.301   3.923  0.0396  0.1827 -0.1722
 9163WAT      O37357   1.197   1.510   1.410  0.4430 -0.2658 -0.4863
 9163WAT     H137358   1.117   1.538   1.389  0.1972 -1.8543 -1.9292
 9163WAT     H237359   1.182   1.447   1.468  0.6817 -0.2527 -0.4073
 9163WAT    EPW37360   1.183   1.505   1.416  0.5446 -0.0529  0.0558
 9164WAT      O37361   1.080   7.639   2.816  0.4876  0.2770  0.6782
 9164WAT     H137362   1.027   7.582   2.854 -2.0801  3.0176  1.6113
 9164WAT     H237363   1.060   7.633   2.732  1.2063 -1.0220  0.5699
 9164WAT    EPW37364   1.069   7.630   2.809  0.1021  0.0079  0.1806
 9165WAT      O37365   0.586   4.331   0.101 -0.0050 -0.2134 -0.4486
 9165WAT     H137366   0.613   4.368   0.026  0.7352 -1.3351 -0.7601
 9165WAT     H237367   0.616   4.250   0.095 -0.7459 -0.5821  0.6692
 9165WAT    EPW37368   0.595   4.325   0.089 -0.3351  0.6776  0.2077
 9166WAT      O37369   4.124   4.174   5.234 -0.3517 -0.0616  0.4186
 9166WAT     H137370   4.071   4.105   5.243 -2.2957  1.2683 -0.2307
 9166WAT     H237371   4.070   4.240   5.219  1.4468  1.6538  1.0329
 9166WAT    EPW37372   4.108   4.173   5.233  0.2893 -0.1970 -0.6902
 9167WAT      O37373   2.192   6.555   5.451  0.4053 -0.2161 -0.2863
 9167WAT     H137374   2.109   6.575   5.468  0.4438 -0.5391  0.2954
 9167WAT     H237375   2.226   6.630   5.423  0.4313  0.4365  1.4182
 9167WAT    EPW37376   2.185   6.569   5.449 -0.0779 -0.1173  0.4912
 9168WAT      O37377   1.639   0.073   0.709  0.9966  0.2141 -0.2682
 9168WAT     H137378   1.562   0.044   0.680  0.8525 -1.3631  1.5272
 9168WAT     H237379   1.668   0.122   0.643 -0.2320 -1.4494 -2.1653
 9168WAT    EPW37380   1.632   0.076   0.695  0.0129 -0.5301  0.6142
 9169WAT      O37381   3.402   7.436   2.236 -0.0743 -0.1107  0.3755
 9169WAT     H137382   3.358   7.363   2.257  0.1809 -0.4077 -0.1017
 9169WAT     H237383   3.418   7.473   2.314 -0.6848 -0.2789  0.5880
 9169WAT    EPW37384   3.398   7.431   2.251 -0.0217 -0.1956  0.3757
 9170WAT      O37385   1.588   6.333   0.569 -0.0605 -0.3054  0.4311
 9170WAT     H137386   1.618   6.288   0.501 -0.2039  0.2898 -0.0382
 9170WAT     H237387   1.510   6.299   0.584 -1.3372  1.4437 -1.5977
 9170WAT    EPW37388   1.581   6.322   0.561 -0.5375  0.6658 -0.0709
 9171WAT      O37389   1.551   6.344   1.028 -0.3648  0.5452  0.0921
 9171WAT     H137390   1.597   6.418   1.031 -1.5968  1.3199  0.2059
 9171WAT     H237391   1.531   6.328   1.111 -0.1404  0.0943  0.0650
 9171WAT    EPW37392   1.555   6.353   1.041  0.4545  0.1138 -0.0744
 9172WAT      O37393   1.840   3.793   4.455 -0.4821  0.0074  0.0843
 9172WAT     H137394   1.821   3.864   4.408 -0.4099 -0.1317 -0.1554
 9172WAT     H237395   1.861   3.734   4.395 -2.0917 -0.7141  0.1637
 9172WAT    EPW37396   1.840   3.795   4.439 -0.2803 -0.5527  0.2438
 9173WAT      O37397   4.175   4.341   0.871  0.2609 -0.2308  0.4328
 9173WAT     H137398   4.235   4.355   0.933  0.1126 -0.6279  0.6733
 9173WAT     H237399   4.103   4.321   0.917  0.7133 -2.8749  0.1368
 9173WAT    EPW37400   4.173   4.340   0.887 -0.8730  0.0103  0.7032
 9174WAT      O37401   1.557   6.099   5.322  0.1584  0.0188  0.6619
 9174WAT     H137402   1.508   6.038   5.361 -0.6491 -0.5221 -1.1067
 9174WAT     H237403   1.517   6.173   5.344 -0.9011 -0.3475  0.0411
 9174WAT    EPW37404   1.543   6.101   5.331 -0.6576 -0.0540  0.2411
 9175WAT      O37405   2.897   4.953   0.254 -0.1575 -0.1881  0.2146
 9175WAT     H137406   2.960   4.930   0.199 -0.4450  1.0671 -0.6830
 9175WAT     H237407   2.844   5.002   0.205 -1.3112 -0.4228  1.1944
 9175WAT    EPW37408   2.899   4.957   0.239 -0.2241 -0.5548 -0.5574
 9176WAT      O37409   0.231   7.567   0.554  0.3435  0.3892  0.2584
 9176WAT     H137410   0.207   7.650   0.546  1.6146  0.8941  1.2915
 9176WAT     H237411   0.259   7.561   0.636 -0.5380 -1.3032  0.4807
 9176WAT    EPW37412   0.232   7.578   0.565  0.6347  0.1487 -0.3286
 9177WAT      O37413   2.605   5.857   7.825  0.3012  0.2113 -0.0157
 9177WAT     H137414   2.643   5.906   7.886 -0.2877 -0.9126  1.3137
 9177WAT     H237415   2.523   5.851   7.852  0.4913 -2.0290  0.2736
 9177WAT    EPW37416   2.599   5.863   7.838 -0.5820 -0.4064  0.7700
 9178WAT      O37417   5.151   5.343   6.993  0.1767 -0.0927 -0.0679
 9178WAT     H137418   5.171   5.406   6.936  0.5834  0.3933  0.5995
 9178WAT     H237419   5.071   5.363   7.019  0.3560  0.2214  0.2411
 9178WAT    EPW37420   5.142   5.355   6.988 -0.5533 -0.0390 -0.2408
 9179WAT      O37421   5.288   0.883   1.870 -0.3473  0.4785  0.3100
 9179WAT     H137422   5.220   0.833   1.894 -1.2749  0.8324 -1.3973
 9179WAT     H237423   5.255   0.932   1.806  1.7788 -0.0633 -1.3114
 9179WAT    EPW37424   5.273   0.882   1.864  0.5642  0.5940  0.5593
 9180WAT      O37425   2.671   0.163   1.606 -0.5012  0.2723 -0.0564
 9180WAT     H137426   2.736   0.164   1.547 -1.0096  1.2234 -0.6097
 9180WAT     H237427   2.702   0.211   1.672  0.2808 -1.2197  0.7354
 9180WAT    EPW37428   2.686   0.170   1.607 -0.1990  0.2317 -0.5411
 9181WAT      O37429   5.860   6.804   5.610  0.3010 -0.3869  0.4103
 9181WAT     H137430   5.773   6.807   5.606  0.3460  0.5167 -2.2288
 9181WAT     H237431   5.876   6.732   5.657 -1.8692 -1.4231 -0.2792
 9181WAT    EPW37432   5.849   6.794   5.616 -0.2150 -0.4604 -0.0857
 9182WAT      O37433   0.872   2.428   0.319 -0.3723 -0.1723 -0.1904
 9182WAT     H137434   0.860   2.514   0.310  0.1878 -0.2049 -1.5421
 9182WAT     H237435   0.953   2.422   0.350 -0.4176 -0.2163 -0.0805
 9182WAT    EPW37436   0.882   2.440   0.322  0.1058  0.1390 -0.0444
 9183WAT      O37437   6.435   7.760   7.852  0.2077 -0.2398 -0.2561
 9183WAT     H137438   6.501   7.814   7.869 -0.1205  0.2781 -0.5746
 9183WAT     H237439   6.381   7.809   7.804 -0.4780 -0.6047  0.1266
 9183WAT    EPW37440   6.437   7.775   7.847  0.0332 -0.5645 -0.1314
 9184WAT      O37441   4.040   6.607   2.095 -0.1310 -0.0512 -0.0024
 9184WAT     H137442   4.084   6.650   2.033 -0.8116 -0.5548 -0.8441
 9184WAT     H237443   4.097   6.547   2.123  0.3149  0.4371  0.1524
 9184WAT    EPW37444   4.055   6.605   2.090  0.0073 -0.0605  0.5428
 9185WAT      O37445   3.418   3.902   5.758 -0.5841 -0.0619 -0.3121
 9185WAT     H137446   3.365   3.971   5.756 -0.8757 -0.2874 -0.6477
 9185WAT     H237447   3.396   3.857   5.686  0.0838 -0.1481 -0.4693
 9185WAT    EPW37448   3.407   3.905   5.747  0.0122  0.4097 -0.2931
 9186WAT      O37449   1.970   7.199   3.739 -0.9787 -0.0230  0.1872
 9186WAT     H137450   1.946   7.193   3.655  0.4145  2.3275 -0.4673
 9186WAT     H237451   1.907   7.247   3.775 -0.9921 -0.0663  0.2217
 9186WAT    EPW37452   1.958   7.205   3.732 -0.2384 -0.5485  0.7283
 9187WAT      O37453   7.991   3.366   1.220  0.0918 -0.5176 -0.0598
 9187WAT     H137454   7.985   3.386   1.135 -0.9497  1.1018  0.3567
 9187WAT     H237455   7.939   3.297   1.228  0.5715 -0.9914 -0.8016
 9187WAT    EPW37456   7.983   3.359   1.208 -0.1752  0.2207 -0.3820
 9188WAT      O37457   1.041   5.652   4.472  0.6527  0.4324 -0.1647
 9188WAT     H137458   0.956   5.656   4.491  0.5140 -2.0257  0.0398
 9188WAT     H237459   1.054   5.567   4.455  2.7942  0.9740 -1.5378
 9188WAT    EPW37460   1.030   5.640   4.473 -0.8465 -0.7404  0.3497
 9189WAT      O37461   1.796   5.549   7.310 -0.1052  0.3122 -0.4529
 9189WAT     H137462   1.804   5.463   7.318  0.6422  0.4180 -0.0796
 9189WAT     H237463   1.813   5.580   7.389  1.6372  0.9377 -1.0380
 9189WAT    EPW37464   1.800   5.541   7.323 -0.2937 -0.1730 -0.0642
 9190WAT      O37465   2.026   4.698   1.841  0.0241  0.3585 -0.0953
 9190WAT     H137466   2.014   4.701   1.927 -1.2614 -1.0892 -0.1774
 9190WAT     H237467   1.987   4.770   1.812 -2.6135 -0.7755  0.3145
 9190WAT    EPW37468   2.018   4.709   1.849 -0.4167 -0.6067 -0.2267
 9191WAT      O37469   3.953   0.826   3.829  0.0866 -0.3819 -0.7216
 9191WAT     H137470   3.936   0.877   3.761 -1.3985 -2.1968 -1.8256
 9191WAT     H237471   3.961   0.882   3.895  0.3226  1.3599 -2.1527
 9191WAT    EPW37472   3.952   0.842   3.829  0.0802 -0.1389  0.2425
 9192WAT      O37473   6.202   1.201   3.281 -0.2653  0.4846  0.0429
 9192WAT     H137474   6.203   1.141   3.345  0.9291 -1.5468 -1.7460
 9192WAT     H237475   6.280   1.240   3.289 -0.4235  0.7554  0.2751
 9192WAT    EPW37476   6.214   1.197   3.292  0.0374 -0.3653  0.1364
 9193WAT      O37477   4.662   7.303   7.984  0.5185  0.3109  0.3127
 9193WAT     H137478   4.715   7.286   7.917  1.0740  0.3343  0.7341
 9193WAT     H237479   4.582   7.294   7.950  0.7780 -1.0095 -0.0266
 9193WAT    EPW37480   4.658   7.299   7.969 -0.3534 -0.6824 -0.1720
 9194WAT      O37481   6.033   0.039   4.339  0.0894 -0.2132 -0.6138
 9194WAT     H137482   6.095   0.035   4.278 -0.3066  0.0817 -1.0377
 9194WAT     H237483   6.038   0.120   4.369 -0.5608  0.0418 -1.1565
 9194WAT    EPW37484   6.043   0.050   4.334 -0.2392 -0.5393 -0.1179
 9195WAT      O37485   2.768   6.284   3.662 -0.5053 -0.0508  0.1735
 9195WAT     H137486   2.844   6.321   3.683 -0.8262  0.6430  0.1137
 9195WAT     H237487   2.781   6.199   3.681  0.1238  0.1338  0.5924
 9195WAT    EPW37488   2.781   6.277   3.668  0.2554 -0.3154 -0.1267
 9196WAT      O37489   3.072   7.134   4.120  0.2632  0.0606  0.0782
 9196WAT     H137490   3.084   7.157   4.203 -0.6438 -2.3686  0.9509
 9196WAT     H237491   3.112   7.057   4.114 -1.6686 -0.9313 -1.0565
 9196WAT    EPW37492   3.080   7.126   4.131  0.2600 -0.2636  0.3047
 9197WAT      O37493   4.541   7.815   1.860 -0.5352 -0.1988 -0.2324
 9197WAT     H137494   4.510   7.821   1.941 -1.1930 -0.0014 -0.4933
 9197WAT     H237495   4.626   7.800   1.872 -0.2414  1.7747  0.4875
 9197WAT    EPW37496   4.549   7.813   1.874  0.4327 -0.6250  0.6121
 9198WAT      O37497   6.701   5.216   5.258  0.5253 -0.1342  0.1083
 9198WAT     H137498   6.746   5.233   5.186 -0.7148 -0.6400 -0.8302
 9198WAT     H237499   6.745   5.258   5.321  1.3222  0.7879 -1.0241
 9198WAT    EPW37500   6.714   5.225   5.257  0.3179 -0.1623  0.1356
 9199WAT      O37501   4.190   6.775   6.704  0.9856 -0.6608 -0.5041
 9199WAT     H137502   4.261   6.816   6.675  1.0996 -0.5660 -0.0908
 9199WAT     H237503   4.198   6.777   6.790 -0.0320  0.2783 -0.4017
 9199WAT    EPW37504   4.201   6.782   6.712  0.1862  0.4783  0.0490
 9200WAT      O37505   2.653   1.384   2.973 -0.3221  0.2464 -0.1558
 9200WAT     H137506   2.582   1.334   2.968 -0.6431  0.6796  0.0404
 9200WAT     H237507   2.702   1.345   3.034 -0.8001  0.4523  0.3683
 9200WAT    EPW37508   2.650   1.371   2.981 -0.6418 -0.6906  0.7097
 9201WAT      O37509   3.762   7.122   3.752  0.4272 -0.6240 -0.0873
 9201WAT     H137510   3.720   7.188   3.791  1.1871 -0.7461  0.9949
 9201WAT     H237511   3.823   7.100   3.810  0.7167 -1.7421 -0.7883
 9201WAT    EPW37512   3.765   7.128   3.766  0.3739 -0.1765  0.4498
 9202WAT      O37513   5.900   6.122   4.843 -0.7917 -0.3124 -0.1940
 9202WAT     H137514   5.968   6.113   4.896  0.8609  1.1882 -1.9265
 9202WAT     H237515   5.876   6.040   4.825 -0.2106 -0.8371  1.3493
 9202WAT    EPW37516   5.906   6.108   4.848 -0.2562 -0.0186 -0.0338
 9203WAT      O37517   4.498   1.637   3.671 -0.1598  0.4521 -0.1359
 9203WAT     H137518   4.475   1.555   3.653  0.7828  0.2922 -0.6640
 9203WAT     H237519   4.578   1.629   3.707  0.8791  1.2535 -2.1072
 9203WAT    EPW37520   4.507   1.624   3.674  0.2120  0.6486 -0.1785
 9204WAT      O37521   2.583   4.836   5.467 -0.2798  0.4805  0.6938
 9204WAT     H137522   2.541   4.860   5.394 -2.9107  0.7465  2.1588
 9204WAT     H237523   2.667   4.845   5.446 -0.7533 -1.5014 -2.9982
 9204WAT    EPW37524   2.589   4.841   5.453  0.1911  0.1983  0.4086
 9205WAT      O37525   5.846   5.686   0.879 -0.1991  0.0984 -0.3000
 9205WAT     H137526   5.845   5.638   0.952  2.0061  2.3252  1.3201
 9205WAT     H237527   5.901   5.751   0.897 -1.8971  2.4815 -2.8854
 9205WAT    EPW37528   5.854   5.688   0.892  0.1330  0.5121  0.5397
 9206WAT      O37529   0.008   4.259   0.937  0.5211  0.1085 -0.2967
 9206WAT     H137530   0.078   4.218   0.970  0.8437 -0.9086 -2.1162
 9206WAT     H237531  -0.022   4.204   0.877 -1.4043  0.8744 -0.1217
 9206WAT    EPW37532   0.014   4.245   0.933  0.9644  0.1679 -0.9407
 9207WAT      O37533   1.986   3.586   0.072 -0.6746 -0.1012 -0.3786
 9207WAT     H137534   2.034   3.514   0.074 -0.1515  0.1954 -1.5106
 9207WAT     H237535   1.955   3.593   0.153 -0.1419 -1.1894 -0.0715
 9207WAT    EPW37536   1.988   3.576   0.084  0.1708 -0.2526  0.2797
 9208WAT      O37537   2.209   1.221   7.563 -0.3159 -0.1257 -0.4669
 9208WAT     H137538   2.240   1.268   7.630 -4.1285 -0.7989  2.0356
 9208WAT     H237539   2.267   1.155   7.556  2.5949  2.2706 -1.0015
 9208WAT    EPW37540   2.222   1.218   7.572 -0.3039  0.6900 -0.3080
 9209WAT      O37541   2.630   4.816   5.817  0.7381  0.2221  0.1355
 9209WAT     H137542   2.610   4.836   5.734 -2.4662  0.5332  0.8610
 9209WAT     H237543   2.628   4.893   5.858 -1.4431 -0.3042  1.1137
 9209WAT    EPW37544   2.627   4.830   5.811  0.2604 -0.1239  0.3549
 9210WAT      O37545   1.133   1.088   7.456  0.5942  0.6322  0.2334
 9210WAT     H137546   1.058   1.070   7.414  0.8583 -4.0543  1.1866
 9210WAT     H237547   1.189   1.102   7.391 -0.2023 -0.6583 -0.7969
 9210WAT    EPW37548   1.130   1.087   7.440 -0.7331  0.6664 -0.2472
 9211WAT      O37549   3.643   2.219   2.320 -0.0736  0.2459 -0.4173
 9211WAT     H137550   3.707   2.278   2.318  2.0626 -1.9005  0.5160
 9211WAT     H237551   3.609   2.228   2.400 -0.9554  1.3467 -0.8932
 9211WAT    EPW37552   3.647   2.229   2.331 -0.8067 -0.1276 -0.2911
 9212WAT      O37553   4.138   4.038   0.469  0.1126  0.8773  0.0312
 9212WAT     H137554   4.133   4.026   0.555 -1.9229  0.6407 -0.0886
 9212WAT     H237555   4.092   4.111   0.455 -0.5957  0.2583 -0.9772
 9212WAT    EPW37556   4.131   4.047   0.479  0.3049  0.3789  0.3173
 9213WAT      O37557   3.317   5.818   7.845 -0.0401 -0.0828  0.2072
 9213WAT     H137558   3.267   5.884   7.817  0.4553  1.3385  2.3581
 9213WAT     H237559   3.260   5.764   7.883 -0.1794  0.5102  0.8613
 9213WAT    EPW37560   3.301   5.820   7.847  0.2124 -0.1276 -0.3423
 9214WAT      O37561   7.844   7.373   3.178  0.0103 -0.2309 -0.2529
 9214WAT     H137562   7.867   7.428   3.115 -0.1123  0.9432  0.6941
 9214WAT     H237563   7.920   7.351   3.215 -0.0053 -0.0912 -0.1389
 9214WAT    EPW37564   7.858   7.378   3.174 -0.0211 -0.4479 -0.7794
 9215WAT      O37565   2.031   2.217   7.720 -0.7610 -0.6274 -0.2917
 9215WAT     H137566   2.001   2.219   7.638 -0.1694 -0.7191 -0.5133
 9215WAT     H237567   2.060   2.136   7.730  1.5653  0.0504 -0.8886
 9215WAT    EPW37568   2.031   2.206   7.710 -0.0074  0.0420  0.0328
 9216WAT      O37569   3.804   7.400   5.464 -0.4385 -0.9625  1.0190
 9216WAT     H137570   3.756   7.333   5.491  0.5295 -2.3061 -0.4237
 9216WAT     H237571   3.885   7.368   5.461  0.2083  0.5652  1.2095
 9216WAT    EPW37572   3.808   7.386   5.467 -0.4299 -0.2995 -0.0715
 9217WAT      O37573   3.011   5.695   6.165 -0.0237  0.0468  0.2485
 9217WAT     H137574   3.076   5.658   6.119 -1.0283 -0.5461 -0.7399
 9217WAT     H237575   2.981   5.629   6.213 -1.9097 -0.5516 -1.6159
 9217WAT    EPW37576   3.016   5.680   6.165 -0.9161 -1.1023  0.1081
 9218WAT      O37577   0.623   6.042   3.552 -0.1182 -0.3025  0.0574
 9218WAT     H137578   0.618   5.994   3.480 -2.1204 -0.8395  0.4808
 9218WAT     H237579   0.657   5.988   3.611  0.8416 -0.0936 -0.2993
 9218WAT    EPW37580   0.627   6.027   3.550 -0.2797  0.3594 -0.3280
 9219WAT      O37581   4.844   1.629   4.550 -0.2530  0.0828 -0.2275
 9219WAT     H137582   4.843   1.547   4.520  2.4558 -0.6496  1.3066
 9219WAT     H237583   4.832   1.620   4.635  1.2633  1.1035  0.1393
 9219WAT    EPW37584   4.842   1.616   4.558 -0.4194  0.8485 -0.3745
 9220WAT      O37585   1.630   1.718   0.233  0.4338  0.4139 -0.3715
 9220WAT     H137586   1.571   1.775   0.264 -0.7570 -1.3294  0.7627
 9220WAT     H237587   1.625   1.730   0.147 -1.2920  0.6708 -0.2870
 9220WAT    EPW37588   1.620   1.728   0.225  0.0506  0.2780  0.4242
 9221WAT      O37589   5.804   1.660   3.430 -0.2261  0.0821 -0.1553
 9221WAT     H137590   5.757   1.594   3.459  0.5954  0.0181  1.0945
 9221WAT     H237591   5.752   1.730   3.441 -0.5268 -0.1537 -0.0854
 9221WAT    EPW37592   5.790   1.661   3.436  0.5355  0.6165 -0.3807
 9222WAT      O37593   1.820   4.704   6.415  0.3662  0.0404 -0.1880
 9222WAT     H137594   1.859   4.702   6.493  0.2584 -0.4671 -0.1435
 9222WAT     H237595   1.878   4.744   6.364  0.5021  0.2383  0.1154
 9222WAT    EPW37596   1.834   4.710   6.419 -0.4224 -0.0425 -0.0847
 9223WAT      O37597   3.040   5.192   4.305  0.2102 -0.0654  0.3293
 9223WAT     H137598   3.078   5.114   4.314  0.1675  0.0159  1.3638
 9223WAT     H237599   2.956   5.176   4.320 -0.3045 -0.3363 -2.4791
 9223WAT    EPW37600   3.033   5.178   4.309  0.3275  0.5135  0.4122
 9224WAT      O37601   2.167   7.048   4.908 -0.0526  0.2925  0.1690
 9224WAT     H137602   2.221   6.989   4.942 -1.7262 -1.6982 -0.3907
 9224WAT     H237603   2.170   7.032   4.823  0.8044  2.2755 -0.2111
 9224WAT    EPW37604   2.175   7.037   4.901  0.0722 -0.4146  0.2705
 9225WAT      O37605   1.666   4.062   7.701  0.5334  0.1559  0.6482
 9225WAT     H137606   1.686   4.128   7.755 -0.3750  0.9040  0.1028
 9225WAT     H237607   1.743   4.025   7.684  1.1388  1.4288  0.5286
 9225WAT    EPW37608   1.680   4.066   7.707 -0.2473  0.6338 -0.2770
 9226WAT      O37609   5.616   6.444   6.409  0.0066 -0.2077 -0.8123
 9226WAT     H137610   5.636   6.359   6.405 -1.8450 -0.6618 -1.1965
 9226WAT     H237611   5.650   6.469   6.486  0.0104 -1.4493 -0.3841
 9226WAT    EPW37612   5.624   6.435   6.420 -0.6829  0.6326  0.0150
 9227WAT      O37613   1.911   1.655   7.703  0.0170  0.0222  0.2335
 9227WAT     H137614   1.977   1.637   7.757 -1.2503 -2.1022  1.2083
 9227WAT     H237615   1.929   1.735   7.675  2.1604  0.1409  1.6953
 9227WAT    EPW37616   1.923   1.664   7.707 -0.7150  0.3617 -0.4406
 9228WAT      O37617   3.571   1.224   6.784 -0.2515 -0.6419 -0.3325
 9228WAT     H137618   3.572   1.306   6.755 -1.8924 -0.8074 -1.0026
 9228WAT     H237619   3.655   1.203   6.792  0.1873  0.9538 -0.5900
 9228WAT    EPW37620   3.584   1.233   6.781  0.4100  0.1540 -0.4526
 9229WAT      O37621   4.402   1.327   5.037  0.4503 -0.0743 -0.2649
 9229WAT     H137622   4.393   1.244   5.013 -1.0701  0.4717 -1.8028
 9229WAT     H237623   4.392   1.325   5.123  1.1475 -1.5520 -0.1832
 9229WAT    EPW37624   4.399   1.315   5.046 -0.3367 -0.5391 -0.1322
 9230WAT      O37625   3.281   5.667   0.128 -0.1820  0.2126  0.3328
 9230WAT     H137626   3.340   5.624   0.080  0.6322  2.1658 -0.5673
 9230WAT     H237627   3.206   5.649   0.089  0.5203  2.2647 -2.2841
 9230WAT    EPW37628   3.279   5.658   0.115  0.0040  0.5846 -0.3984
 9231WAT      O37629   6.908   3.113   4.703 -0.1710 -0.1290  0.0112
 9231WAT     H137630   6.825   3.096   4.724  0.1703 -1.4021  0.3837
 9231WAT     H237631   6.932   3.043   4.656 -0.1404  1.4532 -2.5604
 9231WAT    EPW37632   6.899   3.100   4.699 -0.0551 -1.0131 -0.0345
 9232WAT      O37633   5.251   2.541   7.298  0.4330 -0.6322 -0.1287
 9232WAT     H137634   5.325   2.568   7.260  0.2782  0.0794  0.0435
 9232WAT     H237635   5.216   2.616   7.328 -0.8220 -0.8437 -1.0159
 9232WAT    EPW37636   5.257   2.556   7.297 -0.3077  0.5722 -1.1942
 9233WAT      O37637   3.689   6.031   2.886  0.0030 -0.1074 -0.3599
 9233WAT     H137638   3.616   6.001   2.924  0.8523  0.0069  1.4849
 9233WAT     H237639   3.742   6.045   2.953  1.5314  0.3857 -1.6167
 9233WAT    EPW37640   3.686   6.029   2.901 -0.7268 -0.0827 -0.3887
 9234WAT      O37641   1.838   3.867   0.383 -0.0619 -0.0165  0.3183
 9234WAT     H137642   1.917   3.830   0.380 -0.2887 -0.4323 -1.2243
 9234WAT     H237643   1.793   3.824   0.323 -0.9727  1.3314  0.0028
 9234WAT    EPW37644   1.843   3.855   0.374 -0.6150 -0.3693  0.5060
 9235WAT      O37645   5.420   2.268   0.490  0.6073 -0.2422 -0.3523
 9235WAT     H137646   5.445   2.334   0.541  0.8917 -1.8558  1.7714
 9235WAT     H237647   5.338   2.289   0.469  0.8607  1.0115 -0.1583
 9235WAT    EPW37648   5.411   2.280   0.495 -0.0567 -0.1512 -0.2446
 9236WAT      O37649   3.179   2.191   6.365  0.1068 -0.1872 -0.1346
 9236WAT     H137650   3.128   2.126   6.394  0.1373 -0.5730 -0.9227
 9236WAT     H237651   3.159   2.197   6.280  0.9345  0.0691 -0.3218
 9236WAT    EPW37652   3.169   2.183   6.357  0.8720 -0.3971 -0.4808
 9237WAT      O37653   5.910   3.899   4.208 -0.3810  0.0009  0.0695
 9237WAT     H137654   5.835   3.856   4.210 -1.3269  1.5135 -0.8595
 9237WAT     H237655   5.957   3.857   4.148 -1.8673  1.0398 -1.9572
 9237WAT    EPW37656   5.906   3.887   4.199 -0.4519  0.6098  0.4440
 9238WAT      O37657   2.360   0.520   0.434 -0.1892 -0.4787  0.0965
 9238WAT     H137658   2.377   0.436   0.450  1.7200 -0.4241 -1.2706
 9238WAT     H237659   2.435   0.560   0.451 -0.0137  0.4555 -2.3850
 9238WAT    EPW37660   2.373   0.514   0.438 -0.3630 -0.0119  0.2267
 9239WAT      O37661   3.932   6.432   6.934  0.5693 -0.2371 -0.1114
 9239WAT     H137662   3.894   6.458   6.860  0.3356  2.4568  0.8180
 9239WAT     H237663   3.893   6.481   6.995  2.1708 -0.8787  1.5160
 9239WAT    EPW37664   3.921   6.443   6.932  0.3102  0.1224  0.4694
 9240WAT      O37665   8.033   6.713   3.286  0.4434  0.0236 -0.3616
 9240WAT     H137666   7.980   6.751   3.345  2.5716  1.6917  0.6169
 9240WAT     H237667   8.001   6.741   3.209 -1.4235 -0.8915  0.0303
 9240WAT    EPW37668   8.021   6.723   3.283 -0.5090  0.0220 -0.3669
 9241WAT      O37669   5.618   5.119   7.070 -0.2148 -0.0486  0.0519
 9241WAT     H137670   5.540   5.083   7.054 -0.3917  0.2594  0.2099
 9241WAT     H237671   5.630   5.104   7.155 -0.2686  0.2161  0.1093
 9241WAT    EPW37672   5.608   5.112   7.080 -0.4166  0.0924  0.0238
 9242WAT      O37673   6.515   5.215   3.882  0.3837 -0.7228 -0.4152
 9242WAT     H137674   6.579   5.234   3.938 -0.4474 -1.0809  0.6902
 9242WAT     H237675   6.481   5.293   3.863 -2.1440 -0.7584  3.0549
 9242WAT    EPW37676   6.520   5.229   3.887  0.6104 -0.3222  0.9020
 9243WAT      O37677   2.138   7.326   4.967 -0.2920 -0.0895 -1.0609
 9243WAT     H137678   2.210   7.375   4.976 -0.7900  0.6462 -1.0735
 9243WAT     H237679   2.170   7.248   4.943  0.4151  0.7449 -3.0943
 9243WAT    EPW37680   2.154   7.322   4.965 -0.4646 -0.0089  0.2874
 9244WAT      O37681   1.140   3.213   0.558 -0.0163 -0.3205 -0.3931
 9244WAT     H137682   1.105   3.269   0.501  2.6367  0.7605 -1.1233
 9244WAT     H237683   1.079   3.204   0.619 -1.3951  1.6459 -1.3880
 9244WAT    EPW37684   1.126   3.220   0.558  0.0227  0.4107 -0.3361
 9245WAT      O37685   0.244   5.940   4.508  0.4761  0.4782  0.3964
 9245WAT     H137686   0.295   6.003   4.541  2.0549 -1.0805  1.0828
 9245WAT     H237687   0.297   5.896   4.455 -1.1953  1.0029 -1.8448
 9245WAT    EPW37688   0.259   5.943   4.505  0.2985 -0.0756 -0.2876
 9246WAT      O37689   1.668   5.922   0.829 -0.2000  0.2685 -0.4039
 9246WAT     H137690   1.668   6.008   0.813 -0.4103  0.2698 -0.4010
 9246WAT     H237691   1.667   5.918   0.916 -0.4953  0.2636 -0.4074
 9246WAT    EPW37692   1.668   5.934   0.839  0.2224  0.1286 -0.1443
 9247WAT      O37693   2.369   0.187   3.899 -0.0980  0.1089  0.3328
 9247WAT     H137694   2.288   0.194   3.931  0.3706 -0.9446  1.9165
 9247WAT     H237695   2.358   0.194   3.813 -1.8513  0.1682  0.5208
 9247WAT    EPW37696   2.356   0.189   3.891  0.1352 -0.3869 -0.6268
 9248WAT      O37697   1.680   7.382   0.100  0.2572  0.1922 -0.4091
 9248WAT     H137698   1.649   7.381   0.182  1.1185  0.8380 -0.0644
 9248WAT     H237699   1.650   7.307   0.066 -2.1950  1.0388 -0.3120
 9248WAT    EPW37700   1.671   7.371   0.107 -0.3382  0.1171 -0.0359
 9249WAT      O37701   1.178   7.921   0.497 -0.2910  0.2529  0.6672
 9249WAT     H137702   1.092   7.933   0.512 -0.9424 -1.3324 -1.3572
 9249WAT     H237703   1.188   7.835   0.502  1.3112  0.4374  1.2645
 9249WAT    EPW37704   1.167   7.910   0.500 -0.1085 -0.7634 -0.0813
 9250WAT      O37705   2.497   5.139   2.788  0.1893  0.0837  0.0414
 9250WAT     H137706   2.546   5.211   2.777  0.2721 -0.0590 -0.5159
 9250WAT     H237707   2.437   5.164   2.846  0.8348  0.3063  0.6419
 9250WAT    EPW37708   2.496   5.153   2.795  0.0410 -0.4872  0.0721
 9251WAT      O37709   4.138   2.764   0.862 -0.2189  0.1634 -0.1080
 9251WAT     H137710   4.154   2.787   0.945  0.5422 -1.0975  0.1241
 9251WAT     H237711   4.133   2.677   0.866 -0.1364  0.0883 -1.3967
 9251WAT    EPW37712   4.140   2.754   0.875 -0.0244  0.3673 -0.1374
 9252WAT      O37713   1.388   2.586   0.192 -0.4262 -0.1373 -0.2769
 9252WAT     H137714   1.353   2.663   0.211  2.2504  1.0079  0.5374
 9252WAT     H237715   1.467   2.607   0.159  0.5266 -2.5029  0.2976
 9252WAT    EPW37716   1.395   2.600   0.190 -0.0790  0.4575  0.0013
 9253WAT      O37717   1.244   6.989   4.696 -0.5537  0.0016  0.2662
 9253WAT     H137718   1.266   7.072   4.681  1.7419 -0.6531 -0.4054
 9253WAT     H237719   1.260   6.979   4.781 -2.0433  0.5453  0.6336
 9253WAT    EPW37720   1.250   7.000   4.706  0.0793 -0.2272 -0.4259
 9254WAT      O37721   2.109   2.088   0.880  0.5374 -0.1826 -0.1514
 9254WAT     H137722   2.158   2.123   0.817  0.5352  0.6596  0.3100
 9254WAT     H237723   2.061   2.029   0.837 -1.2129  1.9937 -1.4203
 9254WAT    EPW37724   2.109   2.084   0.864  0.0194 -0.0960  0.0734
 9255WAT      O37725   2.810   5.054   5.651 -0.4914 -0.4408 -0.5089
 9255WAT     H137726   2.818   5.029   5.734  1.4548 -1.1153 -0.8375
 9255WAT     H237727   2.837   4.985   5.605 -1.5345 -0.0886 -1.7211
 9255WAT    EPW37728   2.815   5.040   5.656  0.2454  0.0461 -0.6605
 9256WAT      O37729   5.145   1.653   4.525 -0.1421 -0.4214 -0.5490
 9256WAT     H137730   5.163   1.588   4.580 -0.4372  0.1428  0.2244
 9256WAT     H237731   5.058   1.655   4.522 -0.1340 -0.6183 -1.2552
 9256WAT    EPW37732   5.135   1.644   4.533 -0.4476 -0.2924  0.6702
 9257WAT      O37733   4.359   0.784   5.659  0.3705 -0.2466  0.2821
 9257WAT     H137734   4.298   0.787   5.597 -0.7025 -0.2426  1.3017
 9257WAT     H237735   4.423   0.737   5.622 -0.0276  0.1427 -0.9783
 9257WAT    EPW37736   4.360   0.777   5.644  0.7975  0.2170 -0.4062
 9258WAT      O37737   7.772   0.746   3.278  0.2626 -0.3870  0.0536
 9258WAT     H137738   7.783   0.727   3.194  0.6551  1.6138 -0.3979
 9258WAT     H237739   7.687   0.766   3.284  0.5409  0.9871 -0.2441
 9258WAT    EPW37740   7.761   0.746   3.267 -0.3321  0.2782  0.3989
 9259WAT      O37741   2.156   4.687   5.580  0.1044  0.2716  0.1884
 9259WAT     H137742   2.226   4.647   5.613  0.1551  0.4452  0.2936
 9259WAT     H237743   2.171   4.688   5.494 -0.3088 -0.7262  0.0945
 9259WAT    EPW37744   2.169   4.682   5.573  0.7576 -0.5957  0.4682
 9260WAT      O37745   3.138   6.562   7.060 -0.0990 -0.0606 -0.1382
 9260WAT     H137746   3.208   6.605   7.033  0.3565 -0.4435  0.4156
 9260WAT     H237747   3.073   6.620   7.051  0.2547  0.2356 -0.8125
 9260WAT    EPW37748   3.139   6.577   7.055 -0.1834 -0.2785  0.6581
 9261WAT      O37749   2.318   2.829   0.243  0.6543  0.2925 -0.0138
 9261WAT     H137750   2.233   2.808   0.236  0.3740  0.9386  1.2527
 9261WAT     H237751   2.339   2.804   0.324  2.1259 -1.3109 -0.8178
 9261WAT    EPW37752   2.308   2.822   0.254  0.5250 -0.3391  0.7654
 9262WAT      O37753   4.234   5.220   6.615  0.2225 -0.0367  0.0775
 9262WAT     H137754   4.228   5.194   6.698 -0.2154  0.4008  0.1852
 9262WAT     H237755   4.253   5.305   6.620  0.1444  0.0049 -0.2701
 9262WAT    EPW37756   4.236   5.229   6.628  0.2316  0.4376 -0.7712
 9263WAT      O37757   4.073   3.368   0.124 -0.2732  0.5940 -0.5078
 9263WAT     H137758   4.093   3.302   0.178 -0.8038  2.1177  1.6836
 9263WAT     H237759   4.102   3.340   0.046 -0.6965 -2.3000  0.2455
 9263WAT    EPW37760   4.080   3.354   0.120 -0.6852 -0.2370  0.2904
 9264WAT      O37761   2.437   3.001   3.839 -0.4368 -0.7499  0.1797
 9264WAT     H137762   2.523   3.009   3.830 -0.5949  0.2208 -0.5317
 9264WAT     H237763   2.404   3.043   3.770 -1.5074  0.0042  1.1088
 9264WAT    EPW37764   2.445   3.008   3.827 -0.0504 -0.1720 -0.1907
 9265WAT      O37765   7.128   0.009   4.053  0.5787 -0.5354  0.6562
 9265WAT     H137766   7.143   0.090   4.027 -1.2306  0.7478  3.1438
 9265WAT     H237767   7.186  -0.004   4.116  0.8276 -1.1747  0.3045
 9265WAT    EPW37768   7.139   0.019   4.058 -0.1089 -0.2923 -0.2718
 9266WAT      O37769   1.440   7.783   7.225 -0.0346  0.0144 -0.3447
 9266WAT     H137770   1.424   7.843   7.286  0.4235 -0.1874 -0.0185
 9266WAT     H237771   1.472   7.829   7.158 -2.6460  0.5481 -1.3506
 9266WAT    EPW37772   1.443   7.799   7.224 -0.5155  0.1194  0.0948
 9267WAT      O37773   1.354   7.808   1.457 -0.0594 -0.6350  0.1233
 9267WAT     H137774   1.268   7.795   1.453 -0.1169 -0.4884  0.8128
 9267WAT     H237775   1.373   7.800   1.542 -0.0595  3.3294  0.6982
 9267WAT    EPW37776   1.344   7.805   1.469  0.1035  0.2178 -0.1912
 9268WAT      O37777   3.293   0.241   5.344 -0.4685 -0.4053 -0.2466
 9268WAT     H137778   3.320   0.289   5.276 -0.7780  1.2661  0.7348
 9268WAT     H237779   3.352   0.259   5.406 -1.0705 -0.6409  0.4049
 9268WAT    EPW37780   3.306   0.251   5.343 -0.5843 -0.2118  0.7496
 9269WAT      O37781   2.171   1.642   7.522 -0.4696 -0.2591  0.2998
 9269WAT     H137782   2.203   1.681   7.451  0.8522 -0.8659  0.5372
 9269WAT     H237783   2.090   1.619   7.499 -0.3369  0.2641 -0.7258
 9269WAT    EPW37784   2.164   1.645   7.508 -0.0852  0.4992 -0.1597
 9270WAT      O37785   4.333   2.318   3.993 -0.1834 -0.0420 -0.0561
 9270WAT     H137786   4.387   2.386   3.994  1.2004 -1.1049 -0.5233
 9270WAT     H237787   4.333   2.292   3.910 -0.9422 -0.4418  0.0520
 9270WAT    EPW37788   4.341   2.324   3.981 -0.6111 -0.4283  0.2852
 9271WAT      O37789   1.906   7.939   3.490  0.4521  0.5262  0.3479
 9271WAT     H137790   1.937   8.018   3.471  0.0222  0.0190 -3.1533
 9271WAT     H237791   1.820   7.952   3.497  0.4334  0.4659  0.2395
 9271WAT    EPW37792   1.897   7.953   3.488  0.0026  0.3075 -0.4187
 9272WAT      O37793   0.792   0.947   0.561 -0.0008 -0.2684 -0.3641
 9272WAT     H137794   0.806   1.025   0.596 -0.4142  0.3842 -1.5851
 9272WAT     H237795   0.872   0.910   0.560  0.0158 -0.3026  1.1731
 9272WAT    EPW37796   0.806   0.953   0.566 -0.1652  0.1728 -0.1258
 9273WAT      O37797   3.770   3.487   7.800  0.1681  0.4336  0.0306
 9273WAT     H137798   3.691   3.461   7.774  0.2431  1.0887 -0.9125
 9273WAT     H237799   3.766   3.482   7.887 -0.3231 -1.2053 -0.0525
 9273WAT    EPW37800   3.758   3.482   7.809 -0.0534 -0.1795 -0.2543
 9274WAT      O37801   3.195   5.376   1.528 -0.1047  0.2955 -0.2010
 9274WAT     H137802   3.181   5.363   1.613 -0.5717  0.5003 -0.2417
 9274WAT     H237803   3.163   5.456   1.514  0.5591  0.5262 -0.4405
 9274WAT    EPW37804   3.188   5.386   1.538 -0.1812  0.1662 -0.1195
 9275WAT      O37805   1.946   5.402  -0.005  0.2799 -0.4754 -0.1858
 9275WAT     H137806   1.888   5.340   0.015  0.4552 -0.1000  1.7381
 9275WAT     H237807   2.023   5.364   0.012  0.3972  0.1494  0.7496
 9275WAT    EPW37808   1.949   5.387   0.001 -0.4773  0.2747  0.7409
 9276WAT      O37809   0.787   5.368   4.126 -0.0411  0.2950 -0.1435
 9276WAT     H137810   0.871   5.387   4.139  0.0274 -0.8307  1.2457
 9276WAT     H237811   0.784   5.344   4.042  1.0227  0.2788 -0.1855
 9276WAT    EPW37812   0.799   5.367   4.115  0.2976  0.5173  0.2250
 9277WAT      O37813   1.800   3.678   6.804  0.3705 -0.5377  0.2253
 9277WAT     H137814   1.742   3.645   6.860 -0.4662  1.3885  0.5784
 9277WAT     H237815   1.877   3.659   6.841 -0.1276 -0.5153  1.3271
 9277WAT    EPW37816   1.803   3.671   6.818 -0.7285 -0.0911 -0.1554
 9278WAT      O37817   3.114   0.309   7.555 -0.2512  0.7030 -0.5479
 9278WAT     H137818   3.082   0.359   7.492 -1.6337  0.9436  0.2972
 9278WAT     H237819   3.152   0.366   7.610 -0.6149  0.6887 -0.2770
 9278WAT    EPW37820   3.115   0.325   7.554  0.5607  0.0546  0.5072
 9279WAT      O37821   3.122   7.585   7.703  0.2367  0.2321 -0.2579
 9279WAT     H137822   3.035   7.585   7.707  0.2013 -1.8359 -0.0132
 9279WAT     H237823   3.138   7.602   7.619 -0.4426 -0.3100 -0.5113
 9279WAT    EPW37824   3.111   7.588   7.691  0.1353 -1.1816  0.7017
 9280WAT      O37825   3.072   6.615   4.659 -0.0816 -0.1094  0.5799
 9280WAT     H137826   3.084   6.567   4.730  0.2701  0.2564  0.7738
 9280WAT     H237827   3.109   6.568   4.596  2.6466  1.0262  1.1716
 9280WAT    EPW37828   3.079   6.601   4.660 -0.6070  0.1451  0.4533
 9281WAT      O37829   2.354   5.851   3.548  0.3857  0.2855 -0.1033
 9281WAT     H137830   2.351   5.823   3.630  0.4623  1.1048  0.1843
 9281WAT     H237831   2.367   5.778   3.502 -1.7184 -0.4838  0.4076
 9281WAT    EPW37832   2.356   5.836   3.553 -0.5542  0.8246 -0.8963
 9282WAT      O37833   5.070   6.058   0.509  0.4795  0.3541 -0.7872
 9282WAT     H137834   5.008   6.049   0.569  1.8776 -1.0292  0.5179
 9282WAT     H237835   5.126   6.113   0.546  0.4096  1.0370 -1.6645
 9282WAT    EPW37836   5.069   6.065   0.523  0.6105 -0.3772  0.3146
 9283WAT      O37837   1.345   7.783   4.830 -0.2074 -0.9844  0.1022
 9283WAT     H137838   1.342   7.865   4.801 -0.1605 -1.2087 -0.5690
 9283WAT     H237839   1.276   7.746   4.793  0.0369 -1.3619  0.0128
 9283WAT    EPW37840   1.335   7.790   4.820  0.1438 -0.0849  0.0119
 9284WAT      O37841   1.561   3.651   5.195 -0.2479 -0.3440  0.2216
 9284WAT     H137842   1.620   3.700   5.153 -2.6247  0.9310 -1.9146
 9284WAT     H237843   1.527   3.601   5.131  0.8142 -3.6804  1.9909
 9284WAT    EPW37844   1.565   3.651   5.179 -0.1487 -0.2294 -0.1511
 9285WAT      O37845   2.504   0.581   1.827  0.2468 -0.1483 -0.4382
 9285WAT     H137846   2.422   0.552   1.836  1.0046 -2.2231  0.5265
 9285WAT     H237847   2.526   0.553   1.748  0.0172  0.4933 -0.7367
 9285WAT    EPW37848   2.495   0.572   1.817  0.1025 -0.1555 -0.8288
 9286WAT      O37849   3.660   5.280   0.316  0.2708  0.0748  0.2050
 9286WAT     H137850   3.738   5.298   0.282 -0.1912  1.2166 -0.3044
 9286WAT     H237851   3.630   5.358   0.341 -0.3178 -0.4665  1.2610
 9286WAT    EPW37852   3.667   5.294   0.315  1.0155  0.3920  0.8321
 9287WAT      O37853   3.375   2.577   0.619  0.5099 -0.0313 -0.2004
 9287WAT     H137854   3.290   2.581   0.603  0.6159 -1.2496 -1.2842
 9287WAT     H237855   3.379   2.537   0.696  0.0918  0.2806 -0.0150
 9287WAT    EPW37856   3.363   2.571   0.628 -0.6740  0.0117  0.4758
 9288WAT      O37857   1.055   5.374   4.196  0.0317  0.6607 -0.4190
 9288WAT     H137858   1.088   5.295   4.179  0.8603  0.9092 -0.0137
 9288WAT     H237859   1.089   5.424   4.133 -0.5474  0.6866 -0.7167
 9288WAT    EPW37860   1.065   5.370   4.184  0.1523 -0.1178 -0.0105
 9289WAT      O37861   4.949   3.439   4.133  0.2288  0.0245 -0.1444
 9289WAT     H137862   4.950   3.409   4.215 -1.3433  1.0584  0.3025
 9289WAT     H237863   5.008   3.389   4.092  0.5061 -1.0165  1.4290
 9289WAT    EPW37864   4.958   3.427   4.139 -0.1955  0.2184 -0.5033
 9290WAT      O37865   2.879   3.368   6.380  0.2819 -0.2708 -0.0722
 9290WAT     H137866   2.804   3.413   6.386 -0.0585 -0.7728 -0.5504
 9290WAT     H237867   2.853   3.285   6.371  0.9004 -0.4829  0.0541
 9290WAT    EPW37868   2.864   3.363   6.379  0.4792  0.3185  0.5623
 9291WAT      O37869   3.885   6.483   7.587  0.4588  0.2669  0.2241
 9291WAT     H137870   3.901   6.430   7.655 -0.2410 -0.4229 -0.1282
 9291WAT     H237871   3.965   6.502   7.557  0.8172  0.9920  1.5207
 9291WAT    EPW37872   3.899   6.478   7.593 -0.7363 -0.2957  0.2435
 9292WAT      O37873   5.150   0.910   2.569 -0.6617 -0.2042 -0.1011
 9292WAT     H137874   5.113   0.889   2.492 -0.1209 -1.1800 -0.1147
 9292WAT     H237875   5.234   0.918   2.549 -0.4669 -0.8073  0.4577
 9292WAT    EPW37876   5.157   0.908   2.554  0.2914  0.5192 -0.4403
 9293WAT      O37877   7.897   7.229   2.828 -0.2180 -0.8263 -0.8078
 9293WAT     H137878   7.895   7.312   2.857  0.1789 -0.9521 -0.4125
 9293WAT     H237879   7.918   7.183   2.899  0.0371 -1.2190 -1.1350
 9293WAT    EPW37880   7.900   7.235   2.843  0.2871  0.2786 -1.1269
 9294WAT      O37881   4.733   6.358   2.695  0.4939  0.2135 -0.5184
 9294WAT     H137882   4.760   6.289   2.739  2.0229  0.6005 -0.7796
 9294WAT     H237883   4.740   6.424   2.752 -0.4101  0.2507 -0.4388
 9294WAT    EPW37884   4.738   6.358   2.710  0.3245 -0.7675  0.2473
 9295WAT      O37885   0.595   3.659   1.249  0.0742 -0.0683 -0.4693
 9295WAT     H137886   0.628   3.665   1.330 -0.1156  0.2043 -0.4130
 9295WAT     H237887   0.564   3.739   1.234  0.0585 -0.1371 -0.7911
 9295WAT    EPW37888   0.595   3.672   1.259  0.3101  0.1061 -0.2662
 9296WAT      O37889   3.284   6.834   5.670 -0.3254 -0.0477  0.1436
 9296WAT     H137890   3.354   6.841   5.618  0.4751 -1.4396  0.9410
 9296WAT     H237891   3.221   6.806   5.617 -0.2056  0.9260 -0.5293
 9296WAT    EPW37892   3.285   6.831   5.655  0.3014 -0.0410  0.6105
 9297WAT      O37893   3.074   5.818   7.106 -0.9104 -0.1011  0.5800
 9297WAT     H137894   2.992   5.788   7.106 -0.3748 -1.9123 -2.0159
 9297WAT     H237895   3.086   5.846   7.024  0.3950  2.3978  1.4992
 9297WAT    EPW37896   3.063   5.818   7.094  0.0677  0.4548  0.0849
 9298WAT      O37897   4.338   0.794   5.188 -0.5722 -0.0076 -0.2084
 9298WAT     H137898   4.356   0.729   5.133 -1.7415 -0.1868 -0.3926
 9298WAT     H237899   4.307   0.753   5.258 -0.0219  0.2856  0.2193
 9298WAT    EPW37900   4.336   0.778   5.190  0.5172 -0.0162  0.1879
 9299WAT      O37901   5.334   6.720   7.839  0.0339 -0.1011  0.1799
 9299WAT     H137902   5.260   6.710   7.794 -1.6421  0.3950  2.6390
 9299WAT     H237903   5.366   6.796   7.810 -1.3991  0.5902  0.3382
 9299WAT    EPW37904   5.328   6.729   7.828 -0.2600 -0.1629  0.0459
 9300WAT      O37905   3.705   2.416   1.014  0.1980 -0.0631 -0.9745
 9300WAT     H137906   3.692   2.365   0.945 -0.7371  0.9326 -1.5668
 9300WAT     H237907   3.649   2.386   1.073  1.6581 -1.5254 -0.2599
 9300WAT    EPW37908   3.695   2.404   1.012 -0.1960  0.3441 -0.2188
 9301WAT      O37909   3.832   2.571   7.138 -0.2107 -0.4022 -0.2732
 9301WAT     H137910   3.853   2.638   7.190  0.3582  0.7735 -1.9308
 9301WAT     H237911   3.834   2.502   7.191  2.4508  0.4291  0.8523
 9301WAT    EPW37912   3.835   2.570   7.154 -0.3873  0.0512 -0.1674
 9302WAT      O37913   2.853   3.819   5.494 -0.4401 -0.3433 -0.2993
 9302WAT     H137914   2.864   3.827   5.581 -0.9401 -0.1854 -0.2473
 9302WAT     H237915   2.934   3.808   5.464 -0.2915 -0.7137  0.2250
 9302WAT    EPW37916   2.867   3.819   5.503 -0.2341 -0.6227  0.0808
 9303WAT      O37917   3.894   5.783   7.456  0.9279  0.4256  0.7385
 9303WAT     H137918   3.810   5.764   7.440  0.9583  0.3646  0.6529
 9303WAT     H237919   3.906   5.859   7.416  0.8651  0.5211  0.8997
 9303WAT    EPW37920   3.883   5.791   7.448 -0.0758  0.2563 -0.1095
 9304WAT      O37921   4.957   5.443   5.287 -0.0965 -0.1101 -0.1216
 9304WAT     H137922   5.002   5.470   5.357 -1.5220  0.1213  0.7326
 9304WAT     H237923   5.017   5.443   5.224  0.8248  1.3883  0.6935
 9304WAT    EPW37924   4.973   5.447   5.288 -0.3933 -0.3961  0.5835
 9305WAT      O37925   0.759   0.163   3.876 -0.9257 -0.1156 -0.2182
 9305WAT     H137926   0.708   0.174   3.806 -0.5106 -1.0832 -0.6983
 9305WAT     H237927   0.828   0.214   3.859 -0.6949 -0.5670 -0.6585
 9305WAT    EPW37928   0.762   0.172   3.863 -0.3495  0.6013 -0.1083
 9306WAT      O37929   3.915   3.585   6.004 -0.4604 -0.6379  0.4072
 9306WAT     H137930   3.951   3.545   5.936 -1.8931  0.4418 -1.0534
 9306WAT     H237931   3.984   3.607   6.054  1.1801  2.3432 -2.7778
 9306WAT    EPW37932   3.931   3.582   6.002 -0.4958  0.0772 -0.3564
 9307WAT      O37933   2.205   5.813   5.861 -0.4407  0.2911 -0.4724
 9307WAT     H137934   2.228   5.864   5.927  2.3866  0.7113 -1.6421
 9307WAT     H237935   2.201   5.734   5.896  1.9083  0.3605  0.1351
 9307WAT    EPW37936   2.208   5.809   5.876 -0.9784  0.3444 -0.1800
 9308WAT      O37937   1.573   4.303   5.751 -0.1570 -0.2151  1.3296
 9308WAT     H137938   1.494   4.340   5.753  0.4557  1.3253 -0.5150
 9308WAT     H237939   1.555   4.219   5.737 -1.5099  0.4986 -2.1378
 9308WAT    EPW37940   1.559   4.296   5.749  0.1676  0.0911  0.6350
 9309WAT      O37941   6.752   7.184   2.974  0.1797  0.6040 -0.1032
 9309WAT     H137942   6.721   7.161   2.896  0.5488  0.8741 -0.3326
 9309WAT     H237943   6.690   7.158   3.029 -0.1215  0.4855 -0.4936
 9309WAT    EPW37944   6.738   7.177   2.970 -0.0450 -0.1508 -0.9573
 9310WAT      O37945   1.260   4.154   4.029 -0.4799  0.0652  0.4106
 9310WAT     H137946   1.291   4.174   3.950  2.9134 -1.3434  1.2205
 9310WAT     H237947   1.293   4.217   4.080  1.2076 -1.4552  1.3069
 9310WAT    EPW37948   1.269   4.167   4.025 -0.1648 -0.0130  0.4762
 9311WAT      O37949   2.090   4.139   6.945 -0.0200 -0.2301 -0.1909
 9311WAT     H137950   2.017   4.103   6.916  0.6134 -1.9300  0.1979
 9311WAT     H237951   2.105   4.205   6.890 -1.6643 -0.0441 -0.4381
 9311WAT    EPW37952   2.082   4.143   6.933 -0.0564 -0.2791 -0.1523
 9312WAT      O37953   0.434   6.736   3.160  0.2235  0.1853  0.2615
 9312WAT     H137954   0.446   6.792   3.094  0.9349  0.5780  0.7080
 9312WAT     H237955   0.359   6.763   3.195  0.3435  0.5992  0.2147
 9312WAT    EPW37956   0.424   6.748   3.155 -0.2493 -0.8495  0.5051
 9313WAT      O37957   0.969   2.922   0.368 -0.1971 -0.0326  0.0933
 9313WAT     H137958   0.920   2.850   0.376  3.2854 -2.6145  0.4585
 9313WAT     H237959   0.982   2.947   0.450  4.3735 -3.5886  0.8517
 9313WAT    EPW37960   0.963   2.915   0.381 -0.0846  0.0239 -0.1669
 9314WAT      O37961   4.218   2.119   5.153 -0.2058 -0.3060 -0.3384
 9314WAT     H137962   4.218   2.205   5.167 -0.3520 -0.2566 -0.6265
 9314WAT     H237963   4.151   2.107   5.099 -1.7874 -0.9377  1.6497
 9314WAT    EPW37964   4.208   2.130   5.147 -0.0449 -0.5846 -0.2030
 9315WAT      O37965   2.919   5.126   4.048  0.2690 -1.2287 -0.5019
 9315WAT     H137966   2.848   5.083   4.075  0.4026 -0.8022  0.5596
 9315WAT     H237967   2.962   5.143   4.122  0.8505 -0.3910 -1.0217
 9315WAT    EPW37968   2.915   5.122   4.063 -0.3111 -0.5985 -0.1122
 9316WAT      O37969   1.404   3.380   2.147  0.0533  0.0662 -0.1506
 9316WAT     H137970   1.318   3.369   2.132 -0.4679 -0.9891  2.9791
 9316WAT     H237971   1.432   3.301   2.170  1.1142  0.9667  1.9317
 9316WAT    EPW37972   1.395   3.367   2.148  0.3672  0.1554  0.0897
 9317WAT      O37973   2.791   7.096   7.950  0.1819  0.4720  0.2024
 9317WAT     H137974   2.757   7.143   7.885 -0.0362 -0.7454 -0.5934
 9317WAT     H237975   2.723   7.050   7.979  0.8793 -1.1957 -0.6961
 9317WAT    EPW37976   2.776   7.096   7.945 -0.1770  0.3802  0.0602
 9318WAT      O37977   2.356   3.201   7.260  0.8219  0.0889  0.1131
 9318WAT     H137978   2.370   3.268   7.313  0.6599 -0.3329  0.7012
 9318WAT     H237979   2.413   3.214   7.195  3.2098 -0.9275  1.8382
 9318WAT    EPW37980   2.366   3.213   7.258  0.1140 -0.4354  0.0227
 9319WAT      O37981   4.474   6.366   7.526 -0.5947  0.0049  0.2055
 9319WAT     H137982   4.424   6.362   7.455  0.3294  1.6887 -0.6120
 9319WAT     H237983   4.555   6.360   7.495 -0.2020 -0.7247  1.2943
 9319WAT    EPW37984   4.479   6.365   7.511  0.8559 -0.0494 -0.8855
 9320WAT      O37985   1.685   2.955   7.043  0.5043 -0.9108  0.0772
 9320WAT     H137986   1.659   2.905   6.976  2.2114 -2.5339  0.5498
 9320WAT     H237987   1.661   3.035   7.018 -2.6242 -1.8993 -0.5873
 9320WAT    EPW37988   1.678   2.959   7.029 -0.2966 -0.3963  0.3928
 9321WAT      O37989   3.549   5.228   6.261  0.6569 -0.3754  0.3561
 9321WAT     H137990   3.625   5.186   6.270  1.2228  0.6667  0.6922
 9321WAT     H237991   3.509   5.216   6.338  0.9040 -0.1597  0.5231
 9321WAT    EPW37992   3.555   5.220   6.274  0.1421  0.4902 -0.1747
 9322WAT      O37993   4.905   0.982   5.511  0.8250 -0.0789  0.5277
 9322WAT     H137994   4.885   0.958   5.593 -0.1318 -2.2087 -0.2659
 9322WAT     H237995   4.992   0.980   5.511  0.8400 -0.1295  1.4682
 9322WAT    EPW37996   4.915   0.978   5.523 -0.4042  0.1803 -0.2820
 9323WAT      O37997   1.922   3.254   5.199  0.0752  0.0500  0.5021
 9323WAT     H137998   1.997   3.229   5.163  1.1306  1.9157  1.2701
 9323WAT     H237999   1.929   3.341   5.203 -1.0089  0.1041  2.9438
 9323WAT    EPW38000   1.934   3.263   5.194 -0.0353 -1.2787  0.0455
 9324WAT      O38001   1.576   1.411   7.873  0.2014  0.2811  0.0893
 9324WAT     H138002   1.573   1.496   7.893  1.8027  0.3118  0.3826
 9324WAT     H238003   1.590   1.373   7.950  3.8379  0.1707 -0.4496
 9324WAT    EPW38004   1.578   1.418   7.887 -0.1936 -0.2544  0.5174
 9325WAT      O38005   3.950   2.691   5.766  0.5551 -0.5458 -0.2043
 9325WAT     H138006   3.978   2.704   5.685 -1.0839 -0.6309 -0.8359
 9325WAT     H238007   3.982   2.758   5.811  0.2278  0.3531 -1.2771
 9325WAT    EPW38008   3.959   2.703   5.761 -0.3636 -0.0264 -0.6051
 9326WAT      O38009   3.904   7.069   5.334 -0.0331 -0.0535  0.1091
 9326WAT     H138010   3.940   7.120   5.273 -0.0890 -0.1016  0.0359
 9326WAT     H238011   3.822   7.099   5.339 -0.1924 -0.4194 -0.2444
 9326WAT    EPW38012   3.897   7.081   5.325  0.3536  0.3609  0.0094
 9327WAT      O38013   7.545   3.561   4.540  0.3614 -0.2949 -0.7863
 9327WAT     H138014   7.630   3.551   4.556  0.4269  2.7403  2.0411
 9327WAT     H238015   7.507   3.501   4.592  0.8215  0.3660  0.3600
 9327WAT    EPW38016   7.552   3.551   4.550 -0.0405  0.3137  0.2665
 9328WAT      O38017   1.381   3.072   7.598 -0.3197 -0.0134 -0.3085
 9328WAT     H138018   1.455   3.036   7.570 -1.1829 -2.5304  0.3437
 9328WAT     H238019   1.325   3.058   7.532 -1.4339 -2.7776  1.0441
 9328WAT    EPW38020   1.384   3.065   7.584 -0.3034  0.3455 -0.1077
 9329WAT      O38021   5.182   0.732   0.870  0.5011 -0.2732 -0.0875
 9329WAT     H138022   5.261   0.737   0.834  0.5246 -0.5611 -0.0746
 9329WAT     H238023   5.128   0.738   0.801  0.5194  0.4573 -0.0477
 9329WAT    EPW38024   5.186   0.734   0.854  0.5441  0.0344 -0.1575
 9330WAT      O38025   2.585   4.673   6.076  0.1290 -0.6293  0.4351
 9330WAT     H138026   2.606   4.673   5.991  0.0654 -0.3717  0.4195
 9330WAT     H238027   2.631   4.606   6.108  0.4560 -0.4840  0.2728
 9330WAT    EPW38028   2.595   4.663   6.068  0.1385 -0.7837  0.3577
 9331WAT      O38029   1.420   3.208   5.708  0.0388 -0.2814  0.0695
 9331WAT     H138030   1.362   3.159   5.664  0.9307 -1.0633 -0.2580
 9331WAT     H238031   1.409   3.183   5.791  1.5201 -2.2049 -0.2445
 9331WAT    EPW38032   1.410   3.197   5.714  0.1331 -0.2417  0.0237
 9332WAT      O38033   2.773   4.367   6.507  0.2902 -0.0755  0.2943
 9332WAT     H138034   2.752   4.450   6.493  2.3457  0.2051 -1.6223
 9332WAT     H238035   2.708   4.322   6.470  0.4966  0.7062 -1.0596
 9332WAT    EPW38036   2.761   4.372   6.500  0.3188 -0.3656  0.3083
 9333WAT      O38037   4.537   3.960   5.417  0.3479  0.3720  0.2262
 9333WAT     H138038   4.552   4.043   5.439  0.4789  0.5005 -0.3127
 9333WAT     H238039   4.450   3.955   5.411  0.3962  0.9795 -1.5514
 9333WAT    EPW38040   4.526   3.971   5.419  0.3270  0.7499 -0.3851
 9334WAT      O38041   6.035   4.504   2.381  0.2652  0.2604  0.6764
 9334WAT     H138042   5.961   4.501   2.335  0.2034 -3.9493  0.6777
 9334WAT     H238043   6.017   4.560   2.445 -1.5997  2.0405 -1.2191
 9334WAT    EPW38044   6.022   4.512   2.384 -0.3161 -0.6886 -0.2429
 9335WAT      O38045   2.270   6.958   2.542 -0.0241 -0.3652  0.0609
 9335WAT     H138046   2.344   6.914   2.530 -0.4781 -1.0805 -0.1599
 9335WAT     H238047   2.293   7.024   2.595  0.7028 -0.7466  0.2252
 9335WAT    EPW38048   2.284   6.961   2.548  0.6307  0.1719 -0.2304
 9336WAT      O38049   1.943   1.683   6.524  0.2601  0.8422  0.3758
 9336WAT     H138050   1.996   1.614   6.516  0.6752  0.9844  1.7234
 9336WAT     H238051   1.868   1.656   6.489  0.4352 -0.2617  0.8387
 9336WAT    EPW38052   1.940   1.669   6.517  0.1106 -0.3142 -0.2962
 9337WAT      O38053   1.873   5.162   2.016  0.2526  0.0578  0.0897
 9337WAT     H138054   1.904   5.190   1.939  0.8344  0.4469  0.4600
 9337WAT     H238055   1.852   5.079   2.001  2.0435 -0.4096 -0.0270
 9337WAT    EPW38056   1.875   5.154   2.002  0.3396  0.2666  0.8221
 9338WAT      O38057   4.358   6.462   1.090 -0.1371 -0.1792  0.0807
 9338WAT     H138058   4.347   6.428   1.011  1.1596 -0.3585 -0.0283
 9338WAT     H238059   4.344   6.395   1.144 -1.0623 -0.0478  0.0271
 9338WAT    EPW38060   4.354   6.447   1.086  0.3492  0.7415 -0.0602
 9339WAT      O38061   4.206   5.664   0.257  0.1940 -0.7198  0.1218
 9339WAT     H138062   4.138   5.715   0.277  0.9103 -0.1613  1.2124
 9339WAT     H238063   4.222   5.684   0.174  0.2316  0.5899  0.4185
 9339WAT    EPW38064   4.198   5.674   0.248 -0.7024  0.6600  0.0037
 9340WAT      O38065   0.740   4.535   2.138  0.3109  0.1719  0.0993
 9340WAT     H138066   0.802   4.482   2.169  0.1367 -0.1253 -0.0634
 9340WAT     H238067   0.778   4.614   2.141  0.1901  0.2029  1.3730
 9340WAT    EPW38068   0.755   4.539   2.143  0.3043 -0.0860 -0.0250
 9341WAT      O38069   3.381   7.868   1.314  0.1377  0.1544  0.1458
 9341WAT     H138070   3.356   7.860   1.231  1.0009  0.6738 -0.1752
 9341WAT     H238071   3.315   7.832   1.359 -0.3456 -0.1097 -0.7566
 9341WAT    EPW38072   3.367   7.862   1.309  0.1397 -0.0888  0.6286
 9342WAT      O38073   1.171   0.506   3.634 -0.3265 -0.4746 -0.1321
 9342WAT     H138074   1.185   0.443   3.576 -0.3376 -0.6376  0.0447
 9342WAT     H238075   1.105   0.552   3.599 -0.6562 -0.8532 -0.0227
 9342WAT    EPW38076   1.163   0.504   3.620 -0.5830 -0.4548 -0.2095
 9343WAT      O38077   4.803   5.966   3.796  0.2352 -0.6089  0.0363
 9343WAT     H138078   4.767   5.982   3.873 -0.7336  1.2040 -0.7553
 9343WAT     H238079   4.877   6.012   3.798  0.5355 -1.0771  0.0920
 9343WAT    EPW38080   4.809   5.975   3.808 -0.1091  0.1762  0.4717
 9344WAT      O38081   2.886   6.033   4.931  0.6920  0.5901  0.3564
 9344WAT     H138082   2.837   6.100   4.906  0.5640 -0.0290 -1.1607
 9344WAT     H238083   2.860   6.018   5.013 -0.1006  1.6297  0.3209
 9344WAT    EPW38084   2.875   6.041   4.940 -0.0051 -0.5759  0.6726
 9345WAT      O38085   5.916   1.774   1.959 -0.0744  0.7539  0.1014
 9345WAT     H138086   5.964   1.703   1.940 -0.7377  0.1362  0.7078
 9345WAT     H238087   5.964   1.816   2.018 -0.0125  0.4376  0.2762
 9345WAT    EPW38088   5.930   1.769   1.965  0.6913 -0.6640  0.0283
 9346WAT      O38089   2.602   0.763   6.359 -0.9036 -0.1303  0.7091
 9346WAT     H138090   2.516   0.751   6.353 -1.1357  1.6365  0.0601
 9346WAT     H238091   2.632   0.684   6.382 -2.5466 -1.1379 -0.3741
 9346WAT    EPW38092   2.594   0.750   6.361  0.3168 -0.2322 -0.0379
 9347WAT      O38093   0.648   0.115   4.113 -0.1526  0.5679 -0.0964
 9347WAT     H138094   0.684   0.118   4.033  2.8360  0.9585  1.1280
 9347WAT     H238095   0.616   0.195   4.124  0.5180  0.9019 -0.4825
 9347WAT    EPW38096   0.649   0.127   4.103 -0.8547  0.0840 -0.4377
 9348WAT      O38097   1.647   1.039   0.880 -0.6769  0.4693 -0.6891
 9348WAT     H138098   1.599   1.103   0.845 -0.6521 -0.5112 -2.6151
 9348WAT     H238099   1.721   1.040   0.834 -0.7084 -0.9906 -0.8287
 9348WAT    EPW38100   1.651   1.049   0.868  0.3921 -0.2385  0.4360
 9349WAT      O38101   2.388   3.794   6.568  0.2913  0.6814 -0.2174
 9349WAT     H138102   2.420   3.727   6.614 -1.1035  0.8163  1.0313
 9349WAT     H238103   2.357   3.757   6.496  2.3220  0.4343 -1.0421
 9349WAT    EPW38104   2.389   3.779   6.564  0.0716  0.1096  0.1521
 9350WAT      O38105   2.052   7.466   6.785 -0.0949  0.1756 -0.1780
 9350WAT     H138106   2.100   7.518   6.734 -2.2203  1.8425 -0.6166
 9350WAT     H238107   1.975   7.462   6.745 -0.9393 -0.8852  1.4089
 9350WAT    EPW38108   2.048   7.473   6.772 -0.3912 -0.0151  0.0468
 9351WAT      O38109   5.186   3.067   5.474 -0.3419 -0.6673  0.5666
 9351WAT     H138110   5.237   2.997   5.464  0.2237 -0.3204  0.9710
 9351WAT     H238111   5.186   3.080   5.560 -1.1125 -0.6482  0.5770
 9351WAT    EPW38112   5.193   3.058   5.485  0.3456 -0.0613 -0.2891
 9352WAT      O38113   3.049   4.785   7.217 -0.4432 -0.0835  0.3429
 9352WAT     H138114   3.049   4.700   7.201  0.4749  0.0979 -0.8180
 9352WAT     H238115   3.108   4.794   7.281  1.3121 -0.1027 -1.1962
 9352WAT    EPW38116   3.058   4.774   7.224  0.3874 -0.0422  0.0892
 9353WAT      O38117   4.527   1.150   4.410 -0.4650  0.0668 -0.4245
 9353WAT     H138118   4.491   1.209   4.464  0.4247  0.1985  0.0412
 9353WAT     H238119   4.472   1.082   4.414 -0.9743  0.4821 -0.1897
 9353WAT    EPW38120   4.513   1.149   4.419 -0.1921 -0.5189 -0.2458
 9354WAT      O38121   7.788   0.775   3.726 -0.2317  0.2948 -0.1190
 9354WAT     H138122   7.852   0.795   3.782  0.5740 -1.1481 -0.4919
 9354WAT     H238123   7.717   0.809   3.764  0.8073  2.5932 -0.0572
 9354WAT    EPW38124   7.787   0.783   3.740 -0.4523  0.0585 -0.2529
 9355WAT      O38125   0.331   1.471   0.275 -0.4163  0.2255  0.3059
 9355WAT     H138126   0.314   1.476   0.360 -3.5995 -1.3520 -0.0813
 9355WAT     H238127   0.419   1.468   0.272 -0.1254  1.6172  3.3508
 9355WAT    EPW38128   0.342   1.471   0.287  0.0159  0.2502 -0.0877
 9356WAT      O38129   6.004   4.408   0.172  0.2028 -0.1323 -0.4434
 9356WAT     H138130   5.920   4.410   0.150 -0.1173  1.3103  0.7049
 9356WAT     H238131   6.038   4.475   0.129  0.2659  0.6471  0.7691
 9356WAT    EPW38132   5.997   4.418   0.163 -0.5102  0.5944 -0.1646
 9357WAT      O38133   5.888   7.646   5.642 -0.1277 -0.2758 -0.5066
 9357WAT     H138134   5.953   7.593   5.667 -0.6333 -0.5460  0.2631
 9357WAT     H238135   5.842   7.658   5.715 -3.1083 -3.0582 -1.7037
 9357WAT    EPW38136   5.891   7.640   5.656 -0.3701  0.4152  0.2882
 9358WAT      O38137   5.375   6.486   1.126 -0.6580  0.3195 -0.3840
 9358WAT     H138138   5.328   6.419   1.154 -1.0352  0.3746 -0.8814
 9358WAT     H238139   5.351   6.551   1.179  0.5980 -0.2135  0.8874
 9358WAT    EPW38140   5.364   6.486   1.138 -0.0801  0.2513  0.9199
 9359WAT      O38141   5.832   4.637   5.621  0.5068 -0.4523 -0.2851
 9359WAT     H138142   5.853   4.678   5.547  0.1420 -0.4995 -0.4147
 9359WAT     H238143   5.751   4.664   5.638  1.5135  1.7561  1.6071
 9359WAT    EPW38144   5.823   4.647   5.613 -0.6195 -0.0518  0.4485
 9360WAT      O38145   1.081   7.931   1.018  0.0915 -0.1399  0.6752
 9360WAT     H138146   1.001   7.898   1.028 -0.7266  1.6148  0.3724
 9360WAT     H238147   1.109   7.940   1.100  0.6407 -2.1504  0.7614
 9360WAT    EPW38148   1.073   7.927   1.031  0.4511 -0.3234 -0.2444
 9361WAT      O38149   2.309   0.775   4.033 -0.1637  1.0672 -0.0118
 9361WAT     H138150   2.371   0.715   4.036 -0.7195  0.5046  0.9436
 9361WAT     H238151   2.236   0.730   4.054 -0.7106  1.9044 -0.0692
 9361WAT    EPW38152   2.307   0.760   4.037 -0.3216 -0.1438  0.1465
 9362WAT      O38153   0.623   1.434   1.181 -0.2445 -0.8427  0.4968
 9362WAT     H138154   0.685   1.407   1.126 -2.1402 -0.9191 -1.7953
 9362WAT     H238155   0.552   1.440   1.130 -2.1117 -0.6539  2.9181
 9362WAT    EPW38156   0.621   1.431   1.165 -0.4942  0.7090  0.3487
 9363WAT      O38157   3.245   5.368   7.323 -1.0682 -0.0878 -0.2929
 9363WAT     H138158   3.302   5.433   7.334  0.5512 -1.4323 -0.2662
 9363WAT     H238159   3.236   5.362   7.237 -2.1786  0.8998 -0.2791
 9363WAT    EPW38160   3.252   5.377   7.312 -0.2112 -0.2355  0.4825
 9364WAT      O38161   5.879   6.820   2.122  0.1290  0.3785  0.0571
 9364WAT     H138162   5.926   6.839   2.192 -0.7093  1.2599  0.4019
 9364WAT     H238163   5.939   6.812   2.059  0.6997  2.9628  0.1444
 9364WAT    EPW38164   5.895   6.822   2.123  0.1684 -0.0446  0.0900
 9365WAT      O38165   5.430   5.461   0.751  0.2072 -0.1097  0.4350
 9365WAT     H138166   5.498   5.453   0.805 -1.9817 -0.7533  3.3474
 9365WAT     H238167   5.361   5.459   0.804 -2.1136  2.1211 -2.1374
 9365WAT    EPW38168   5.430   5.460   0.767  0.1194 -0.0573  0.0953
 9366WAT      O38169   2.190   1.247   7.100 -0.4011  0.2257  0.4418
 9366WAT     H138170   2.195   1.168   7.136  0.5014 -0.3019 -0.8031
 9366WAT     H238171   2.266   1.256   7.059  0.2180  2.4442  1.9211
 9366WAT    EPW38172   2.202   1.237   7.100  0.8259 -0.4922  0.6128
 9367WAT      O38173   3.430   1.825   5.885 -0.1960 -0.2819  0.4405
 9367WAT     H138174   3.415   1.890   5.941 -1.5446 -0.4406  0.3111
 9367WAT     H238175   3.413   1.753   5.932 -1.0627 -0.4259 -0.0662
 9367WAT    EPW38176   3.425   1.824   5.900 -0.4023  0.1709  0.4383
 9368WAT      O38177   4.798   2.998   5.899 -0.3841 -0.3873  0.7782
 9368WAT     H138178   4.739   2.934   5.901  0.0297 -0.7776  0.8129
 9368WAT     H238179   4.840   2.989   5.975 -0.4627  0.0649  0.8781
 9368WAT    EPW38180   4.796   2.987   5.911  0.0444 -0.3440  0.5230
 9369WAT      O38181   1.541   2.704   1.364  0.4130 -0.3392  0.2939
 9369WAT     H138182   1.560   2.626   1.400  0.8165 -0.1006  0.6073
 9369WAT     H238183   1.608   2.719   1.310  0.3532 -0.1981  0.2583
 9369WAT    EPW38184   1.554   2.695   1.362  0.1346 -0.1604 -0.0574
 9370WAT      O38185   2.875   4.697   5.764 -0.4451 -0.2621 -0.0068
 9370WAT     H138186   2.802   4.744   5.777 -1.1988 -0.0207 -3.8252
 9370WAT     H238187   2.922   4.748   5.711 -0.2387 -2.7198 -2.4264
 9370WAT    EPW38188   2.871   4.712   5.758  0.1777 -0.0863  0.4208
 9371WAT      O38189   5.376   2.705   6.400 -0.3715  0.2733 -0.2917
 9371WAT     H138190   5.309   2.697   6.457 -1.0928 -1.1756 -1.2838
 9371WAT     H238191   5.431   2.642   6.425 -0.7811 -0.4980 -1.2774
 9371WAT    EPW38192   5.374   2.694   6.412  0.3367  0.2110  0.0244
 9372WAT      O38193   2.010   2.919   4.468  0.1697 -0.3764  0.2664
 9372WAT     H138194   2.089   2.899   4.438 -0.0138 -0.8717  0.0912
 9372WAT     H238195   1.968   2.950   4.398 -0.3171 -1.7075 -0.0632
 9372WAT    EPW38196   2.015   2.920   4.453 -0.3854  0.6087 -0.0674
 9373WAT      O38197   1.489   5.258   4.099 -0.1813  0.2035 -0.1420
 9373WAT     H138198   1.542   5.327   4.089 -0.0916  0.4008  1.4311
 9373WAT     H238199   1.526   5.214   4.164 -2.0703  0.4727  1.1618
 9373WAT    EPW38200   1.502   5.262   4.107 -0.6843 -1.1929 -0.2980
 9374WAT      O38201   2.356   4.256   7.968 -0.2523 -0.4880  0.0176
 9374WAT     H138202   2.281   4.298   7.950  0.5389  0.9354 -0.1437
 9374WAT     H238203   2.359   4.192   7.909  0.0821  1.2869 -2.0197
 9374WAT    EPW38204   2.345   4.253   7.956  0.7327 -0.0353 -0.6308
 9375WAT      O38205   3.380   6.999   6.170 -0.0296  0.7059  0.0322
 9375WAT     H138206   3.372   7.081   6.141 -0.8337  1.3175  1.8615
 9375WAT     H238207   3.386   7.008   6.256  0.4390 -1.1373  0.2295
 9375WAT    EPW38208   3.379   7.012   6.178 -0.0232  0.1039 -0.1264
 9376WAT      O38209   3.380   1.528   3.745 -0.1583  0.4315 -0.0667
 9376WAT     H138210   3.388   1.518   3.659 -0.8658 -0.0939 -0.0781
 9376WAT     H238211   3.414   1.455   3.778  1.2700  1.1711  0.1685
 9376WAT    EPW38212   3.386   1.516   3.737 -0.1078 -0.0776 -0.7022
 9377WAT      O38213   5.894   2.702   1.890 -0.2334  0.0006 -0.2475
 9377WAT     H138214   5.830   2.717   1.947  0.8932  1.6703  0.7029
 9377WAT     H238215   5.883   2.619   1.867 -1.9848 -0.1096  0.8035
 9377WAT    EPW38216   5.883   2.692   1.895  0.7649  0.3156  0.1176
 9378WAT      O38217   1.258   1.691   5.224 -0.2501 -0.2078  0.6591
 9378WAT     H138218   1.217   1.761   5.256 -0.1957 -0.4803  1.3477
 9378WAT     H238219   1.304   1.722   5.157  0.3915  0.5723  1.4353
 9378WAT    EPW38220   1.259   1.706   5.219 -0.0680  0.3822 -0.1585
 9379WAT      O38221   0.942   6.536   8.006 -0.1500 -0.6860 -0.1781
 9379WAT     H138222   0.986   6.461   7.997  1.9501  0.3639  0.6338
 9379WAT     H238223   0.894   6.541   7.933  0.7413 -2.1331 -0.9049
 9379WAT    EPW38224   0.941   6.526   7.994 -0.0643 -0.0167  0.6106
 9380WAT      O38225   3.970   2.873   6.787 -0.0944  0.1893  0.4803
 9380WAT     H138226   3.922   2.940   6.813  1.2505  0.6631  1.8976
 9380WAT     H238227   4.048   2.888   6.823  0.5828 -1.5101 -0.1533
 9380WAT    EPW38228   3.975   2.885   6.796  0.3241 -0.3473  0.1610
 9381WAT      O38229   0.847   5.865   5.071  0.3845  0.1435  0.1574
 9381WAT     H138230   0.763   5.851   5.092  0.5973 -1.0939  0.2438
 9381WAT     H238231   0.843   5.908   4.995 -0.3397 -2.8659 -1.6465
 9381WAT    EPW38232   0.834   5.870   5.063  0.1277 -0.1129 -0.6137
 9382WAT      O38233   4.156   1.364   3.366 -0.8098 -0.1990  0.0846
 9382WAT     H138234   4.238   1.393   3.369  0.7836 -4.2452  1.0351
 9382WAT     H238235   4.123   1.390   3.443  0.4727 -0.6910  0.8389
 9382WAT    EPW38236   4.163   1.372   3.378  0.1879 -0.1641 -0.0451
 9383WAT      O38237   2.987   6.652   3.704 -0.4945 -0.2671  0.6954
 9383WAT     H138238   2.949   6.672   3.780  0.2201  1.7564  0.5885
 9383WAT     H238239   2.947   6.704   3.646  0.5067 -0.0965  0.1132
 9383WAT    EPW38240   2.976   6.663   3.706  0.2289  0.6347 -0.5182
 9384WAT      O38241   1.466   6.007   3.043  0.3756  0.2349 -0.3674
 9384WAT     H138242   1.419   6.018   3.116  0.2673 -2.0370 -0.0482
 9384WAT     H238243   1.500   5.927   3.051  0.0455 -0.2643 -2.9766
 9384WAT    EPW38244   1.464   5.997   3.055 -0.1247  0.1676  0.1237
 9385WAT      O38245   1.241   4.040   5.579 -0.5474 -0.1803  0.0189
 9385WAT     H138246   1.203   4.098   5.632  0.1819 -1.0413  1.5776
 9385WAT     H238247   1.228   4.073   5.500 -3.3687  0.2176  0.5388
 9385WAT    EPW38248   1.233   4.053   5.575  0.0313  0.1727 -0.3662
 9386WAT      O38249   3.451   4.279   0.575  0.6796  0.9618  0.5538
 9386WAT     H138250   3.439   4.202   0.535 -0.8244  0.7168  1.3828
 9386WAT     H238251   3.468   4.334   0.509  1.8241 -0.0689 -0.0380
 9386WAT    EPW38252   3.451   4.276   0.559 -0.0804 -0.1598 -0.0632
 9387WAT      O38253   2.893   6.968   6.284  0.4407  0.3747  0.4988
 9387WAT     H138254   2.879   6.957   6.199 -0.9874 -0.8227  0.8478
 9387WAT     H238255   2.930   6.893   6.308 -1.1726 -0.2053  1.3006
 9387WAT    EPW38256   2.897   6.956   6.275  0.2808  0.4475  0.0179
 9388WAT      O38257   7.671   2.980   0.924 -0.4724  0.1877  0.0581
 9388WAT     H138258   7.677   2.904   0.965  0.4667 -0.2023 -0.7811
 9388WAT     H238259   7.625   3.029   0.980 -2.5255 -1.4506 -0.0709
 9388WAT    EPW38260   7.665   2.976   0.938  0.5566  0.0176 -0.3261
 9389WAT      O38261   4.793   4.358   6.991  0.0032 -0.2821  0.2418
 9389WAT     H138262   4.746   4.333   6.921  1.9620  0.5266 -1.4673
 9389WAT     H238263   4.790   4.445   6.988  0.7140 -0.2359  0.7243
 9389WAT    EPW38264   4.785   4.367   6.980 -0.9003 -0.6065 -0.1456
 9390WAT      O38265   2.172   4.175   6.498 -0.3012  0.0745 -0.4542
 9390WAT     H138266   2.192   4.118   6.561 -0.5899  0.6546  0.1788
 9390WAT     H238267   2.229   4.240   6.511 -0.4477  0.2572 -0.7167
 9390WAT    EPW38268   2.183   4.176   6.509 -0.1247 -0.4304 -0.5003
 9391WAT      O38269   3.557   6.656   4.792 -0.3407 -0.0026 -0.4541
 9391WAT     H138270   3.637   6.622   4.795 -0.7152 -0.8492  0.4424
 9391WAT     H238271   3.512   6.610   4.851 -1.4528  0.5624 -0.8182
 9391WAT    EPW38272   3.562   6.644   4.801  0.1082 -0.3183 -0.2091
 9392WAT      O38273   1.493   5.243   7.737  0.1490  0.2196 -0.4106
 9392WAT     H138274   1.562   5.227   7.686  0.6201 -1.7266  0.7267
 9392WAT     H238275   1.426   5.213   7.690  0.0080  2.0065 -1.4681
 9392WAT    EPW38276   1.493   5.236   7.722 -0.0555  0.6006 -0.2122
 9393WAT      O38277   2.680   7.771   4.459 -0.1965 -0.0269  0.4674
 9393WAT     H138278   2.639   7.745   4.532  0.4395  0.5127  1.0246
 9393WAT     H238279   2.730   7.702   4.438 -0.4920 -0.2397  0.4418
 9393WAT    EPW38280   2.681   7.757   4.466 -0.2801 -0.7255 -0.6531
 9394WAT      O38281   3.318   7.885   5.393  0.3081 -0.2060  0.2534
 9394WAT     H138282   3.365   7.885   5.466  1.4811  0.0488 -0.4682
 9394WAT     H238283   3.361   7.941   5.341  0.1492 -1.1908 -1.0053
 9394WAT    EPW38284   3.332   7.893   5.396 -0.4779 -0.3742  0.4787
 9395WAT      O38285   4.744   0.616   6.659  0.1930 -0.1822  0.0867
 9395WAT     H138286   4.812   0.664   6.632 -1.1774  1.1686 -1.1382
 9395WAT     H238287   4.678   0.672   6.660 -0.8576 -1.3454  1.6990
 9395WAT    EPW38288   4.744   0.631   6.656 -0.3064 -0.3861 -0.1938
 9396WAT      O38289   3.445   6.505   4.995 -0.2269 -0.8750  0.7477
 9396WAT     H138290   3.427   6.430   4.954  0.0790  0.0430 -1.1653
 9396WAT     H238291   3.370   6.523   5.037 -0.6584 -1.7109  0.3731
 9396WAT    EPW38292   3.431   6.497   4.995 -0.1251  0.1524 -0.0501
 9397WAT      O38293   2.611   6.416   7.653 -0.3737  0.6491 -0.1717
 9397WAT     H138294   2.632   6.499   7.668  0.3396  0.1543  1.9090
 9397WAT     H238295   2.687   6.379   7.633  0.1670 -0.2620  3.0256
 9397WAT    EPW38296   2.625   6.423   7.653 -0.3123 -0.8628  0.3066
 9398WAT      O38297   2.972   5.399   6.825  0.8933  0.3786 -0.3979
 9398WAT     H138298   2.996   5.480   6.802  0.2369  0.5297 -0.5449
 9398WAT     H238299   3.023   5.348   6.776  0.7261  0.7012 -0.9155
 9398WAT    EPW38300   2.983   5.403   6.814 -0.7745  0.2265 -0.5469
 9399WAT      O38301   4.922   3.321   5.876  0.9609 -0.4457  0.5662
 9399WAT     H138302   4.866   3.389   5.876  1.1604 -0.2473 -1.1105
 9399WAT     H238303   4.918   3.292   5.958 -2.0659 -0.8258  0.3956
 9399WAT    EPW38304   4.913   3.327   5.888  0.0218 -0.3918 -0.8782
 9400WAT      O38305   1.853   4.397   5.758 -0.0569  0.0956  0.3522
 9400WAT     H138306   1.908   4.332   5.740  1.4878  0.8011  2.1538
 9400WAT     H238307   1.775   4.358   5.761  0.1239 -0.8300 -2.9509
 9400WAT    EPW38308   1.850   4.382   5.756 -0.3012 -0.4129  0.2532
 9401WAT      O38309   2.031   1.495   0.381  0.0422 -0.2864 -0.2355
 9401WAT     H138310   2.029   1.452   0.457  0.1945 -2.3660 -1.3261
 9401WAT     H238311   2.080   1.444   0.330 -0.7426  0.6020 -1.9723
 9401WAT    EPW38312   2.038   1.481   0.385  0.3005 -0.0014  0.7833
 9402WAT      O38313   3.374   5.684   6.726 -0.7718 -0.1712  0.6419
 9402WAT     H138314   3.449   5.664   6.687 -2.1412 -1.1567 -1.7238
 9402WAT     H238315   3.353   5.610   6.768  0.1640  0.5418  2.4917
 9402WAT    EPW38316   3.382   5.670   6.727  0.3090 -0.0719  0.1401
 9403WAT      O38317   2.682   0.196   6.256 -0.4557 -0.0426 -0.1159
 9403WAT     H138318   2.662   0.277   6.279  0.0135 -0.1808  0.8291
 9403WAT     H238319   2.656   0.148   6.325 -0.1470 -0.6167 -0.3854
 9403WAT    EPW38320   2.675   0.201   6.270 -0.2439  0.2460 -0.0300
 9404WAT      O38321   3.115   7.272   5.533  0.4104  0.4642 -0.0935
 9404WAT     H138322   3.104   7.256   5.618  0.7859 -1.4306 -0.3566
 9404WAT     H238323   3.190   7.232   5.514  0.9879  1.9081 -1.0980
 9404WAT    EPW38324   3.125   7.264   5.543  0.4656  0.4032 -0.3808
 9405WAT      O38325   2.440   4.960   7.318  0.1487 -0.6341  0.4374
 9405WAT     H138326   2.417   4.988   7.397 -1.4841 -1.9895  0.5103
 9405WAT     H238327   2.419   4.875   7.320  1.2753 -0.9781 -1.0277
 9405WAT    EPW38328   2.434   4.951   7.330  0.3435  0.4297  0.2024
 9406WAT      O38329   1.004   6.214   4.043  0.1054  0.4537 -0.0850
 9406WAT     H138330   0.992   6.274   3.981 -0.3483  1.1373  0.6500
 9406WAT     H238331   0.951   6.149   4.017  0.1270  0.6153 -0.5567
 9406WAT    EPW38332   0.994   6.213   4.030  0.0863  0.9000 -0.2575
 9407WAT      O38333   0.359   7.803   3.258 -0.3624  0.0870  0.5370
 9407WAT     H138334   0.319   7.732   3.227  2.0089 -1.3560  0.5598
 9407WAT     H238335   0.373   7.785   3.342  1.2591  0.0326  0.2951
 9407WAT    EPW38336   0.355   7.790   3.266  0.0438 -0.8303 -0.2954
 9408WAT      O38337   1.504   3.716   3.234 -0.4238 -0.0550 -0.8732
 9408WAT     H138338   1.565   3.698   3.294 -0.8963  0.1742 -0.3159
 9408WAT     H238339   1.450   3.770   3.275 -1.2680 -0.6379 -1.2025
 9408WAT    EPW38340   1.505   3.721   3.249  0.0170 -0.1551 -0.4127
 9409WAT      O38341   7.620   7.142   2.937  0.2329 -0.7439 -0.1509
 9409WAT     H138342   7.705   7.134   2.954  0.1321 -1.4287  0.0438
 9409WAT     H238343   7.602   7.223   2.964  1.0899 -0.1201 -1.3623
 9409WAT    EPW38344   7.630   7.153   2.943 -0.1369  0.1036 -0.4430
 9410WAT      O38345   2.367   7.475   5.666  0.5837  0.4436 -0.1498
 9410WAT     H138346   2.353   7.394   5.636 -1.4139  0.6841 -0.0153
 9410WAT     H238347   2.357   7.525   5.595  0.0241  0.6948  0.1023
 9410WAT    EPW38348   2.364   7.470   5.651  0.8323 -0.0620  0.5538
 9411WAT      O38349   2.054   7.859   7.820 -0.0343 -0.8174  1.0857
 9411WAT     H138350   2.038   7.820   7.744  0.7721  0.8390  0.0026
 9411WAT     H238351   1.975   7.867   7.857 -1.0456  1.5330 -1.2403
 9411WAT    EPW38352   2.040   7.855   7.814 -0.2539 -0.5820  0.7140
 9412WAT      O38353   2.497   7.258   4.149  0.2211 -0.0095  0.0487
 9412WAT     H138354   2.584   7.263   4.148  0.2103  0.3551 -2.1037
 9412WAT     H238355   2.474   7.321   4.204  1.3017 -0.6412  1.2982
 9412WAT    EPW38356   2.507   7.268   4.157  0.0614 -0.1515 -0.1688
 9413WAT      O38357   1.926   4.448   1.115  0.1264  0.8081  0.0775
 9413WAT     H138358   2.006   4.419   1.133 -0.3668  0.0982  1.3103
 9413WAT     H238359   1.932   4.534   1.125  0.7426  0.7654  0.1055
 9413WAT    EPW38360   1.938   4.456   1.119 -0.1323 -0.0407  0.0316
 9414WAT      O38361   2.157   1.794   2.478 -0.5849  0.8377 -0.4872
 9414WAT     H138362   2.184   1.758   2.553 -0.0971  1.7464 -0.2101
 9414WAT     H238363   2.226   1.786   2.426 -0.9763  0.0680 -0.9064
 9414WAT    EPW38364   2.171   1.787   2.482  0.0435 -0.2423  0.0289
 9415WAT      O38365   1.404   6.983   4.130 -0.4548  0.2518 -0.8297
 9415WAT     H138366   1.380   7.020   4.055  2.0371  2.2213 -0.8198
 9415WAT     H238367   1.337   6.932   4.151 -2.7998  2.3592 -2.5767
 9415WAT    EPW38368   1.391   6.981   4.122  0.6576 -0.1763 -0.2046
 9416WAT      O38369   1.515   4.963   0.900  0.4924  0.2790  0.1934
 9416WAT     H138370   1.593   4.967   0.939  0.3482  0.2686  0.4800
 9416WAT     H238371   1.484   4.884   0.921 -0.4442  1.0069  1.7154
 9416WAT    EPW38372   1.522   4.952   0.909  0.4335 -0.9929 -0.7876
 9417WAT      O38373   5.745   0.035   2.660 -0.3010  0.4900  0.6126
 9417WAT     H138374   5.682   0.091   2.681 -0.8203 -0.7002  2.4783
 9417WAT     H238375   5.819   0.077   2.681 -0.4695  1.5918 -0.8580
 9417WAT    EPW38376   5.747   0.049   2.666 -0.0243  0.6633 -0.2774
 9418WAT      O38377   2.291   1.174   5.743  0.2874 -0.2710  0.5011
 9418WAT     H138378   2.208   1.150   5.751  0.0898  0.9203  2.8288
 9418WAT     H238379   2.312   1.203   5.823  2.6362  0.3885 -0.2742
 9418WAT    EPW38380   2.282   1.175   5.756  0.3682  0.0882 -0.4477
 9419WAT      O38381   2.496   7.850   1.061 -0.4789 -0.2065  0.2308
 9419WAT     H138382   2.573   7.862   1.101  0.0364 -0.6921 -0.5904
 9419WAT     H238383   2.516   7.855   0.976 -1.1186 -1.6070 -0.0250
 9419WAT    EPW38384   2.510   7.852   1.054 -0.0829  0.1627  0.0805
 9420WAT      O38385   3.367   4.203   7.305 -0.0847 -0.0601 -0.1064
 9420WAT     H138386   3.365   4.120   7.277  0.5033  0.0995 -0.6408
 9420WAT     H238387   3.327   4.247   7.242  0.2999  0.1579 -0.2024
 9420WAT    EPW38388   3.361   4.197   7.292  0.1736  0.5878  0.0525
 9421WAT      O38389   3.074   5.040   2.537 -0.0277  0.7698  0.1772
 9421WAT     H138390   3.074   5.052   2.624 -2.7798 -1.1146  0.5721
 9421WAT     H238391   3.032   5.111   2.507  0.4393  1.1560  0.4235
 9421WAT    EPW38392   3.068   5.053   2.545 -0.3578 -0.5619  0.3498
 9422WAT      O38393   7.416   1.167   2.502 -0.2769 -0.1933  0.3987
 9422WAT     H138394   7.416   1.246   2.538 -0.2108 -0.3882  0.8394
 9422WAT     H238395   7.486   1.128   2.537  0.6042  0.0681 -1.0074
 9422WAT    EPW38396   7.426   1.173   2.513  0.6377  0.0786 -0.1845
 9423WAT      O38397   3.017   2.541   4.164  0.2639 -0.1678 -0.0658
 9423WAT     H138398   3.059   2.480   4.210  0.4105  1.2031  1.7321
 9423WAT     H238399   3.012   2.609   4.219 -0.7082  1.1335 -1.6518
 9423WAT    EPW38400   3.022   2.542   4.179 -0.1807 -0.1653 -0.3097
 9424WAT      O38401   1.617   4.251   2.767 -0.2755  0.3522  0.0691
 9424WAT     H138402   1.591   4.329   2.738 -1.8278 -0.6198 -1.3053
 9424WAT     H238403   1.647   4.211   2.695  1.0995 -0.1107  0.8665
 9424WAT    EPW38404   1.618   4.257   2.752  0.0100 -0.4510 -0.3334
 9425WAT      O38405   1.932   2.579   1.920  0.6959  0.6948 -0.0021
 9425WAT     H138406   1.879   2.522   1.881 -0.9405  1.5530  0.8302
 9425WAT     H238407   2.004   2.578   1.872 -0.5356  0.3494 -1.9262
 9425WAT    EPW38408   1.935   2.571   1.907  0.0551  0.2241  0.0497
 9426WAT      O38409   2.156   3.750   3.639 -0.2730  0.6414 -0.8035
 9426WAT     H138410   2.130   3.772   3.719  1.4487  0.8071 -0.2500
 9426WAT     H238411   2.100   3.791   3.586 -1.3035  0.6972  0.2965
 9426WAT    EPW38412   2.144   3.759   3.643  0.5404 -0.1874  0.5461
 9427WAT      O38413   3.073   5.181   1.751 -0.0938  0.5191  0.4022
 9427WAT     H138414   3.154   5.165   1.779 -0.4296 -1.5469  0.3603
 9427WAT     H238415   3.024   5.167   1.822 -0.5634 -0.3135 -0.0716
 9427WAT    EPW38416   3.078   5.177   1.766 -0.3438 -0.2700 -0.2923
 9428WAT      O38417   2.585   4.448   3.603  0.4116 -0.2518 -0.1950
 9428WAT     H138418   2.616   4.484   3.530  0.5669  0.8765  0.4061
 9428WAT     H238419   2.501   4.433   3.585 -0.6593  3.6608  0.6023
 9428WAT    EPW38420   2.577   4.451   3.590  0.4841 -0.0251 -0.4559
 9429WAT      O38421   0.728   2.888   4.354 -0.1491  0.0026 -0.0867
 9429WAT     H138422   0.676   2.897   4.424  0.9697 -1.7482  1.0413
 9429WAT     H238423   0.766   2.966   4.347  1.6035 -0.4566  2.8878
 9429WAT    EPW38424   0.726   2.901   4.363 -0.4111  0.7598 -0.2536
 9430WAT      O38425   4.574   4.703   2.314 -0.6740 -0.2725  0.0686
 9430WAT     H138426   4.530   4.627   2.310 -1.1174  0.0403 -2.6611
 9430WAT     H238427   4.527   4.756   2.264  1.9193  0.5503 -1.6905
 9430WAT    EPW38428   4.560   4.699   2.306 -0.4134  0.3184 -0.2914
 9431WAT      O38429   2.487   5.811   5.690  0.7152  0.3874  0.6930
 9431WAT     H138430   2.442   5.871   5.734 -3.2045 -0.3089 -1.8785
 9431WAT     H238431   2.484   5.839   5.607 -1.4346 -3.1699 -0.6665
 9431WAT    EPW38432   2.480   5.824   5.684 -0.0423  0.1287 -0.0049
 9432WAT      O38433   0.781   5.289   3.843  0.5064  0.3481  0.0689
 9432WAT     H138434   0.702   5.312   3.814  0.4519  1.5201  1.0635
 9432WAT     H238435   0.834   5.349   3.810  0.6912  0.6837  0.9346
 9432WAT    EPW38436   0.777   5.301   3.834 -0.6308  0.4842  0.1573
 9433WAT      O38437   2.393   7.000   4.155  0.2864 -0.2442  0.1785
 9433WAT     H138438   2.433   7.078   4.161  0.1757 -0.0901 -0.7730
 9433WAT     H238439   2.449   6.945   4.190  0.8829  0.1210 -0.1759
 9433WAT    EPW38440   2.407   7.004   4.161  0.0295  0.1004  0.0080
 9434WAT      O38441   5.588   7.144   4.367 -0.4102 -0.0665  0.2802
 9434WAT     H138442   5.662   7.160   4.410 -0.7754 -1.1571  1.3556
 9434WAT     H238443   5.547   7.221   4.368 -0.2833 -0.0003  1.6389
 9434WAT    EPW38444   5.593   7.158   4.374  0.3390 -0.0389 -0.2683
 9435WAT      O38445   0.855   4.981   1.632 -0.4775 -0.0671  0.1938
 9435WAT     H138446   0.805   4.948   1.696 -1.3860  1.0109  0.0667
 9435WAT     H238447   0.871   4.911   1.582  0.6380 -1.0343  1.8061
 9435WAT    EPW38448   0.850   4.966   1.634  0.4057  0.0529  0.4317
 9436WAT      O38449   2.761   3.202   4.004  0.0405 -0.0539 -0.7398
 9436WAT     H138450   2.840   3.228   3.979  0.0536  0.0726 -0.5684
 9436WAT     H238451   2.754   3.231   4.086  0.1654 -0.8309 -0.4446
 9436WAT    EPW38452   2.772   3.210   4.013  0.4523  0.2492  0.3587
 9437WAT      O38453   4.186   5.678   3.957 -0.4048  0.3903 -0.3348
 9437WAT     H138454   4.195   5.687   4.043  0.7508 -1.8204 -0.1361
 9437WAT     H238455   4.148   5.600   3.948  0.0235  0.3095 -1.8153
 9437WAT    EPW38456   4.182   5.668   3.968  0.3931 -0.4852 -0.1651
 9438WAT      O38457   0.334   0.302   7.993 -0.4237 -0.3187 -0.1372
 9438WAT     H138458   0.280   0.370   8.005  0.4298  1.0427 -3.1603
 9438WAT     H238459   0.282   0.233   8.005 -2.1542  0.8928 -0.2157
 9438WAT    EPW38460   0.319   0.302   7.997 -0.0142 -0.6173 -0.0691
 9439WAT      O38461   1.192   3.048   3.194  0.6072  0.0515  0.3898
 9439WAT     H138462   1.186   2.974   3.148  2.2131 -0.2667  0.6385
 9439WAT     H238463   1.250   3.096   3.150  1.8391 -0.0716  1.7899
 9439WAT    EPW38464   1.199   3.044   3.181  0.0750 -0.1703 -0.2959
 9440WAT      O38465   5.251   4.340   4.606 -0.5399 -0.3382  0.4339
 9440WAT     H138466   5.240   4.410   4.657 -0.8803  0.3866 -0.6122
 9440WAT     H238467   5.331   4.351   4.574 -0.7828 -0.1679 -0.1186
 9440WAT    EPW38468   5.261   4.352   4.609 -0.2332  0.0066 -0.0595
 9441WAT      O38469   2.647   4.373   7.272  0.0920 -0.6873 -0.0273
 9441WAT     H138470   2.599   4.444   7.291 -1.4626 -1.3122 -1.4208
 9441WAT     H238471   2.641   4.325   7.345 -2.5800 -1.3319 -0.5546
 9441WAT    EPW38472   2.639   4.376   7.286 -0.3442  0.7630  0.6105
 9442WAT      O38473   2.361   7.219   3.448  0.3498 -0.2376 -0.5938
 9442WAT     H138474   2.356   7.151   3.501  0.9861  1.6219  2.0356
 9442WAT     H238475   2.286   7.218   3.404 -0.0054 -2.0831  0.0018
 9442WAT    EPW38476   2.349   7.209   3.449  0.0979  0.3744 -0.5317
 9443WAT      O38477   1.741   0.251   0.468 -0.1940 -0.4080 -0.7775
 9443WAT     H138478   1.769   0.301   0.401  0.2465  0.4301  0.0034
 9443WAT     H238479   1.788   0.280   0.536 -1.3166 -0.5755  0.1043
 9443WAT    EPW38480   1.752   0.263   0.468 -0.2780 -0.5212 -0.3359
 9444WAT      O38481   4.524   5.812   5.063  0.1260  0.6316 -0.1639
 9444WAT     H138482   4.531   5.799   5.149  0.7563  1.4309 -0.0818
 9444WAT     H238483   4.494   5.736   5.033  0.6883  0.0674  0.6648
 9444WAT    EPW38484   4.520   5.799   5.071  0.3706  0.4500 -0.0090
 9445WAT      O38485   2.840   4.357   1.538 -0.2496  1.0766 -0.0770
 9445WAT     H138486   2.760   4.326   1.524  0.5548 -0.5498 -1.3761
 9445WAT     H238487   2.892   4.296   1.504  1.5049  2.8499 -0.7649
 9445WAT    EPW38488   2.836   4.344   1.531 -0.1679 -0.0326  0.3489
 9446WAT      O38489   4.300   1.419   2.312  0.1015 -0.8351 -0.0821
 9446WAT     H138490   4.299   1.485   2.255 -2.6727 -0.7343 -0.0542
 9446WAT     H238491   4.337   1.453   2.383 -1.4209  0.8043 -0.0011
 9446WAT    EPW38492   4.306   1.434   2.314 -0.3608 -0.2810 -0.0459
 9447WAT      O38493   2.935   5.462   3.347 -0.2702  0.4107  0.0457
 9447WAT     H138494   2.942   5.430   3.267  2.1440  1.3333 -0.1750
 9447WAT     H238495   2.925   5.391   3.397  2.0718 -0.5421 -0.7196
 9447WAT    EPW38496   2.934   5.447   3.343 -0.1801  0.3637 -0.3202
 9448WAT      O38497   4.057   3.771   1.314 -0.2824  0.5803  0.5347
 9448WAT     H138498   4.043   3.856   1.303  0.2858  0.4028 -2.9260
 9448WAT     H238499   4.135   3.768   1.353  1.0498  1.7757 -1.8042
 9448WAT    EPW38500   4.066   3.783   1.318 -0.1018  0.5523  0.0084
 9449WAT      O38501   2.848   0.573   8.034 -0.3650  0.4294  0.1201
 9449WAT     H138502   2.932   0.556   8.014 -0.7855  0.7890 -2.3095
 9449WAT     H238503   2.842   0.548   8.117  2.1079  0.2199  0.3349
 9449WAT    EPW38504   2.860   0.567   8.043 -0.0865  0.3915 -0.8351
 9450WAT      O38505   3.321   6.020   4.426 -0.0556  0.1809  0.5905
 9450WAT     H138506   3.387   6.034   4.371 -0.3136 -1.1649 -0.1150
 9450WAT     H238507   3.322   5.933   4.436 -2.4750 -0.0219 -0.4201
 9450WAT    EPW38508   3.331   6.009   4.420 -0.3983  0.5495  0.4238
 9451WAT      O38509   1.413   0.942   4.133  0.7761 -0.1797 -0.5848
 9451WAT     H138510   1.354   0.952   4.069  1.5100 -0.9311 -1.4058
 9451WAT     H238511   1.364   0.942   4.205 -0.2926 -1.1531 -1.2612
 9451WAT    EPW38512   1.397   0.944   4.134 -0.7978  0.4172  0.6397
 9452WAT      O38513   2.594   5.586   1.000 -0.6015  0.2608  0.1547
 9452WAT     H138514   2.613   5.514   1.044  2.1279  0.5133 -0.4030
 9452WAT     H238515   2.532   5.561   0.944 -1.3157 -1.0277  1.4726
 9452WAT    EPW38516   2.587   5.572   0.998 -1.0598  0.5231  0.7231
 9453WAT      O38517   1.606   3.869   2.745  0.0559 -0.1376  0.6523
 9453WAT     H138518   1.601   3.797   2.695  1.0107  0.1620  0.1028
 9453WAT     H238519   1.523   3.883   2.769 -0.5297  0.0088 -1.2918
 9453WAT    EPW38520   1.593   3.860   2.741  0.2916 -0.5292 -0.0214
 9454WAT      O38521   2.447   0.782   5.008 -0.2717  0.0517  0.4872
 9454WAT     H138522   2.402   0.745   5.073 -2.1320  2.6282  0.8330
 9454WAT     H238523   2.436   0.726   4.941 -2.7462 -0.2186  1.0124
 9454WAT    EPW38524   2.439   0.768   5.008  0.1452  0.3143 -0.0976
 9455WAT      O38525   0.107   3.708   3.088 -0.1490 -0.0055  0.3445
 9455WAT     H138526   0.117   3.634   3.042 -1.0354 -1.1053  1.8697
 9455WAT     H238527   0.117   3.770   3.027  0.4057 -1.3531 -1.0241
 9455WAT    EPW38528   0.110   3.706   3.072  0.3700  0.4586  0.3082
 9456WAT      O38529   5.125   0.294   4.712  0.6890  0.1285 -0.1967
 9456WAT     H138530   5.074   0.268   4.778  3.4073  0.2428  2.1856
 9456WAT     H238531   5.163   0.219   4.686  1.3263  0.3810 -0.0144
 9456WAT    EPW38532   5.123   0.279   4.718  0.2235 -0.1573  0.3655
 9457WAT      O38533   1.445   2.308   2.216  0.1609  0.4868 -0.2432
 9457WAT     H138534   1.390   2.357   2.261  1.4538  0.5819  1.3119
 9457WAT     H238535   1.478   2.253   2.275  1.1722 -0.0567 -1.2582
 9457WAT    EPW38536   1.442   2.307   2.231  0.0536 -0.7185  0.3013
 9458WAT      O38537   2.628   0.410   8.048  0.6823  0.4099 -0.3836
 9458WAT     H138538   2.561   0.431   7.996 -0.7763 -3.0035 -0.1871
 9458WAT     H238539   2.688   0.471   8.031 -1.5417  2.2097 -2.4264
 9458WAT    EPW38540   2.627   0.422   8.038  0.0614 -0.5672  1.1528
 9459WAT      O38541   4.834   0.838   3.595 -0.2932 -0.6209 -0.0631
 9459WAT     H138542   4.828   0.919   3.564  1.8991  0.5801  2.2985
 9459WAT     H238543   4.877   0.795   3.533  0.7231  0.6942 -0.2930
 9459WAT    EPW38544   4.839   0.844   3.581  0.1217 -0.6482  0.3400
 9460WAT      O38545   4.813   4.798   0.579 -0.1817  0.0815 -0.0837
 9460WAT     H138546   4.799   4.762   0.501  0.7356  0.4251 -0.4250
 9460WAT     H238547   4.899   4.816   0.578 -0.0568 -0.3059  1.1654
 9460WAT    EPW38548   4.824   4.795   0.567  0.9018 -0.3026  0.4579
 9461WAT      O38549   1.668   4.939   7.844 -0.1373  0.0788  0.0353
 9461WAT     H138550   1.714   4.943   7.770  1.3566  0.4014  0.9351
 9461WAT     H238551   1.704   5.002   7.893 -0.0554 -1.1198  1.5760
 9461WAT    EPW38552   1.680   4.949   7.840 -0.2127  0.6125  0.2647
 9462WAT      O38553   1.586   5.546   3.179 -0.2563  0.0254  0.1622
 9462WAT     H138554   1.624   5.512   3.108  0.6926  0.7334  0.3185
 9462WAT     H238555   1.613   5.493   3.243 -0.2151  0.0338  0.1520
 9462WAT    EPW38556   1.596   5.533   3.178 -0.2074  0.1164 -0.6777
 9463WAT      O38557   2.394   4.794   3.568 -0.2345  0.1165 -0.3201
 9463WAT     H138558   2.321   4.755   3.595  0.6605 -0.1490  1.9558
 9463WAT     H238559   2.453   4.770   3.628  1.8561 -0.0800 -2.3296
 9463WAT    EPW38560   2.392   4.785   3.581 -0.0643 -0.2413 -0.4215
 9464WAT      O38561   2.421   4.987   0.878 -0.1710  0.1472  0.5344
 9464WAT     H138562   2.368   4.922   0.856  1.5418 -0.7174 -1.4520
 9464WAT     H238563   2.370   5.058   0.876 -2.2092 -1.0813  3.2973
 9464WAT    EPW38564   2.406   4.988   0.874  0.4108 -0.6372  0.1153
 9465WAT      O38565   5.209   1.469   4.708  0.2372 -0.4325  0.4264
 9465WAT     H138566   5.138   1.418   4.714  0.8129 -1.2242  0.7726
 9465WAT     H238567   5.275   1.413   4.719  0.8982  0.3881  0.7580
 9465WAT    EPW38568   5.209   1.453   4.711 -0.3112  0.2032 -0.0059
 9466WAT      O38569   2.801   4.287   4.274 -0.5986  0.9712 -0.1211
 9466WAT     H138570   2.829   4.335   4.206  2.4388  1.8767  1.5615
 9466WAT     H238571   2.861   4.224   4.281 -0.2776  1.4300  2.1647
 9466WAT    EPW38572   2.814   4.285   4.265  0.0465  0.4128 -0.0494
 9467WAT      O38573   8.063   3.376   3.429  0.2233 -0.5978  0.2833
 9467WAT     H138574   8.150   3.375   3.418  0.2459 -2.7648  0.1564
 9467WAT     H238575   8.036   3.308   3.381 -1.7398  0.8951 -0.8855
 9467WAT    EPW38576   8.072   3.366   3.420 -0.3881 -0.3287 -0.1181
 9468WAT      O38577   3.192   4.385   5.839 -0.0042  0.5279 -0.2421
 9468WAT     H138578   3.271   4.390   5.877  1.2252  1.3356 -2.6855
 9468WAT     H238579   3.193   4.451   5.782 -2.5459  0.6440 -0.2484
 9468WAT    EPW38580   3.204   4.395   5.837  0.3433  0.6768  0.5187
 9469WAT      O38581   2.180   4.321   3.064  0.0501 -0.3722  0.2949
 9469WAT     H138582   2.201   4.397   3.027 -1.5629 -1.5344 -3.4550
 9469WAT     H238583   2.257   4.282   3.075  0.7806  1.1270  0.7865
 9469WAT    EPW38584   2.195   4.326   3.060  0.2744 -0.0010 -0.1397
 9470WAT      O38585   7.052   7.514   3.637  0.5086 -0.2942 -0.0063
 9470WAT     H138586   6.975   7.517   3.677  0.4113  0.4714 -0.2186
 9470WAT     H238587   7.031   7.506   3.553  0.7154 -2.1890  0.0825
 9470WAT    EPW38588   7.038   7.513   3.630  0.1559 -0.3213  0.7105
 9471WAT      O38589   3.275   5.484   2.510  0.4338  0.1182 -0.3466
 9471WAT     H138590   3.217   5.484   2.575 -0.0461 -1.0769 -0.7490
 9471WAT     H238591   3.351   5.472   2.551  0.0056 -2.0302 -0.0466
 9471WAT    EPW38592   3.278   5.482   2.526 -0.2652 -0.4708  0.5414
 9472WAT      O38593   6.188   1.929   1.749 -0.2727 -0.3362  0.7040
 9472WAT     H138594   6.161   2.010   1.763 -2.2241 -0.8148  0.0717
 9472WAT     H238595   6.233   1.934   1.675  0.3518  0.2882  1.1139
 9472WAT    EPW38596   6.191   1.941   1.740  0.1392  0.3606  0.0072
 9473WAT      O38597   1.090   7.737   1.765  0.0610 -0.0600  0.1551
 9473WAT     H138598   1.075   7.655   1.790 -0.6537  0.4400  1.5022
 9473WAT     H238599   1.174   7.736   1.741 -0.2676 -1.4348 -1.0494
 9473WAT    EPW38600   1.100   7.725   1.765  0.0373  0.0449 -0.4811
 9474WAT      O38601   1.408   6.354   3.012 -0.2878 -0.4523 -0.2231
 9474WAT     H138602   1.484   6.319   2.987 -1.3735 -2.0200 -1.5451
 9474WAT     H238603   1.380   6.300   3.074  0.3469  1.0046  1.4229
 9474WAT    EPW38604   1.416   6.341   3.017  0.1582 -0.3858 -0.1625
 9475WAT      O38605   4.959   6.891   7.951 -0.3062  0.3331 -0.2214
 9475WAT     H138606   5.036   6.871   7.987 -0.6406  0.6605  0.7126
 9475WAT     H238607   4.902   6.845   7.998 -1.0136  2.7059  1.4466
 9475WAT    EPW38608   4.962   6.881   7.963  0.3966 -0.3109  0.2137
 9476WAT      O38609   6.508   6.208   4.886  0.0085  0.3297  0.0038
 9476WAT     H138610   6.584   6.218   4.845  1.2013  2.2421  2.4006
 9476WAT     H238611   6.478   6.289   4.894 -2.3443 -0.3792 -0.8513
 9476WAT    EPW38612   6.515   6.221   4.881  0.0212 -0.2094  0.1577
 9477WAT      O38613   0.296   1.112   0.131 -0.5665  0.4678  0.1401
 9477WAT     H138614   0.300   1.144   0.212 -1.4189 -0.8511  0.7359
 9477WAT     H238615   0.360   1.053   0.129 -1.9799 -1.1748  0.6801
 9477WAT    EPW38616   0.306   1.108   0.143  0.0818 -0.1725 -0.1301
 9478WAT      O38617   2.848   4.561   5.403  0.3269  0.0058  0.7996
 9478WAT     H138618   2.919   4.594   5.441  1.9281 -0.8255 -1.2632
 9478WAT     H238619   2.841   4.481   5.438  2.5155 -1.2395 -1.2702
 9478WAT    EPW38620   2.858   4.554   5.414 -0.1786  0.0718  0.7984
 9479WAT      O38621   6.267   2.703   1.787  0.2215  0.0616  0.2044
 9479WAT     H138622   6.228   2.664   1.719 -0.6007  0.5979  0.3538
 9479WAT     H238623   6.345   2.664   1.791 -0.3788 -1.2058  0.0354
 9479WAT    EPW38624   6.273   2.692   1.778  0.1669  0.2733 -0.3909
 9480WAT      O38625   1.770   4.097   3.842 -0.0881  0.1648  0.0519
 9480WAT     H138626   1.837   4.149   3.821  0.5771 -0.2596  1.0521
 9480WAT     H238627   1.755   4.053   3.768  1.9243 -1.0054  0.2578
 9480WAT    EPW38628   1.778   4.098   3.828  1.1005 -0.0101  0.0146
 9481WAT      O38629   2.139   7.036   4.286 -0.3273 -0.0308  1.0326
 9481WAT     H138630   2.207   7.012   4.238  0.5556 -0.6046  2.5167
 9481WAT     H238631   2.174   7.084   4.350 -1.4546  0.6588  1.1712
 9481WAT    EPW38632   2.154   7.040   4.288  0.6281  0.5343 -0.1166
 9482WAT      O38633   3.118   4.108   4.075  0.0253  0.0846 -0.1823
 9482WAT     H138634   3.105   4.073   3.996  0.9340  0.0157 -0.3117
 9482WAT     H238635   3.052   4.077   4.123 -0.1655 -0.3876 -0.7451
 9482WAT    EPW38636   3.106   4.099   4.070  0.2983 -0.1521  0.0880
 9483WAT      O38637   6.255   3.249   4.615 -0.1095  0.1542  0.0512
 9483WAT     H138638   6.178   3.223   4.646 -0.1294  0.7057  0.4694
 9483WAT     H238639   6.309   3.241   4.683  1.0376 -3.4461 -1.0127
 9483WAT    EPW38640   6.252   3.244   4.629  0.3636  0.0354 -0.4953
 9484WAT      O38641   1.643   1.474   2.426  0.8959  0.0681 -0.1499
 9484WAT     H138642   1.640   1.476   2.339  1.1436 -0.6256 -0.1841
 9484WAT     H238643   1.692   1.543   2.446 -0.6998  1.3341 -0.4456
 9484WAT    EPW38644   1.650   1.485   2.416 -0.1036  0.0306 -0.0715
 9485WAT      O38645   2.907   3.134   4.438 -0.2970  0.2372  0.1425
 9485WAT     H138646   2.983   3.090   4.438  0.1916  0.8547  2.9085
 9485WAT     H238647   2.876   3.120   4.518 -3.1792 -0.0107 -0.9164
 9485WAT    EPW38648   2.914   3.125   4.450  0.3287 -0.3795  0.4127
 9486WAT      O38649   7.140   5.881   4.000  0.2651  0.3542 -0.1392
 9486WAT     H138650   7.076   5.830   3.971 -1.3078  1.0552  1.8451
 9486WAT     H238651   7.128   5.956   3.958 -1.0073  0.8605  1.0673
 9486WAT    EPW38652   7.129   5.885   3.990 -0.2562 -0.4730 -0.3170
 9487WAT      O38653   5.212   7.073   4.819  0.7389 -0.3163 -0.0076
 9487WAT     H138654   5.231   6.991   4.796  1.4537 -1.0178  2.7299
 9487WAT     H238655   5.290   7.114   4.814  0.9617 -0.5513  1.3251
 9487WAT    EPW38656   5.226   7.067   4.815 -0.6409  0.8678  0.1626
 9488WAT      O38657   0.520   3.405   4.931  0.1172 -0.3289  0.2668
 9488WAT     H138658   0.476   3.447   4.868  0.8422  0.7590  0.4498
 9488WAT     H238659   0.505   3.321   4.914 -2.3873 -0.0068  0.6045
 9488WAT    EPW38660   0.512   3.399   4.919 -0.1485  0.1910 -0.1165
 9489WAT      O38661   1.395   5.870   5.381 -0.5385  0.5088  0.5075
 9489WAT     H138662   1.415   5.786   5.376 -0.1056  0.5374  1.5515
 9489WAT     H238663   1.449   5.901   5.442  1.4945  2.1953 -1.8682
 9489WAT    EPW38664   1.406   5.862   5.389 -0.5568  0.1929  0.1579
 9490WAT      O38665   1.771   5.021   3.457 -0.2243 -0.3049  0.1237
 9490WAT     H138666   1.721   5.065   3.514 -1.6391 -2.2044  0.4347
 9490WAT     H238667   1.850   5.056   3.469 -1.0030  1.2228  1.2794
 9490WAT    EPW38668   1.775   5.033   3.467 -0.0294  0.3205 -0.3675
 9491WAT      O38669   2.433   7.785   2.074  0.1663  0.3701  0.8858
 9491WAT     H138670   2.412   7.802   2.157  1.7797  0.1821  1.3769
 9491WAT     H238671   2.512   7.822   2.065  0.5942 -0.7284 -0.1552
 9491WAT    EPW38672   2.442   7.793   2.085 -0.0002 -0.1315 -0.2446
 9492WAT      O38673   6.090   1.370   4.377 -0.4217  0.0024  0.0730
 9492WAT     H138674   6.010   1.382   4.410  0.3147  2.3170  1.2133
 9492WAT     H238675   6.105   1.444   4.334  0.7182 -0.8530 -1.0675
 9492WAT    EPW38676   6.080   1.382   4.375  0.2703 -0.6553  0.0367
 9493WAT      O38677   2.019   3.743   4.651 -0.4437  0.0950  0.5181
 9493WAT     H138678   1.959   3.789   4.607  0.9452  2.3745  0.8638
 9493WAT     H238679   2.000   3.758   4.735 -0.2022 -0.2759  0.6434
 9493WAT    EPW38680   2.007   3.752   4.657 -0.3191 -0.5399 -0.4534
 9494WAT      O38681   0.586   3.017   3.943 -1.0859 -0.1050 -0.1100
 9494WAT     H138682   0.589   2.949   3.997 -2.9020  0.1260  0.3449
 9494WAT     H238683   0.669   3.025   3.915 -0.7618 -2.2606  0.0845
 9494WAT    EPW38684   0.599   3.008   3.947 -0.2188  0.2420 -0.6797
 9495WAT      O38685   6.799   6.910   1.591 -0.0930 -0.1742 -0.4577
 9495WAT     H138686   6.715   6.918   1.614 -0.2357 -1.5380 -0.3883
 9495WAT     H238687   6.814   6.981   1.543 -0.8707  0.8143  0.7041
 9495WAT    EPW38688   6.789   6.922   1.587 -0.6720  0.0166 -0.0921
 9496WAT      O38689   5.761   6.097   0.871 -0.1174 -0.5556 -0.0502
 9496WAT     H138690   5.807   6.122   0.801 -0.6557 -0.5169 -0.3963
 9496WAT     H238691   5.802   6.136   0.937  1.0979 -1.5160 -0.2000
 9496WAT    EPW38692   5.774   6.106   0.870 -0.0487 -0.8118  0.5857
 9497WAT      O38693   3.796   6.924   2.964 -0.1138 -0.2553 -0.0623
 9497WAT     H138694   3.785   7.011   2.960 -0.9244 -0.3980 -2.3176
 9497WAT     H238695   3.829   6.911   3.044 -0.5295  2.0589  0.5525
 9497WAT    EPW38696   3.800   6.935   2.976 -0.5060 -0.3742  0.9344
 9498WAT      O38697   1.351   0.980   0.784 -0.0631 -0.0723  0.2562
 9498WAT     H138698   1.376   0.920   0.726 -1.4485 -0.4980  0.0617
 9498WAT     H238699   1.317   0.933   0.849 -1.6954  0.4679 -0.1485
 9498WAT    EPW38700   1.349   0.964   0.785 -0.1702  0.0547  0.2771
 9499WAT      O38701   7.013   0.508   1.401 -0.1831 -0.1264 -0.2638
 9499WAT     H138702   6.977   0.566   1.456  0.8693  1.9682 -1.6453
 9499WAT     H238703   6.946   0.483   1.351 -0.2791  1.7429 -1.1519
 9499WAT    EPW38704   6.998   0.513   1.402 -0.0397  0.0405 -0.1206
 9500WAT      O38705   4.673   1.865   3.920 -0.3360  0.6398 -0.0166
 9500WAT     H138706   4.646   1.924   3.861 -1.5337  1.1354  0.9694
 9500WAT     H238707   4.751   1.895   3.945 -0.6189  1.4274 -0.0516
 9500WAT    EPW38708   4.680   1.878   3.915  0.6286  0.1014  0.5392
 9501WAT      O38709   2.072   1.513   3.755 -0.3494 -0.2538 -0.0989
 9501WAT     H138710   2.063   1.435   3.794 -0.5000 -0.4617 -0.5418
 9501WAT     H238711   2.027   1.504   3.681 -0.5045  0.3129 -0.0776
 9501WAT    EPW38712   2.064   1.500   3.750  0.2390 -0.0245 -0.2551
 9502WAT      O38713   5.451   3.112   6.551  1.0004 -0.0456 -0.1267
 9502WAT     H138714   5.523   3.064   6.544  0.1161 -1.7331  1.4608
 9502WAT     H238715   5.481   3.194   6.558  2.6282 -0.4906 -1.3973
 9502WAT    EPW38716   5.466   3.117   6.551  0.1029 -0.0362  0.0815
 9503WAT      O38717   2.664   4.780   6.995  0.2635  0.3102  0.2524
 9503WAT     H138718   2.696   4.699   6.993  0.2358  0.3076 -1.2279
 9503WAT     H238719   2.713   4.820   7.055 -1.3979 -1.4331  2.9761
 9503WAT    EPW38720   2.676   4.774   7.003 -0.1632  0.1948 -0.1803
 9504WAT      O38721   7.078   5.799   4.574  0.1636  0.3739  0.6031
 9504WAT     H138722   7.153   5.796   4.529 -0.1165  1.4960  0.0116
 9504WAT     H238723   7.055   5.883   4.568 -0.5154  0.2969  1.8265
 9504WAT    EPW38724   7.086   5.811   4.566  0.1213 -0.5950 -0.0614
 9505WAT      O38725   4.459   5.484   2.225 -0.0607  0.0217  0.1789
 9505WAT     H138726   4.447   5.562   2.189 -0.0461 -0.5965 -1.2267
 9505WAT     H238727   4.402   5.433   2.183 -0.7426 -0.5654  1.7195
 9505WAT    EPW38728   4.449   5.488   2.214 -0.1364  0.6067 -0.1714
 9506WAT      O38729   6.032   0.759   2.734  0.0090 -0.5784 -0.4398
 9506WAT     H138730   6.043   0.843   2.753 -0.2907 -0.5537 -0.3769
 9506WAT     H238731   5.953   0.756   2.698  0.4448 -0.6630 -1.4406
 9506WAT    EPW38732   6.022   0.771   2.731 -0.2346  0.6558  0.4556
 9507WAT      O38733   0.089   6.052   4.111  0.1291  0.7251  0.0423
 9507WAT     H138734   0.052   6.049   4.032 -0.1654  0.2476  0.1900
 9507WAT     H238735   0.174   6.065   4.094  0.7107 -2.8778 -0.5791
 9507WAT    EPW38736   0.096   6.053   4.097  0.4111 -0.4227  0.4971
 9508WAT      O38737   7.192   1.607   1.943 -0.0707  0.1681  0.0531
 9508WAT     H138738   7.209   1.581   1.861 -0.2491 -0.9242  0.3435
 9508WAT     H238739   7.105   1.608   1.946 -0.0652  0.5579  0.1336
 9508WAT    EPW38740   7.182   1.603   1.931 -0.5616 -0.5528 -0.1866
 9509WAT      O38741   8.046   4.821   4.480  0.5217  0.3866 -0.5025
 9509WAT     H138742   8.022   4.786   4.404 -2.2712  0.4254  0.2490
 9509WAT     H238743   8.099   4.761   4.515 -0.0592 -0.7138 -1.4687
 9509WAT    EPW38744   8.050   4.807   4.474 -0.8076  0.2397  0.7724
 9510WAT      O38745   3.474   6.104   1.181 -1.1464 -0.2861  0.7600
 9510WAT     H138746   3.441   6.161   1.239 -0.7385  1.6290 -0.8125
 9510WAT     H238747   3.402   6.070   1.144 -1.4185  1.0581 -0.0004
 9510WAT    EPW38748   3.458   6.107   1.184 -0.0632 -0.0681 -0.2248
 9511WAT      O38749   1.227   4.111   0.205  0.0237  0.4071  0.2580
 9511WAT     H138750   1.310   4.139   0.203 -0.0510  0.6121 -0.1182
 9511WAT     H238751   1.197   4.131   0.125  0.4180 -2.0853 -0.6321
 9511WAT    EPW38752   1.235   4.118   0.193  0.0284  1.0197  0.0178
 9512WAT      O38753   2.693   6.036   4.004  0.7721  0.1954  0.0839
 9512WAT     H138754   2.704   6.091   4.071  1.4251  1.7518 -1.2335
 9512WAT     H238755   2.699   5.957   4.042 -1.7895  0.9135  2.3037
 9512WAT    EPW38756   2.696   6.032   4.020 -0.9491 -0.3872 -0.6601
 9513WAT      O38757   1.128   7.602   7.718  0.4603  0.2762 -0.1599
 9513WAT     H138758   1.137   7.679   7.679  1.8936  0.5649  0.6805
 9513WAT     H238759   1.156   7.545   7.658  2.7079  0.7188  0.4090
 9513WAT    EPW38760   1.133   7.605   7.703  0.2297 -0.2647 -0.1699
 9514WAT      O38761   1.344   4.319   5.113  0.4042  0.3986  0.2174
 9514WAT     H138762   1.419   4.363   5.101  0.6142  0.1005  0.4100
 9514WAT     H238763   1.286   4.381   5.131  1.0697  0.4733  2.3114
 9514WAT    EPW38764   1.347   4.335   5.114 -0.1470 -0.2358 -0.0534
 9515WAT      O38765   4.594   5.449   1.482  0.3996  0.0241  0.9072
 9515WAT     H138766   4.565   5.518   1.438 -1.3209  0.5496  2.7052
 9515WAT     H238767   4.672   5.475   1.511  1.4258 -0.2185 -1.4070
 9515WAT    EPW38768   4.601   5.463   1.480  0.3158 -0.0683 -0.4729
 9516WAT      O38769   0.359   4.789   4.517  0.0682 -0.6177 -0.2059
 9516WAT     H138770   0.300   4.750   4.568 -2.1432  0.7592 -1.5333
 9516WAT     H238771   0.360   4.739   4.446 -0.9624  0.3321 -0.9288
 9516WAT    EPW38772   0.350   4.775   4.514 -0.2550  0.2783  0.0797
 9517WAT      O38773   4.186   0.344   3.204 -0.4767 -0.0604  0.0576
 9517WAT     H138774   4.168   0.418   3.161 -1.4206  0.3853  1.1454
 9517WAT     H238775   4.221   0.372   3.279  0.7170 -0.7995 -0.2002
 9517WAT    EPW38776   4.188   0.359   3.209  0.5952 -0.4292  0.2360
 9518WAT      O38777   7.531   5.159   0.885 -0.2314  0.0552  0.2939
 9518WAT     H138778   7.552   5.075   0.873  1.9142  0.0178  3.1444
 9518WAT     H238779   7.467   5.156   0.945  0.3066  0.4353  0.8998
 9518WAT    EPW38780   7.525   5.146   0.892 -0.2161 -0.4466 -0.0552
 9519WAT      O38781   0.348   5.508   3.288  0.2871  0.2437 -0.2212
 9519WAT     H138782   0.310   5.586   3.295  1.8328  1.1542 -1.4439
 9519WAT     H238783   0.383   5.494   3.366  0.2655  0.9014 -0.0936
 9519WAT    EPW38784   0.347   5.517   3.301 -0.2986 -0.5188 -0.4301
 9520WAT      O38785   4.286   7.120   4.775  0.0681 -0.2245  0.0358
 9520WAT     H138786   4.365   7.127   4.809 -0.8706  1.7576  2.0570
 9520WAT     H238787   4.254   7.047   4.810  0.4255 -0.1621  0.4907
 9520WAT    EPW38788   4.293   7.110   4.785 -0.1914  0.5478  0.2130
 9521WAT      O38789   1.419   6.702   7.505 -0.8524  0.1115 -0.0858
 9521WAT     H138790   1.373   6.636   7.539 -0.8606 -0.1194 -0.5286
 9521WAT     H238791   1.404   6.769   7.560  1.8751 -1.0613  2.3329
 9521WAT    EPW38792   1.410   6.702   7.518 -0.1514 -0.1277 -0.0304
 9522WAT      O38793   6.582   0.272   3.956  0.6977 -0.2076 -0.0315
 9522WAT     H138794   6.655   0.295   3.998  0.1326  0.4375  0.6276
 9522WAT     H238795   6.548   0.349   3.933  1.1424 -0.5443 -1.9674
 9522WAT    EPW38796   6.588   0.287   3.959  0.2060  0.1645  0.1152
 9523WAT      O38797   3.320   5.785   3.868  0.5153 -0.2278 -0.0057
 9523WAT     H138798   3.354   5.705   3.856  0.9740 -0.0606  0.1578
 9523WAT     H238799   3.346   5.806   3.949 -2.6797 -1.4334  1.5428
 9523WAT    EPW38800   3.329   5.776   3.878  0.0787 -0.1216  0.0543
 9524WAT      O38801   3.101   7.207   2.571 -0.2894 -0.0966  0.5318
 9524WAT     H138802   3.151   7.145   2.605  1.8185  0.6776 -0.9315
 9524WAT     H238803   3.138   7.281   2.598 -1.1860  0.5227  0.1317
 9524WAT    EPW38804   3.113   7.209   2.580  0.0184  0.1170 -0.4677
 9525WAT      O38805   5.226   4.981   0.877  0.0977 -0.6223 -0.5880
 9525WAT     H138806   5.176   5.043   0.841  2.1357 -0.1790 -2.8907
 9525WAT     H238807   5.280   5.025   0.928  1.5727 -0.3974 -2.2553
 9525WAT    EPW38808   5.226   4.997   0.879 -0.5845 -0.4912 -0.0661
 9526WAT      O38809   0.373   0.160   3.845 -0.0912  0.3375  0.2397
 9526WAT     H138810   0.396   0.077   3.857 -1.1679  0.1999  1.7236
 9526WAT     H238811   0.292   0.155   3.813 -0.6101  0.7620  1.3888
 9526WAT    EPW38812   0.364   0.147   3.842 -0.2587 -0.2250  0.1346
 9527WAT      O38813   0.529   4.455   1.210 -0.4287 -0.0246  0.1160
 9527WAT     H138814   0.538   4.537   1.184  0.4116 -0.4018 -0.8624
 9527WAT     H238815   0.497   4.462   1.291 -0.4091  1.2498  0.0288
 9527WAT    EPW38816   0.525   4.468   1.218  0.0479 -0.3782  0.0039
 9528WAT      O38817   5.154   2.331   6.383  0.5780  0.5327 -0.6362
 9528WAT     H138818   5.117   2.405   6.412  3.0519  1.2776  0.9705
 9528WAT     H238819   5.140   2.275   6.449 -3.0673 -1.2711 -2.6543
 9528WAT    EPW38820   5.147   2.334   6.397 -0.3273  0.5742  0.0311
 9529WAT      O38821   6.522   3.365   3.530  0.3207 -0.1862  0.2781
 9529WAT     H138822   6.578   3.379   3.464  1.6962 -0.1644  1.3861
 9529WAT     H238823   6.543   3.285   3.558 -1.1009 -0.7136 -0.0682
 9529WAT    EPW38824   6.534   3.355   3.524  0.2698  0.1043  0.1765
 9530WAT      O38825   0.986   7.038   3.949 -0.3078 -0.2785 -0.6383
 9530WAT     H138826   0.910   7.009   3.981 -0.3073  1.5597  1.2259
 9530WAT     H238827   0.969   7.051   3.864 -1.3327 -2.0930 -0.7794
 9530WAT    EPW38828   0.972   7.035   3.941  0.1616  0.2970  0.0789
 9531WAT      O38829   2.580   6.520   3.594 -0.2285  0.3452  0.2437
 9531WAT     H138830   2.510   6.487   3.554 -0.7820  0.1654  1.3116
 9531WAT     H238831   2.623   6.449   3.622 -1.1858  0.4551  2.1535
 9531WAT    EPW38832   2.576   6.505   3.592  1.0329 -0.3608  0.3212
 9532WAT      O38833   5.071   6.418   3.011 -0.7777  0.2107  0.0341
 9532WAT     H138834   5.058   6.453   3.089 -0.2242  0.2801  0.0968
 9532WAT     H238835   5.158   6.422   3.000 -0.8704  0.4673 -0.6988
 9532WAT    EPW38836   5.082   6.424   3.021 -0.2436 -0.0739 -0.3609
 9533WAT      O38837   7.706   0.129   4.268 -0.5727 -0.2557 -0.0082
 9533WAT     H138838   7.744   0.084   4.332  1.0577 -0.5088 -1.0931
 9533WAT     H238839   7.679   0.202   4.307  1.0275 -0.0780  0.8340
 9533WAT    EPW38840   7.708   0.133   4.283  0.7154  0.1087 -0.4323
 9534WAT      O38841   1.220   4.930   4.512 -0.0288  0.2289  0.3078
 9534WAT     H138842   1.257   4.859   4.478  0.5858  0.4820  0.4327
 9534WAT     H238843   1.148   4.941   4.464 -0.3521 -0.7087  0.5582
 9534WAT    EPW38844   1.215   4.921   4.500  0.4328 -0.0819  0.2450
 9535WAT      O38845   6.236   7.125   4.761 -0.1567 -0.1144  0.4684
 9535WAT     H138846   6.264   7.174   4.827 -0.1605 -0.3183  0.6217
 9535WAT     H238847   6.288   7.148   4.695  1.2868 -1.4573  1.0804
 9535WAT    EPW38848   6.248   7.136   4.761 -0.1158 -0.0030  0.3270
 9536WAT      O38849   5.846   5.217   2.477 -0.0663 -0.1266 -0.4794
 9536WAT     H138850   5.807   5.140   2.469  0.2571 -0.2549 -0.8791
 9536WAT     H238851   5.841   5.251   2.396  0.0050  0.1657 -0.3643
 9536WAT    EPW38852   5.839   5.211   2.464  0.2529 -0.2953 -0.2035
 9537WAT      O38853   5.421   4.835   2.762 -0.5139  0.1453  0.3605
 9537WAT     H138854   5.459   4.826   2.840 -0.8915 -0.7331  0.4561
 9537WAT     H238855   5.464   4.902   2.726  1.3397 -0.9767  0.3376
 9537WAT    EPW38856   5.433   4.844   2.768  0.1249  0.0170 -0.4913
 9538WAT      O38857   1.639   6.464   4.571  0.3090  0.2435 -0.1622
 9538WAT     H138858   1.638   6.418   4.646 -0.1758 -0.0758 -0.3617
 9538WAT     H238859   1.604   6.409   4.513 -0.1201  0.8090 -0.4426
 9538WAT    EPW38860   1.634   6.449   4.574 -0.3484 -0.1702 -0.0354
 9539WAT      O38861   4.221   7.902   5.174  0.0343  0.3699  0.2168
 9539WAT     H138862   4.277   7.863   5.119  0.6983  0.7024  0.6413
 9539WAT     H238863   4.160   7.934   5.122 -0.4756 -1.1315 -0.1638
 9539WAT    EPW38864   4.221   7.901   5.158  0.1361  0.2459 -0.2870
 9540WAT      O38865   1.511   6.824   6.635  0.1797 -0.5890 -0.0724
 9540WAT     H138866   1.438   6.793   6.671  0.1684 -0.1137  0.3232
 9540WAT     H238867   1.572   6.768   6.662  0.0537 -0.6540  0.0805
 9540WAT    EPW38868   1.509   6.811   6.644 -0.0299 -0.5649  1.0734
 9541WAT      O38869   0.781   1.099   1.022 -0.4824 -0.2770  0.1857
 9541WAT     H138870   0.741   1.054   1.085  1.2636 -2.4054 -0.1472
 9541WAT     H238871   0.742   1.071   0.949 -1.0441  0.6100  0.1265
 9541WAT    EPW38872   0.769   1.089   1.021 -0.0660 -0.7591  0.0084
 9542WAT      O38873   1.599   6.643   6.083  0.3567  0.4440 -0.0928
 9542WAT     H138874   1.554   6.715   6.064 -0.8921 -0.5204 -0.9608
 9542WAT     H238875   1.673   6.652   6.036  0.7593  1.6786  0.7315
 9542WAT    EPW38876   1.603   6.655   6.073 -0.2257 -0.4522 -0.5123
 9543WAT      O38877   1.995   5.003   2.729  0.3811 -0.0317  0.1918
 9543WAT     H138878   1.987   5.052   2.800 -1.3806 -0.1803  0.1486
 9543WAT     H238879   1.985   5.059   2.663 -0.3044 -0.2237  0.1212
 9543WAT    EPW38880   1.992   5.018   2.729 -0.5190  0.1872 -0.0339
 9544WAT      O38881   7.518   4.895   1.960  0.0491 -0.3127  0.0492
 9544WAT     H138882   7.502   4.819   1.999  1.2616 -0.1312  1.0082
 9544WAT     H238883   7.510   4.953   2.025 -0.3432  0.3111 -0.5465
 9544WAT    EPW38884   7.515   4.893   1.976  0.3611  0.1456 -0.6231
 9545WAT      O38885   4.542   7.122   4.860 -0.3385  0.0298 -0.1533
 9545WAT     H138886   4.614   7.119   4.909 -1.0394 -0.2802  0.9034
 9545WAT     H238887   4.572   7.126   4.779  0.8747 -0.4307  0.2516
 9545WAT    EPW38888   4.557   7.122   4.856  0.4895  0.4533 -0.0245
 9546WAT      O38889   2.039   5.722   7.236 -0.3831  0.7798  0.1011
 9546WAT     H138890   2.051   5.723   7.150  2.1194  0.8554  0.3562
 9546WAT     H238891   1.971   5.668   7.247 -0.8105  0.8374 -1.9015
 9546WAT    EPW38892   2.031   5.714   7.225 -0.1830 -0.1443  0.5903
 9547WAT      O38893   0.418   6.917   1.406  0.0140 -0.5085  0.1853
 9547WAT     H138894   0.342   6.879   1.426 -1.0730  0.5994 -1.5239
 9547WAT     H238895   0.444   6.875   1.334 -0.9253  1.4385 -1.4118
 9547WAT    EPW38896   0.411   6.905   1.398 -0.3769  0.1880 -0.5002
 9548WAT      O38897   2.569   1.285   6.669  0.2691 -0.0136 -0.4570
 9548WAT     H138898   2.491   1.295   6.706 -0.2870  1.6321 -1.9169
 9548WAT     H238899   2.568   1.202   6.642 -0.2434 -0.5248  1.0504
 9548WAT    EPW38900   2.557   1.274   6.670 -0.0475 -0.7042  0.1724
 9549WAT      O38901   1.269   7.655   0.495  0.7192  0.5113  0.1293
 9549WAT     H138902   1.312   7.659   0.419 -0.8601  3.1887 -0.7544
 9549WAT     H238903   1.189   7.628   0.471 -0.0923  2.3458  0.6281
 9549WAT    EPW38904   1.263   7.652   0.480  0.1995  0.1464  0.5005
 9550WAT      O38905   5.110   2.212   0.978 -0.2676 -0.2385  0.3034
 9550WAT     H138906   5.163   2.216   0.909 -0.4133 -0.5267  0.1737
 9550WAT     H238907   5.031   2.225   0.944 -0.2872  0.1490  0.4910
 9550WAT    EPW38908   5.106   2.214   0.963 -0.7062  0.4260  0.0766
 9551WAT      O38909   6.005   4.092   3.386 -0.6347 -0.3374  0.4076
 9551WAT     H138910   6.025   4.008   3.373 -0.5617 -0.5517  1.7588
 9551WAT     H238911   5.953   4.090   3.456 -0.8644  0.7189  0.2811
 9551WAT    EPW38912   6.001   4.079   3.394 -0.0037  0.3167  0.1393
 9552WAT      O38913   6.789   3.572   1.637  0.2830  0.3413  0.6289
 9552WAT     H138914   6.861   3.611   1.609 -0.3931  0.7996 -0.5259
 9552WAT     H238915   6.762   3.526   1.568  0.2102 -0.9389  1.4730
 9552WAT    EPW38916   6.796   3.571   1.623 -0.8121  0.5008  0.6944
 9553WAT      O38917   1.499   4.340   5.437 -0.1083 -0.2997  0.4456
 9553WAT     H138918   1.507   4.309   5.518  2.0107 -0.6678  0.1694
 9553WAT     H238919   1.513   4.426   5.446  0.2559 -0.3595  0.4629
 9553WAT    EPW38920   1.502   4.348   5.451 -0.0606  0.1334 -0.3055
 9554WAT      O38921   2.792   6.682   5.416  0.0445  0.3811 -0.1882
 9554WAT     H138922   2.805   6.625   5.481  0.7580 -1.4170 -1.8124
 9554WAT     H238923   2.726   6.647   5.370  1.3928  0.0909 -1.9985
 9554WAT    EPW38924   2.784   6.669   5.419 -0.3014 -0.2245 -0.6424
 9555WAT      O38925   1.457   2.754   3.241 -0.3333  0.2857  0.0555
 9555WAT     H138926   1.495   2.675   3.239 -1.6117 -0.3367 -0.1564
 9555WAT     H238927   1.442   2.766   3.326 -0.9064 -0.0871  0.0126
 9555WAT    EPW38928   1.461   2.744   3.254 -0.3959  0.7718  0.4572
 9556WAT      O38929   2.322   7.753   2.944 -0.8115 -0.7781  0.0893
 9556WAT     H138930   2.387   7.766   3.001 -0.8504  1.0814 -0.2288
 9556WAT     H238931   2.351   7.688   2.894  0.2889 -0.7668  0.6865
 9556WAT    EPW38932   2.336   7.745   2.945 -0.3237  0.5900 -0.0846
 9557WAT      O38933   3.667   3.601   3.281 -0.0342  0.3064 -0.1174
 9557WAT     H138934   3.704   3.680   3.286  1.4792 -0.2028 -1.9155
 9557WAT     H238935   3.735   3.547   3.286 -0.8391 -0.8030 -0.8540
 9557WAT    EPW38936   3.683   3.605   3.282 -0.6923 -0.3634  0.1736
 9558WAT      O38937   1.030   1.141   4.564 -0.3788 -0.2329 -0.2534
 9558WAT     H138938   1.088   1.195   4.527 -0.6885 -0.7742 -1.5611
 9558WAT     H238939   1.055   1.140   4.648  2.4839 -1.6688 -0.9892
 9558WAT    EPW38940   1.042   1.149   4.571 -0.2805  0.2340 -0.3559
 9559WAT      O38941   0.919   6.741   3.805  0.3195 -0.2043 -0.1909
 9559WAT     H138942   0.963   6.740   3.881  1.6324  1.2881 -0.8558
 9559WAT     H238943   0.983   6.736   3.745 -0.6914 -1.3096 -1.2087
 9559WAT    EPW38944   0.935   6.740   3.807 -0.5638  0.6440  0.2388
 9560WAT      O38945   5.625   2.929   0.346  0.6540 -0.2660 -0.3327
 9560WAT     H138946   5.583   2.949   0.420 -1.5041 -1.5881 -1.0918
 9560WAT     H238947   5.704   2.904   0.373  0.3392  0.4944  1.3928
 9560WAT    EPW38948   5.630   2.928   0.361  0.1014  0.3100 -0.1521
 9561WAT      O38949   7.252   4.167   3.575 -0.1915  0.1120 -0.1637
 9561WAT     H138950   7.330   4.129   3.569 -0.3786 -0.3808  0.3859
 9561WAT     H238951   7.242   4.177   3.661  0.4999  2.7766 -0.3139
 9561WAT    EPW38952   7.262   4.163   3.587  0.2627  0.7532 -0.4583
 9562WAT      O38953   7.902   5.858   1.818  0.1277  0.5741 -0.0523
 9562WAT     H138954   7.830   5.902   1.797  0.4492  0.9816 -0.3166
 9562WAT     H238955   7.886   5.777   1.791 -0.7215  0.3708  0.9887
 9562WAT    EPW38956   7.889   5.852   1.811  0.8688  0.1674  0.2916
 9563WAT      O38957   0.135   7.156   4.514  0.0098  0.4903  0.6461
 9563WAT     H138958   0.209   7.201   4.506  0.1720  0.1249  0.0444
 9563WAT     H238959   0.160   7.082   4.553 -0.0305  0.3368  0.3803
 9563WAT    EPW38960   0.149   7.152   4.519 -0.0077  0.7628 -0.0093
 9564WAT      O38961   2.901   5.177   3.195 -0.4387 -0.0684 -0.4033
 9564WAT     H138962   2.979   5.139   3.203 -0.8347 -0.9303 -0.4531
 9564WAT     H238963   2.866   5.169   3.274 -0.0216  1.3997 -0.0469
 9564WAT    EPW38964   2.907   5.170   3.208  0.1137 -0.0845  0.0582
 9565WAT      O38965   1.871   5.076   4.283 -0.0612  0.2428 -0.6439
 9565WAT     H138966   1.790   5.100   4.306  0.4875  1.1984  0.4007
 9565WAT     H238967   1.915   5.078   4.358  1.2029  0.8799 -1.3742
 9565WAT    EPW38968   1.866   5.080   4.298 -0.1283  0.1131 -0.2515
 9566WAT      O38969   1.434   7.509   5.216 -0.2500 -0.0814  0.2951
 9566WAT     H138970   1.445   7.576   5.160  0.1490  0.1494  0.6430
 9566WAT     H238971   1.432   7.548   5.294 -0.4038 -0.4435  0.4738
 9566WAT    EPW38972   1.435   7.525   5.219  0.7407 -0.3898  0.1171
 9567WAT      O38973   2.571   5.378   5.210 -0.1456 -0.0645 -0.4652
 9567WAT     H138974   2.595   5.327   5.277  0.6556  0.9831  0.0772
 9567WAT     H238975   2.589   5.329   5.140 -1.9540 -1.5900  0.0611
 9567WAT    EPW38976   2.577   5.363   5.210 -0.6140  0.1766  0.7553
 9568WAT      O38977   5.703   6.689   4.903  0.2069 -0.0674  0.0981
 9568WAT     H138978   5.677   6.680   4.820 -0.3895 -1.7643  0.4351
 9568WAT     H238979   5.745   6.614   4.920 -0.0480  0.0691  1.4544
 9568WAT    EPW38980   5.705   6.676   4.893 -0.4463 -0.1696 -0.1213
 9569WAT      O38981   4.004   7.978   4.995 -0.0388  0.1298  0.0787
 9569WAT     H138982   4.063   8.035   4.964  1.1994 -0.7584  0.7291
 9569WAT     H238983   3.945   8.030   5.034 -0.3707  1.1143 -1.6237
 9569WAT    EPW38984   4.004   7.994   4.996 -0.4275  0.6487  0.3781
 9570WAT      O38985   5.088   4.787   0.695  0.5704 -0.0023  0.4138
 9570WAT     H138986   5.034   4.756   0.757  0.0373  0.7030  0.3261
 9570WAT     H238987   5.143   4.838   0.740  1.5739 -1.1911  0.5863
 9570WAT    EPW38988   5.088   4.790   0.711  0.0138  0.2948 -0.2470
 9571WAT      O38989   3.428   3.453   1.619  0.0429  0.2121  1.1900
 9571WAT     H138990   3.459   3.484   1.694  1.4559  0.6738  0.4380
 9571WAT     H238991   3.358   3.407   1.644 -1.9504  3.5443  2.4219
 9571WAT    EPW38992   3.422   3.450   1.634  0.4607 -0.0505  0.0673
 9572WAT      O38993   0.795   6.213   4.426 -0.4069 -0.0313  0.6950
 9572WAT     H138994   0.829   6.140   4.391 -0.0957  0.8209 -0.8663
 9572WAT     H238995   0.763   6.256   4.357  3.2114  3.3875  0.7898
 9572WAT    EPW38996   0.795   6.208   4.411  0.1194  0.3294  0.3363
 9573WAT      O38997   1.165   6.429   3.698 -0.6907 -0.8873  0.3542
 9573WAT     H138998   1.227   6.388   3.743  1.2984  0.5777 -0.8670
 9573WAT     H238999   1.161   6.385   3.623 -0.5941 -0.5404  0.1424
 9573WAT    EPW39000   1.173   6.417   3.693  0.0166  0.2766  0.1384
 9574WAT      O39001   6.369   7.514   3.728 -0.2645 -0.0161  0.2663
 9574WAT     H139002   6.361   7.594   3.695 -0.1781  0.5938  1.6380
 9574WAT     H239003   6.442   7.483   3.691  0.7774  1.2886  1.1082
 9574WAT    EPW39004   6.379   7.522   3.718 -0.0268  0.1355  0.0429
 9575WAT      O39005   3.318   0.978   1.926  0.4220 -0.0730  0.2006
 9575WAT     H139006   3.329   1.065   1.926 -0.9444  0.1252  0.3495
 9575WAT     H239007   3.266   0.964   1.994 -1.4085 -0.6837 -1.2321
 9575WAT    EPW39008   3.312   0.989   1.936  0.3362  0.3997  0.2037
 9576WAT      O39009   2.580   6.150   6.402  0.2979 -0.0809 -0.0009
 9576WAT     H139010   2.594   6.234   6.419 -0.5073 -0.1973  1.4744
 9576WAT     H239011   2.508   6.150   6.353  1.3752  0.1524 -1.6558
 9576WAT    EPW39012   2.571   6.162   6.397 -0.4307  0.4262 -0.7703
 9577WAT      O39013   2.451   3.701   5.688 -0.2226  0.4968  0.2790
 9577WAT     H139014   2.369   3.710   5.662  0.4779 -0.8217 -2.7954
 9577WAT     H239015   2.446   3.646   5.755 -1.8702  1.2036  0.7856
 9577WAT    EPW39016   2.438   3.694   5.694 -1.1055  0.0883 -0.5841
 9578WAT      O39017   8.014   3.799   2.749  0.3397 -0.6940 -0.4280
 9578WAT     H139018   8.062   3.854   2.797  1.3323  0.7429 -2.8304
 9578WAT     H239019   8.059   3.794   2.674 -2.4121 -0.6030 -2.2168
 9578WAT    EPW39020   8.028   3.806   2.745 -0.2354  0.0378  0.3910
 9579WAT      O39021   1.088   5.565   4.013  0.0568 -0.1959  0.1673
 9579WAT     H139022   1.085   5.542   3.929 -1.6334 -1.0330  0.4102
 9579WAT     H239023   1.172   5.586   4.026  0.2264  0.6252 -1.8774
 9579WAT    EPW39024   1.100   5.565   4.002  0.0856 -0.0320  0.2154
 9580WAT      O39025   2.392   2.637   4.929 -0.2007 -0.3950  0.5035
 9580WAT     H139026   2.389   2.611   4.846  0.2767 -0.4629  0.5074
 9580WAT     H239027   2.472   2.613   4.956 -0.9454 -1.9641  1.4986
 9580WAT    EPW39028   2.403   2.629   4.921 -0.4301 -0.7155 -0.3080
 9581WAT      O39029   0.659   6.648   3.757  0.1740  0.6799  0.1123
 9581WAT     H139030   0.650   6.567   3.727 -0.9755  0.8291  0.0097
 9581WAT     H239031   0.745   6.661   3.757  0.2664  0.5960 -2.8833
 9581WAT    EPW39032   0.670   6.638   3.753  0.0643 -0.2732  0.2631
 9582WAT      O39033   4.271   6.483   6.598  0.5872  0.1937  0.3589
 9582WAT     H139034   4.201   6.532   6.576  1.2839  1.2391  0.3973
 9582WAT     H239035   4.302   6.457   6.521 -0.7237 -1.6114  0.3748
 9582WAT    EPW39036   4.265   6.486   6.583 -0.2663  0.4602 -0.3653
 9583WAT      O39037   0.881   4.236   4.893  0.5515  0.4421 -0.3661
 9583WAT     H139038   0.870   4.318   4.866  2.2877  1.4454  1.6614
 9583WAT     H239039   0.801   4.211   4.917  0.3704  2.6038  1.6023
 9583WAT    EPW39040   0.868   4.244   4.893 -0.0074  0.6202 -0.4545
 9584WAT      O39041   1.949   5.377   2.854  1.0014 -0.4877 -1.0587
 9584WAT     H139042   1.932   5.400   2.772  2.2284  0.5643 -1.0452
 9584WAT     H239043   1.904   5.303   2.864  0.5330 -0.4378 -2.5502
 9584WAT    EPW39044   1.939   5.369   2.843 -0.5610 -1.0028  0.4316
 9585WAT      O39045   4.442   2.791   1.149  0.6756 -0.0067  0.4058
 9585WAT     H139046   4.369   2.743   1.146  0.4365  0.1099  2.8945
 9585WAT     H239047   4.505   2.732   1.158  0.9340 -0.0826 -1.4043
 9585WAT    EPW39048   4.440   2.775   1.150  0.2214  0.2034 -0.7017
 9586WAT      O39049   4.250   6.755   4.144  0.1799  0.5750 -0.3688
 9586WAT     H139050   4.173   6.748   4.104 -0.2365 -1.2127  0.6040
 9586WAT     H239051   4.233   6.733   4.227  1.9505 -1.6523 -0.4651
 9586WAT    EPW39052   4.236   6.750   4.151  0.2437  0.5114  0.0374
 9587WAT      O39053   2.374   5.683   5.030  0.1561 -0.0274 -0.2600
 9587WAT     H139054   2.310   5.741   5.041 -1.2136 -1.5762  0.4408
 9587WAT     H239055   2.348   5.636   4.962 -0.4336 -1.8007  1.0949
 9587WAT    EPW39056   2.361   5.685   5.022 -0.2674 -0.0358  0.0493
 9588WAT      O39057   2.913   5.012   3.436  0.9359 -0.1630 -0.1023
 9588WAT     H139058   2.998   4.991   3.438  0.5642 -1.8238 -0.7142
 9588WAT     H239059   2.878   4.951   3.386 -0.4636  1.1863 -0.8375
 9588WAT    EPW39060   2.921   5.000   3.429  0.1760 -0.3003  0.3711
 9589WAT      O39061   4.400   4.865   7.374 -0.5243  0.0971 -0.3423
 9589WAT     H139062   4.430   4.810   7.313 -0.7085 -1.7139  1.1091
 9589WAT     H239063   4.313   4.856   7.369 -0.5062 -1.2793  1.1761
 9589WAT    EPW39064   4.392   4.856   7.364  0.1555  0.3086  0.0151
 9590WAT      O39065  -0.004   3.916   1.844 -0.3925  0.0985 -0.3615
 9590WAT     H139066  -0.006   3.918   1.932 -0.4124 -1.0650 -0.3218
 9590WAT     H239067   0.025   3.995   1.823 -0.7979  0.5487  0.6836
 9590WAT    EPW39068  -0.000   3.928   1.854 -0.9357 -1.0668 -0.4322
 9591WAT      O39069   3.551   7.843   2.337  0.3739 -0.0243 -0.0670
 9591WAT     H139070   3.561   7.911   2.282  2.8586  2.0132  2.5726
 9591WAT     H239071   3.631   7.808   2.340  0.0049 -0.7965  1.3058
 9591WAT    EPW39072   3.564   7.848   2.329  0.0751 -0.1601  0.5437
 9592WAT      O39073   5.093   6.881   2.897  0.1698 -0.3230 -0.4982
 9592WAT     H139074   5.068   6.894   2.980 -1.1140  1.3922 -1.1156
 9592WAT     H239075   5.180   6.881   2.903  0.1400  1.1913  0.6846
 9592WAT    EPW39076   5.102   6.883   2.910 -0.5747  0.1763  0.3371
 9593WAT      O39077   2.618   6.541   6.936 -0.0131  0.0732 -0.3156
 9593WAT     H139078   2.636   6.623   6.958  0.1966 -0.3749  1.2924
 9593WAT     H239079   2.630   6.497   7.010 -2.3525 -1.0858 -0.5261
 9593WAT    EPW39080   2.622   6.547   6.950  0.3040  0.7515 -0.0988
 9594WAT      O39081   2.227   1.672   4.808  0.3777  0.2244 -0.2370
 9594WAT     H139082   2.178   1.602   4.789  2.3232 -1.3504  0.2515
 9594WAT     H239083   2.297   1.638   4.847  1.2202  2.5081  0.3846
 9594WAT    EPW39084   2.230   1.656   4.811 -0.3592  0.5997  0.4936
 9595WAT      O39085   0.365   5.382   3.020 -0.1810  0.0572 -0.1260
 9595WAT     H139086   0.349   5.402   3.104  2.2486  1.0677  0.1845
 9595WAT     H239087   0.401   5.454   2.988 -0.3749 -0.5743 -1.8748
 9595WAT    EPW39088   0.368   5.395   3.028  0.1930 -0.3873 -0.0920
 9596WAT      O39089   3.593   0.229   1.614  0.0323  0.2133  0.0684
 9596WAT     H139090   3.637   0.295   1.576  2.2636 -0.9089  0.5702
 9596WAT     H239091   3.550   0.268   1.679  0.7790  1.2756 -0.0506
 9596WAT    EPW39092   3.593   0.245   1.618 -0.1001  0.6997  0.3033
 9597WAT      O39093   3.361   4.637   4.058  0.3626  0.4786  0.1252
 9597WAT     H139094   3.329   4.559   4.081 -0.5881  0.9119  0.3496
 9597WAT     H239095   3.443   4.636   4.088  1.1757 -1.2936 -1.8644
 9597WAT    EPW39096   3.368   4.625   4.066 -0.1363  0.2567  0.8800
 9598WAT      O39097   5.604   6.146   3.516 -0.0029 -0.8163  0.2765
 9598WAT     H139098   5.668   6.130   3.458 -2.3220 -1.8916 -2.2471
 9598WAT     H239099   5.605   6.076   3.567  0.8002 -0.8282  0.2607
 9598WAT    EPW39100   5.614   6.133   3.515 -0.6538  0.1851 -0.0028
 9599WAT      O39101   2.280   4.988   5.259 -0.3151  0.7446 -0.1537
 9599WAT     H139102   2.361   4.969   5.233 -0.1533  0.2265  0.6945
 9599WAT     H239103   2.263   5.064   5.221  0.8588  1.2378  0.2705
 9599WAT    EPW39104   2.290   4.996   5.250 -0.0696 -0.1639 -0.3785
 9600WAT      O39105   2.711   0.256   6.974 -0.2077 -0.1892  0.5823
 9600WAT     H139106   2.719   0.342   6.970 -1.6360 -0.0509 -0.1355
 9600WAT     H239107   2.779   0.231   7.022  0.7469  1.2390  0.0487
 9600WAT    EPW39108   2.722   0.265   6.981 -0.3188 -0.1022  0.0153
 9601WAT      O39109   5.505   1.116   2.976 -0.0670  0.0892  0.2318
 9601WAT     H139110   5.571   1.165   3.006 -0.2010  1.4811 -1.5646
 9601WAT     H239111   5.539   1.035   2.976  1.4962  0.7004 -0.2005
 9601WAT    EPW39112   5.520   1.111   2.981  0.2985  0.7829 -0.3254
 9602WAT      O39113   3.390   5.169   6.486 -0.1176  0.3746 -0.4182
 9602WAT     H139114   3.316   5.207   6.458 -0.2128  0.7156  0.2674
 9602WAT     H239115   3.429   5.232   6.532 -0.8937 -0.6674  1.8652
 9602WAT    EPW39116   3.385   5.184   6.489 -0.1624 -0.5954 -0.1629
 9603WAT      O39117   4.240   7.024   2.590  0.1910  0.3440 -0.4393
 9603WAT     H139118   4.326   7.025   2.606  0.2488 -0.9791 -0.5519
 9603WAT     H239119   4.220   7.109   2.582  1.0535  0.8110  1.7429
 9603WAT    EPW39120   4.250   7.037   2.591 -0.7948  0.3531 -0.1677
 9604WAT      O39121   8.034   3.531   2.761 -0.2893  0.1908 -0.7509
 9604WAT     H139122   8.018   3.615   2.775 -0.0391  0.1354 -0.1108
 9604WAT     H239123   8.110   3.517   2.802 -0.9770 -0.6435  0.2800
 9604WAT    EPW39124   8.043   3.541   2.769 -0.0021  0.2852 -0.5704
 9605WAT      O39125   7.339   6.316   1.432  0.1308 -0.4687  0.0914
 9605WAT     H139126   7.323   6.402   1.429  0.2252 -0.4771 -1.7646
 9605WAT     H239127   7.315   6.294   1.513 -0.2417  1.2328  0.4939
 9605WAT    EPW39128   7.333   6.325   1.443 -0.2214 -0.3071  0.1985
 9606WAT      O39129   3.687   3.766   2.654 -0.1827 -0.5443  0.2413
 9606WAT     H139130   3.686   3.753   2.741 -1.1572 -0.2838  0.2913
 9606WAT     H239131   3.671   3.852   2.647 -0.9885 -0.7168 -0.1966
 9606WAT    EPW39132   3.684   3.777   2.666 -0.8543 -0.2962 -0.5324
 9607WAT      O39133   7.715   4.441   3.879  0.3089  0.3935 -0.0626
 9607WAT     H139134   7.629   4.432   3.884  0.2250  0.9423 -0.4224
 9607WAT     H239135   7.746   4.373   3.925 -0.3018 -0.2073 -0.5211
 9607WAT    EPW39136   7.707   4.429   3.886 -0.3943  0.0972 -0.3433
 9608WAT      O39137   4.750   6.635   1.163 -0.0449 -0.0763  0.6117
 9608WAT     H139138   4.715   6.558   1.144  0.5576 -0.1442 -0.2838
 9608WAT     H239139   4.696   6.668   1.222 -1.6840 -0.1168 -0.8055
 9608WAT    EPW39140   4.737   6.628   1.169  0.1183  0.4571 -0.2709
 9609WAT      O39141   2.227   7.557   7.465 -0.0986  0.2677  0.6379
 9609WAT     H139142   2.290   7.543   7.525  1.2987 -0.2289 -0.8788
 9609WAT     H239143   2.229   7.485   7.416  0.3895  1.5766 -1.3764
 9609WAT    EPW39144   2.237   7.544   7.467 -0.1139  0.0103  0.0114
 9610WAT      O39145   4.862   0.812   3.129  0.1025  0.2365 -0.7556
 9610WAT     H139146   4.823   0.770   3.064 -2.5941 -1.4010  1.6406
 9610WAT     H239147   4.827   0.892   3.127  1.2974  0.7561 -2.2183
 9610WAT    EPW39148   4.851   0.818   3.119 -0.1928 -0.3080 -0.4321
 9611WAT      O39149   3.960   6.861   0.313  0.0847 -0.9925 -0.0795
 9611WAT     H139150   3.937   6.928   0.263  1.4938  0.7869  1.5098
 9611WAT     H239151   3.908   6.796   0.286 -0.7078  0.4511 -2.2928
 9611WAT    EPW39152   3.949   6.861   0.302 -0.0255 -0.0331  0.1334
 9612WAT      O39153   0.111   0.372   3.857  0.1996  0.0859  0.3533
 9612WAT     H139154   0.033   0.404   3.877  0.0968  0.6477 -0.8658
 9612WAT     H239155   0.093   0.305   3.804  0.5423  1.2787 -1.3673
 9612WAT    EPW39156   0.097   0.367   3.852  0.1928 -0.0049  0.1589
 9613WAT      O39157   5.321   5.863   6.724  0.4527 -0.3201  0.3037
 9613WAT     H139158   5.363   5.792   6.697  1.6121  0.2225  0.6526
 9613WAT     H239159   5.357   5.881   6.802 -0.4239  0.1559  0.6175
 9613WAT    EPW39160   5.332   5.855   6.732  0.3598  0.0655 -0.6595
 9614WAT      O39161   4.051   6.138   2.098 -0.1860  0.6923  0.0945
 9614WAT     H139162   4.063   6.222   2.122 -0.8004  0.8108 -0.0140
 9614WAT     H239163   4.124   6.120   2.054  1.3931  0.2289  2.6520
 9614WAT    EPW39164   4.064   6.148   2.095  0.5908 -0.0890 -0.1655
 9615WAT      O39165   2.227   6.629   2.308  0.0160  0.2367  0.2767
 9615WAT     H139166   2.189   6.705   2.287  1.0277  0.8051  0.4048
 9615WAT     H239167   2.226   6.584   2.234  1.1042  1.1418 -0.3277
 9615WAT    EPW39168   2.221   6.634   2.294 -0.0856 -0.4890  0.3852
 9616WAT      O39169   7.204   5.664   3.262  0.6739  0.1375 -0.3359
 9616WAT     H139170   7.130   5.624   3.287  0.6423  0.7930  0.6528
 9616WAT     H239171   7.181   5.702   3.187  0.5181 -1.1222 -0.9506
 9616WAT    EPW39172   7.190   5.664   3.255  0.0165  0.0590 -0.1032
 9617WAT      O39173   2.016   5.204   3.449  0.0157 -0.0701 -0.1378
 9617WAT     H139174   2.006   5.285   3.415  1.4145  0.1619 -0.0433
 9617WAT     H239175   2.050   5.159   3.383 -0.1120 -0.4157  0.0312
 9617WAT    EPW39176   2.019   5.210   3.434 -0.6652  0.2682  0.6446
 9618WAT      O39177   2.640   7.679   4.023 -0.1796  0.3175 -0.6905
 9618WAT     H139178   2.575   7.629   3.992 -0.2108  0.6069 -1.0961
 9618WAT     H239179   2.662   7.639   4.098 -0.9406  0.3086 -0.4625
 9618WAT    EPW39180   2.633   7.666   4.030 -0.1899  0.0475  0.6644
 9619WAT      O39181   1.897   3.095   4.295  0.2722 -0.0423  0.2470
 9619WAT     H139182   1.829   3.043   4.281  0.7983 -0.2660 -1.7711
 9619WAT     H239183   1.947   3.084   4.224  3.0135 -0.7871  2.1235
 9619WAT    EPW39184   1.895   3.086   4.283  0.2273  0.4280  0.0988
 9620WAT      O39185   1.730   5.220   7.586 -0.5246 -0.0445 -0.3296
 9620WAT     H139186   1.769   5.228   7.508 -1.2688  0.2065 -0.6859
 9620WAT     H239187   1.780   5.266   7.640  0.6098 -1.0932 -0.4276
 9620WAT    EPW39188   1.743   5.228   7.582  0.4748  0.0315  0.1115
 9621WAT      O39189   4.783   5.412   0.894  0.4703 -0.0981 -0.7259
 9621WAT     H139190   4.715   5.386   0.846 -0.0280  0.1463 -0.1578
 9621WAT     H239191   4.759   5.394   0.976  1.5953 -1.1554 -0.6005
 9621WAT    EPW39192   4.770   5.405   0.899 -0.0300 -0.1286 -0.1236
 9622WAT      O39193   7.852   2.523   1.128  1.0750  0.2579  0.4219
 9622WAT     H139194   7.842   2.508   1.213 -0.0285  1.4956  0.5317
 9622WAT     H239195   7.850   2.443   1.093 -2.7482 -0.1707  1.1660
 9622WAT    EPW39196   7.850   2.509   1.135 -0.1332  0.7306 -0.5869
 9623WAT      O39197   0.086   4.943   0.868  1.2639 -0.0853  0.3567
 9623WAT     H139198   0.009   4.903   0.864  0.7563  0.9539 -1.1849
 9623WAT     H239199   0.077   4.996   0.937 -0.3162  1.7147 -1.1273
 9623WAT    EPW39200   0.073   4.945   0.878  0.9193  0.2358 -0.2587
 9624WAT      O39201   3.718   4.131   0.469 -0.2100 -0.2403 -0.3001
 9624WAT     H139202   3.676   4.193   0.423 -0.4199 -0.3514 -0.2567
 9624WAT     H239203   3.796   4.167   0.484 -0.9606  0.8333  1.3788
 9624WAT    EPW39204   3.723   4.146   0.464 -0.5924 -0.7283  0.4169
 9625WAT      O39205   5.428   1.420   0.635 -0.4592  0.5240 -0.5733
 9625WAT     H139206   5.451   1.344   0.599  0.1031  1.6479 -2.7573
 9625WAT     H239207   5.361   1.399   0.687 -0.4549 -1.4284 -1.2808
 9625WAT    EPW39208   5.421   1.406   0.637  0.1095 -0.3256  0.5045
 9626WAT      O39209   0.798   0.403   1.770  0.2842 -0.3054  0.5122
 9626WAT     H139210   0.715   0.427   1.760  0.0837 -0.1777  2.1237
 9626WAT     H239211   0.807   0.335   1.718  0.0835  1.5296 -2.1155
 9626WAT    EPW39212   0.787   0.397   1.761 -0.2514 -0.1568  0.1739
 9627WAT      O39213   7.196   5.975   1.900  0.5169 -0.3068  0.4598
 9627WAT     H139214   7.146   5.960   1.830  1.7277 -2.3574 -0.0736
 9627WAT     H239215   7.162   5.921   1.960 -0.6430  1.5873  1.5883
 9627WAT    EPW39216   7.184   5.965   1.899  0.0155  0.5006 -0.2635
 9628WAT      O39217   1.127   0.148   2.871  0.2044  0.2689  0.6131
 9628WAT     H139218   1.163   0.180   2.798  0.8538  0.7566  1.1377
 9628WAT     H239219   1.094   0.219   2.910  0.5903  0.1429  1.1891
 9628WAT    EPW39220   1.128   0.163   2.866 -0.2558 -0.0712  0.0672
 9629WAT      O39221   3.081   5.304   7.536  0.0140  0.1991 -0.3348
 9629WAT     H139222   3.120   5.342   7.468 -0.5192  0.5387 -0.4482
 9629WAT     H239223   3.027   5.246   7.500  1.3484 -1.2324 -0.1590
 9629WAT    EPW39224   3.079   5.301   7.521 -0.2467  0.4670 -0.5666
 9630WAT      O39225   2.616   4.683   4.553  0.4243  0.3869  0.7507
 9630WAT     H139226   2.649   4.690   4.634  2.1081  0.0362  0.1428
 9630WAT     H239227   2.627   4.763   4.520  1.1562  0.1384  0.3776
 9630WAT    EPW39228   2.623   4.696   4.561 -0.0295 -0.2648 -0.2394
 9631WAT      O39229   3.372   5.319   7.042  0.4795 -0.2817 -0.2775
 9631WAT     H139230   3.372   5.252   7.098  1.4981 -0.9278 -1.0316
 9631WAT     H239231   3.450   5.355   7.054  0.7115 -0.4395 -1.2976
 9631WAT    EPW39232   3.383   5.314   7.052  0.0992  0.0365  0.6679
 9632WAT      O39233   5.881   7.384   3.685 -0.4221 -0.0162 -0.5464
 9632WAT     H139234   5.927   7.400   3.757  0.7110  0.8322 -1.4177
 9632WAT     H239235   5.806   7.427   3.698 -0.0655  0.4651 -0.0366
 9632WAT    EPW39236   5.877   7.393   3.697 -0.3302 -0.0903  0.1662
 9633WAT      O39237   3.307   5.148   1.244  0.2668  0.3630  0.0335
 9633WAT     H139238   3.355   5.209   1.204  0.3915  1.2311  1.4531
 9633WAT     H239239   3.232   5.149   1.198  0.5064  1.1080 -0.3741
 9633WAT    EPW39240   3.303   5.157   1.231  0.3115  0.1576 -0.2750
 9634WAT      O39241   3.796   1.583   0.119  0.0493 -0.0468  0.1537
 9634WAT     H139242   3.716   1.602   0.091 -0.9018 -0.4442  2.3795
 9634WAT     H239243   3.794   1.497   0.131  1.2221 -0.2446 -0.8265
 9634WAT    EPW39244   3.784   1.573   0.117 -0.0653 -0.2644  0.4416
 9635WAT      O39245   2.586   3.172   8.027 -0.5673 -0.3168 -0.1945
 9635WAT     H139246   2.631   3.114   8.074  0.3778 -0.9418 -1.7859
 9635WAT     H239247   2.506   3.138   8.024 -0.0683 -1.5024 -0.9633
 9635WAT    EPW39248   2.581   3.158   8.033  0.2002  0.1302 -0.9106
 9636WAT      O39249   2.005   6.245   1.065  0.0067  0.0145 -0.2618
 9636WAT     H139250   2.005   6.314   1.118  1.2679 -0.6885  0.7155
 9636WAT     H239251   1.979   6.278   0.989  2.3498  2.0020 -0.3310
 9636WAT    EPW39252   2.002   6.260   1.062 -0.1896 -0.7943  0.1050
 9637WAT      O39253   0.604   4.002   3.197  0.0084 -0.4633  0.2233
 9637WAT     H139254   0.674   4.010   3.249 -1.3843 -1.5873  2.4190
 9637WAT     H239255   0.586   3.916   3.201 -1.2336 -0.2617 -0.6520
 9637WAT    EPW39256   0.612   3.990   3.205  0.0112  0.2123  0.2041
 9638WAT      O39257   5.824   0.990   7.754 -0.6558  0.3619  0.1938
 9638WAT     H139258   5.844   1.061   7.800 -1.0763 -0.4142  1.6191
 9638WAT     H239259   5.885   0.932   7.777 -0.1214  0.3168 -1.1982
 9638WAT    EPW39260   5.836   0.992   7.764  0.3707  0.0475 -0.5301
 9639WAT      O39261   2.160   5.912   5.623 -0.1975 -0.0380 -0.1168
 9639WAT     H139262   2.179   5.851   5.563  1.5663  1.1660 -0.8714
 9639WAT     H239263   2.185   5.875   5.698  0.7647 -0.3085 -0.5564
 9639WAT    EPW39264   2.167   5.897   5.625 -0.3675 -0.4791  0.3816
 9640WAT      O39265   5.285   5.552   3.999  0.2083  0.0953  0.2491
 9640WAT     H139266   5.222   5.613   4.001  1.5394  1.6413 -1.7668
 9640WAT     H239267   5.244   5.482   3.967 -1.3934 -0.2613  2.7766
 9640WAT    EPW39268   5.269   5.551   3.994  0.3834  0.6247 -0.0615
 9641WAT      O39269   0.494   5.189  -0.004  0.6760 -0.7824  0.1070
 9641WAT     H139270   0.489   5.270   0.029  0.6420 -0.7105 -0.0762
 9641WAT     H239271   0.410   5.165  -0.011  0.6038 -0.0983 -1.6734
 9641WAT    EPW39272   0.481   5.197  -0.000  0.0198  0.3364 -0.0807
 9642WAT      O39273   6.443   6.311   4.466  0.2999  0.2450  0.3215
 9642WAT     H139274   6.384   6.267   4.419  2.0069 -0.0772 -1.7083
 9642WAT     H239275   6.396   6.348   4.529 -1.7383 -1.6490  0.0640
 9642WAT    EPW39276   6.427   6.310   4.468  0.0580 -0.6224 -0.0923
 9643WAT      O39277   7.423   1.828   4.910 -0.1755 -0.1126 -0.2760
 9643WAT     H139278   7.490   1.883   4.895  0.3487  0.5425  3.3922
 9643WAT     H239279   7.458   1.749   4.895  1.6322  0.1971  1.7144
 9643WAT    EPW39280   7.438   1.825   4.906  0.1226  0.0682  0.1114
 9644WAT      O39281   1.896   1.242   5.511 -0.0610 -0.5523  0.3086
 9644WAT     H139282   1.920   1.326   5.499 -2.2390  0.0002 -0.6807
 9644WAT     H239283   1.836   1.247   5.574  1.1690 -1.6699  1.6208
 9644WAT    EPW39284   1.891   1.255   5.518 -0.1447  0.1724 -0.1556
 9645WAT      O39285   7.054   0.164   4.330 -0.0796 -0.2098  0.4489
 9645WAT     H139286   7.020   0.139   4.254  0.9078  3.3138 -1.4010
 9645WAT     H239287   6.985   0.191   4.376 -0.4669  0.0830 -0.2934
 9645WAT    EPW39288   7.039   0.164   4.326 -0.2084  0.2043 -0.4415
 9646WAT      O39289   7.476   1.044   2.070 -0.0863 -0.4587 -0.2717
 9646WAT     H139290   7.556   1.041   2.104  0.2736  0.9713 -0.9285
 9646WAT     H239291   7.424   1.054   2.140  0.5881  1.7444 -0.0259
 9646WAT    EPW39292   7.480   1.045   2.085 -0.0394 -0.5771  0.0140
 9647WAT      O39293   0.079   0.032   1.034 -0.4006 -0.5585 -0.2843
 9647WAT     H139294   0.123  -0.032   0.994  0.8810  0.7635 -1.1164
 9647WAT     H239295   0.141   0.074   1.079 -1.2516 -0.0231  0.4101
 9647WAT    EPW39296   0.095   0.029   1.035 -0.1184  0.2946  0.2082
 9648WAT      O39297   1.847   3.532   0.339  0.0220  0.0142 -0.4625
 9648WAT     H139298   1.890   3.457   0.337  2.1385  1.1472 -0.3036
 9648WAT     H239299   1.849   3.555   0.423 -0.1181  0.5098 -0.5870
 9648WAT    EPW39300   1.853   3.524   0.351  0.5327  0.7524  0.1617
 9649WAT      O39301   2.807   5.314   1.659  0.1596 -0.7487 -0.1267
 9649WAT     H139302   2.811   5.399   1.679 -1.9654 -1.0852  2.1803
 9649WAT     H239303   2.881   5.282   1.692  0.9623  0.1210 -0.9763
 9649WAT    EPW39304   2.819   5.322   1.667 -0.3270 -0.0978 -0.3680
 9650WAT      O39305   3.440   0.070   2.449 -0.0686 -0.7480 -0.1660
 9650WAT     H139306   3.373   0.104   2.406 -0.1331  1.0754  1.2748
 9650WAT     H239307   3.449  -0.009   2.413 -0.3899  0.4508 -3.1728
 9650WAT    EPW39308   3.432   0.063   2.437 -0.3180 -0.5855  0.0869
 9651WAT      O39309   0.253   2.501   1.877 -0.0788 -0.4231 -0.1318
 9651WAT     H139310   0.192   2.444   1.854  0.8772 -1.6387  0.2710
 9651WAT     H239311   0.209   2.576   1.884 -1.2633 -0.9938 -1.1393
 9651WAT    EPW39312   0.238   2.504   1.875  0.2006 -0.0502 -0.8454
 9652WAT      O39313   4.869   5.777   2.306 -0.6079 -0.5446 -0.3736
 9652WAT     H139314   4.890   5.700   2.343 -0.4872 -0.2872  0.0966
 9652WAT     H239315   4.803   5.806   2.355  0.5712  0.5485  0.6438
 9652WAT    EPW39316   4.862   5.770   2.319 -0.3382  0.5898 -0.0173
 9653WAT      O39317   0.484   3.061   2.352 -0.6977 -0.0341  0.0685
 9653WAT     H139318   0.564   3.066   2.387 -1.2034  0.5938  1.1927
 9653WAT     H239319   0.468   2.975   2.351 -0.9309 -0.0477  2.0622
 9653WAT    EPW39320   0.494   3.049   2.357 -0.2180 -0.2198 -0.0589
 9654WAT      O39321   1.634   5.873   2.695 -0.1456 -0.6288 -0.5702
 9654WAT     H139322   1.572   5.872   2.634 -1.0610  0.7476  0.2996
 9654WAT     H239323   1.640   5.957   2.718  2.3254 -0.6458 -0.8761
 9654WAT    EPW39324   1.626   5.885   2.689  0.1603 -0.5701  0.2263
 9655WAT      O39325   0.802   3.062   5.386 -0.3406 -0.2031 -0.0303
 9655WAT     H139326   0.741   3.005   5.410  0.4263 -1.0837 -0.0776
 9655WAT     H239327   0.874   3.013   5.381  0.3740  0.8022  0.0564
 9655WAT    EPW39328   0.804   3.046   5.389  0.3543  0.5143  0.5851
 9656WAT      O39329   5.766   6.957   0.841 -0.6368  1.2260 -0.1319
 9656WAT     H139330   5.786   7.009   0.908  1.4189  0.3215  0.0424
 9656WAT     H239331   5.687   6.927   0.861 -0.5081  1.7824  1.3503
 9656WAT    EPW39332   5.757   6.961   0.854 -0.2884  0.5105 -0.3070
 9657WAT      O39333   2.269   6.143   7.801 -0.0265  0.2822 -0.2339
 9657WAT     H139334   2.308   6.098   7.737  0.7683 -0.6861  0.8807
 9657WAT     H239335   2.239   6.214   7.761  0.5396 -0.2458 -1.6591
 9657WAT    EPW39336   2.271   6.147   7.786  0.2933  0.3021 -0.2582
 9658WAT      O39337   3.661   4.076   0.898 -0.0770 -0.3764  0.2861
 9658WAT     H139338   3.665   4.016   0.961 -1.5253 -2.2608 -1.3072
 9658WAT     H239339   3.588   4.057   0.856 -0.0455  1.9072 -0.9568
 9658WAT    EPW39340   3.651   4.065   0.901  0.3917  0.4858  0.1232
 9659WAT      O39341   1.881   4.266   1.343 -0.1401  0.0128  0.0422
 9659WAT     H139342   1.967   4.251   1.354 -0.3939 -2.9383 -1.2034
 9659WAT     H239343   1.878   4.312   1.269  0.4233  2.8550  1.6345
 9659WAT    EPW39344   1.894   4.271   1.334 -0.4673 -1.0980  0.1940
 9660WAT      O39345   0.449   7.804   4.381 -0.0856  0.1186  0.3654
 9660WAT     H139346   0.464   7.842   4.304  0.8691  0.9094  0.9107
 9660WAT     H239347   0.470   7.867   4.439 -0.3593 -0.5979  1.2684
 9660WAT    EPW39348   0.454   7.819   4.379  0.2598 -0.7983  0.4543
 9661WAT      O39349   5.912   1.792   0.756 -0.2354 -0.1452  0.3694
 9661WAT     H139350   5.919   1.878   0.771 -1.7916  0.0942 -0.0777
 9661WAT     H239351   5.866   1.763   0.824 -0.9338 -0.3690 -0.1891
 9661WAT    EPW39352   5.906   1.800   0.768  0.1156  0.1276  0.3049
 9662WAT      O39353   7.929   5.509   0.457 -0.1391 -0.5083 -0.0346
 9662WAT     H139354   7.858   5.463   0.477  0.4640 -1.3853  0.1565
 9662WAT     H239355   7.904   5.592   0.470 -0.0217 -0.9001  3.9193
 9662WAT    EPW39356   7.915   5.515   0.462 -0.2685  0.8759  0.7060
 9663WAT      O39357   0.502   5.407   1.699 -0.1522  0.1784  0.1120
 9663WAT     H139358   0.478   5.368   1.773 -0.1715 -2.0703 -0.9881
 9663WAT     H239359   0.582   5.436   1.715 -0.3585  0.1939  1.1564
 9663WAT    EPW39360   0.510   5.405   1.712  0.4455  0.1763 -0.7267
 9664WAT      O39361   4.155   7.118   7.883  0.6393 -0.1894 -0.4569
 9664WAT     H139362   4.106   7.182   7.849  2.1176  1.6670  0.7207
 9664WAT     H239363   4.099   7.053   7.894 -0.9054  0.8190 -1.8739
 9664WAT    EPW39364   4.140   7.118   7.880 -0.0086  0.6862 -0.6216
 9665WAT      O39365   1.415   3.613   2.983 -0.5875  0.3806 -0.2490
 9665WAT     H139366   1.469   3.573   2.927 -0.9916 -0.2260 -0.2098
 9665WAT     H239367   1.469   3.650   3.041 -0.2053 -0.0171 -0.3471
 9665WAT    EPW39368   1.431   3.612   2.983  0.2059 -0.5271  0.0920
 9666WAT      O39369   6.569   1.865   7.956  0.0462 -0.2628  0.5727
 9666WAT     H139370   6.594   1.876   7.873 -0.1436  0.0954  0.5608
 9666WAT     H239371   6.498   1.915   7.962 -1.8089 -2.6722  0.0823
 9666WAT    EPW39372   6.563   1.874   7.944 -0.5467 -0.1099  0.2525
 9667WAT      O39373   0.753   5.232   0.642 -0.1255 -0.9111  0.3389
 9667WAT     H139374   0.830   5.264   0.616 -0.2630 -1.6711 -1.1255
 9667WAT     H239375   0.775   5.167   0.696  0.2951 -1.3674 -0.3602
 9667WAT    EPW39376   0.767   5.227   0.646  0.2369  0.0605 -0.6503
 9668WAT      O39377   6.523   0.547   1.160  0.3906 -0.3194  0.7148
 9668WAT     H139378   6.480   0.473   1.174 -2.4955  1.3869  1.6305
 9668WAT     H239379   6.527   0.584   1.239  1.6848  0.5648  0.2716
 9668WAT    EPW39380   6.518   0.541   1.173  0.3003 -0.1484 -0.3615
 9669WAT      O39381   4.502   5.786   0.057 -0.2998  0.3701  0.6353
 9669WAT     H139382   4.426   5.780   0.013  0.1767 -0.7340 -0.0619
 9669WAT     H239383   4.562   5.762  -0.001  0.7007  1.9429  0.9523
 9669WAT    EPW39384   4.499   5.782   0.042  0.0527 -0.3854  0.1211
 9670WAT      O39385   0.055   0.955   0.206 -0.1259 -0.0092 -0.0648
 9670WAT     H139386  -0.009   1.010   0.185 -1.4026 -1.3359  0.1841
 9670WAT     H239387   0.127   0.994   0.176 -1.1271  1.1850 -1.0056
 9670WAT    EPW39388   0.056   0.969   0.199 -0.0400  0.0344  0.6619
 9671WAT      O39389   2.396   6.570   3.872 -0.1179 -0.1605  0.0909
 9671WAT     H139390   2.459   6.563   3.931  0.2168  0.7321 -0.1534
 9671WAT     H239391   2.415   6.643   3.829 -0.3481 -0.7821 -1.1263
 9671WAT    EPW39392   2.408   6.579   3.874 -0.0328 -0.2897 -0.1095
 9672WAT      O39393   1.684   4.434   4.517 -0.1395  0.3016  0.0840
 9672WAT     H139394   1.746   4.466   4.570  0.7902 -1.4202  0.1100
 9672WAT     H239395   1.707   4.462   4.438 -0.2745  1.0262  0.2926
 9672WAT    EPW39396   1.696   4.443   4.513 -0.5208  0.3467 -0.7216
 9673WAT      O39397   7.092   4.902   2.761 -0.0679 -0.4419 -0.2112
 9673WAT     H139398   7.056   4.981   2.752 -0.6427 -0.4737  1.4642
 9673WAT     H239399   7.026   4.848   2.742 -1.5418 -0.5242  4.0136
 9673WAT    EPW39400   7.077   4.906   2.757  0.3639  0.9048 -0.0885
 9674WAT      O39401   5.271   3.758   0.267 -0.0857  0.1439  0.3320
 9674WAT     H139402   5.326   3.822   0.289 -0.7871  1.2043 -0.8564
 9674WAT     H239403   5.193   3.797   0.267 -0.4391 -0.4880 -1.2060
 9674WAT    EPW39404   5.267   3.773   0.270  0.4344 -0.3899  0.3571
 9675WAT      O39405   0.208   3.457   3.324 -0.8249  0.0035 -0.2331
 9675WAT     H139406   0.218   3.538   3.293 -0.8129  0.1189  0.0764
 9675WAT     H239407   0.248   3.408   3.264 -1.0842  0.1970 -0.5763
 9675WAT    EPW39408   0.215   3.462   3.310 -1.2626 -0.1233  0.2176
 9676WAT      O39409   1.557   6.648   4.867  0.3358 -0.5214  0.1242
 9676WAT     H139410   1.588   6.729   4.863 -0.9668  0.1040  1.7412
 9676WAT     H239411   1.625   6.601   4.894  0.8619  0.1585  0.0239
 9676WAT    EPW39412   1.571   6.653   4.870 -0.4498  0.1412  0.0086
 9677WAT      O39413   0.498   5.563   0.834  0.2069 -0.4137  0.0664
 9677WAT     H139414   0.531   5.548   0.913  1.1553 -0.8350 -0.4002
 9677WAT     H239415   0.502   5.486   0.794 -0.2689 -0.2058 -0.4052
 9677WAT    EPW39416   0.503   5.550   0.840  0.4801 -0.0110 -0.8118
 9678WAT      O39417   0.344   1.886   2.891  0.0808  0.0519  0.5592
 9678WAT     H139418   0.322   1.961   2.854  0.1538 -0.0807  0.2434
 9678WAT     H239419   0.293   1.828   2.850  0.1405 -0.0910  0.6874
 9678WAT    EPW39420   0.333   1.888   2.879  0.2156  0.2588  0.1690
 9679WAT      O39421   5.693   2.079   6.970  0.2465  0.4158 -0.0071
 9679WAT     H139422   5.760   2.123   6.937  0.0539  2.0045  1.5634
 9679WAT     H239423   5.624   2.113   6.929  0.2983 -0.4990 -0.8828
 9679WAT    EPW39424   5.693   2.091   6.959 -0.6682 -0.1903 -0.5077
 9680WAT      O39425   0.570   6.309   0.022  0.7786 -0.4883  0.0617
 9680WAT     H139426   0.618   6.238   0.005 -0.3397 -1.1383 -0.4961
 9680WAT     H239427   0.488   6.280   0.015  0.2975  0.6088  0.9321
 9680WAT    EPW39428   0.565   6.294   0.018  0.1996  0.3618 -0.4350
 9681WAT      O39429   4.782   5.596   7.792  0.2877  0.4833 -0.2308
 9681WAT     H139430   4.867   5.610   7.780  0.0167  1.8118 -0.8001
 9681WAT     H239431   4.776   5.509   7.799  1.4591  0.1808 -2.2452
 9681WAT    EPW39432   4.794   5.585   7.791  0.3469  0.6173  0.2962
 9682WAT      O39433   2.839   5.572   1.784 -0.0727 -0.4774  0.5652
 9682WAT     H139434   2.757   5.601   1.793 -0.4550 -0.4147 -2.3204
 9682WAT     H239435   2.882   5.612   1.849 -2.2538 -0.4083  2.0652
 9682WAT    EPW39436   2.833   5.582   1.795 -0.1941 -0.1180 -0.4569
 9683WAT      O39437   0.593   6.005   1.086  0.2781  0.5295  0.1168
 9683WAT     H139438   0.608   5.936   1.138 -1.2845 -0.0114 -0.1070
 9683WAT     H239439   0.669   6.015   1.044  0.4475 -1.2918 -0.0942
 9683WAT    EPW39440   0.607   5.996   1.088  0.2254 -0.0460 -0.3638
 9684WAT      O39441   3.398   4.025   2.013 -0.3636 -0.2387 -0.3923
 9684WAT     H139442   3.440   4.097   2.039 -0.6731 -0.7442  1.6784
 9684WAT     H239443   3.385   4.039   1.928 -0.4624  2.1809 -0.0621
 9684WAT    EPW39444   3.402   4.038   2.004 -0.2916  0.5106  0.0223
 9685WAT      O39445   0.730   3.235   5.172  0.4318  0.2821  0.0084
 9685WAT     H139446   0.646   3.222   5.152  1.0173 -0.2505 -2.3956
 9685WAT     H239447   0.745   3.179   5.237 -1.3617  1.3648  1.4514
 9685WAT    EPW39448   0.720   3.225   5.179 -0.2772 -0.2827  0.2927
 9686WAT      O39449   2.969   5.884   4.433 -0.2376 -0.0569  0.2342
 9686WAT     H139450   2.970   5.970   4.446 -0.8338 -0.3329  2.4702
 9686WAT     H239451   2.996   5.875   4.350  0.3183  2.2282  0.1187
 9686WAT    EPW39452   2.973   5.895   4.423 -0.8777  0.2769 -0.1593
 9687WAT      O39453   6.962   5.048   1.253 -0.4179  0.0617  0.2472
 9687WAT     H139454   7.010   4.977   1.240 -1.0448 -0.5021  0.8976
 9687WAT     H239455   6.880   5.019   1.240 -0.6855  0.6334  0.6371
 9687WAT    EPW39456   6.957   5.033   1.249 -0.6748  0.4688 -0.0791
 9688WAT      O39457   1.660   6.786   0.492 -0.2080  0.0897 -0.2802
 9688WAT     H139458   1.737   6.787   0.451  0.3801 -1.4962  0.6972
 9688WAT     H239459   1.657   6.865   0.529  0.8118  0.3023 -0.5996
 9688WAT    EPW39460   1.671   6.798   0.492  0.9743 -1.0876  0.1633
 9689WAT      O39461   1.639   7.498   4.825 -0.4145  0.0949  0.1339
 9689WAT     H139462   1.604   7.457   4.757 -1.1361 -2.2908  1.8150
 9689WAT     H239463   1.704   7.445   4.849 -0.9991  0.1721  2.0555
 9689WAT    EPW39464   1.644   7.484   4.818  0.0922 -0.2202  0.2051
 9690WAT      O39465   2.848   6.911   2.046 -0.0212  0.4248 -0.2642
 9690WAT     H139466   2.807   6.912   2.123 -1.2481  0.7708 -0.8945
 9690WAT     H239467   2.795   6.866   1.994  1.4970 -1.1209 -0.5722
 9690WAT    EPW39468   2.834   6.905   2.050  0.3638 -0.5933  0.1776
 9691WAT      O39469   1.622   3.616   6.044 -0.5959  0.4326  0.0872
 9691WAT     H139470   1.632   3.688   6.092 -0.5031 -0.5408  1.5704
 9691WAT     H239471   1.538   3.618   6.021 -0.2836  1.7257 -1.1294
 9691WAT    EPW39472   1.611   3.627   6.048  0.6611 -0.5812  0.0635
 9692WAT      O39473   1.622   4.648   3.254 -0.0270 -0.7465  0.0735
 9692WAT     H139474   1.599   4.572   3.219  0.5207 -1.4675  1.2481
 9692WAT     H239475   1.708   4.640   3.266  0.0606  0.1040  0.1313
 9692WAT    EPW39476   1.631   4.636   3.250 -0.3282  0.0360 -0.3657
 9693WAT      O39477   3.152   0.865   5.773  0.2165  0.2521 -0.0457
 9693WAT     H139478   3.195   0.932   5.739  0.1071 -0.0723 -0.8397
 9693WAT     H239479   3.208   0.798   5.765 -0.1927 -0.0416 -0.5327
 9693WAT    EPW39480   3.167   0.865   5.767  0.0174  0.2459  0.0929
 9694WAT      O39481   3.507   7.572   3.928  0.7058  0.2732 -0.6016
 9694WAT     H139482   3.504   7.583   4.014  0.5386  0.9637 -0.6874
 9694WAT     H239483   3.433   7.610   3.900  0.2186 -0.8739 -0.9615
 9694WAT    EPW39484   3.495   7.579   3.937  0.1739 -0.0735 -0.1788
 9695WAT      O39485   6.223   4.360   3.806 -0.2859 -0.5445  0.5505
 9695WAT     H139486   6.255   4.378   3.885  1.0095 -0.5038  0.0333
 9695WAT     H239487   6.220   4.438   3.767  0.3202 -0.7260  0.1225
 9695WAT    EPW39488   6.227   4.375   3.812 -0.0823  0.0936  0.1884
 9696WAT      O39489   5.286   3.684   7.535 -0.2650  0.5819  0.4710
 9696WAT     H139490   5.279   3.769   7.553  0.1777  1.0656 -1.4282
 9696WAT     H239491   5.312   3.682   7.452  0.1993 -1.4179  0.5995
 9696WAT    EPW39492   5.289   3.696   7.525  0.0037  0.0879 -0.5500
 9697WAT      O39493   0.147   6.446   1.717 -0.1815  0.6133  0.3853
 9697WAT     H139494   0.228   6.414   1.715  0.2967  1.4820  2.6396
 9697WAT     H239495   0.151   6.509   1.777 -2.6701  0.2438  1.0700
 9697WAT    EPW39496   0.159   6.451   1.726 -0.2418 -0.0345  0.2656
 9698WAT      O39497   1.785   4.871   2.244  0.3465  0.1263  0.1481
 9698WAT     H139498   1.836   4.813   2.284 -1.5124 -0.4194  1.8500
 9698WAT     H239499   1.723   4.888   2.302 -1.6140  0.5148 -1.9060
 9698WAT    EPW39500   1.783   4.865   2.258  0.4201 -0.1953  0.8839
 9699WAT      O39501   1.192   3.560   1.843  0.2107  0.0250 -0.2471
 9699WAT     H139502   1.133   3.571   1.906  0.7604  0.3902  0.2126
 9699WAT     H239503   1.164   3.489   1.801 -0.5528  0.1878 -0.0349
 9699WAT    EPW39504   1.179   3.552   1.846  0.3829 -0.2515 -0.1259
 9700WAT      O39505   1.606   0.300   3.675  0.3741  0.0705 -0.6853
 9700WAT     H139506   1.691   0.286   3.684  0.0156 -1.4928  1.0401
 9700WAT     H239507   1.599   0.387   3.671  2.1213  0.1764 -2.3282
 9700WAT    EPW39508   1.617   0.311   3.676  0.5332 -0.5015  0.4989
 9701WAT      O39509   8.120   2.447   2.890  0.1258 -0.0964 -0.1736
 9701WAT     H139510   8.092   2.402   2.820 -2.5866  0.5472  0.3819
 9701WAT     H239511   8.047   2.460   2.936  1.1938  2.7376  0.9145
 9701WAT    EPW39512   8.105   2.442   2.886 -0.1302  0.1777 -0.5602
 9702WAT      O39513   2.449   4.080   3.794 -0.1202 -0.6155 -0.2553
 9702WAT     H139514   2.505   4.107   3.734 -0.7049 -0.2801 -0.6606
 9702WAT     H239515   2.405   4.016   3.754 -1.0825  0.1662 -0.4881
 9702WAT    EPW39516   2.451   4.074   3.779 -0.1735  0.4589 -0.9407
 9703WAT      O39517   1.799   7.748   2.231  0.3278  0.0056  0.2416
 9703WAT     H139518   1.735   7.702   2.267 -1.0557 -0.1017 -2.1541
 9703WAT     H239519   1.759   7.816   2.195  1.4663 -0.1773 -1.5248
 9703WAT    EPW39520   1.784   7.751   2.231 -0.0136 -0.0250 -0.4019
 9704WAT      O39521   4.849   6.608   1.808 -0.3986 -0.2310 -0.4163
 9704WAT     H139522   4.804   6.650   1.746  1.4277 -0.5612 -2.0671
 9704WAT     H239523   4.921   6.581   1.767 -0.1107 -2.4172  1.3238
 9704WAT    EPW39524   4.853   6.610   1.793  0.1629 -0.6124 -0.0173
 9705WAT      O39525   1.725   6.148   6.954  0.2720 -0.1027 -0.0708
 9705WAT     H139526   1.787   6.087   6.941  1.9025  1.1955  1.1038
 9705WAT     H239527   1.768   6.212   6.996 -2.2209  0.1746  2.3754
 9705WAT    EPW39528   1.741   6.148   6.959  0.5328 -0.3512  0.2249
 9706WAT      O39529   2.434   4.986   0.183  0.1282 -0.1616  0.3709
 9706WAT     H139530   2.488   4.932   0.142  0.3369  0.5354 -0.2834
 9706WAT     H239531   2.485   5.053   0.205 -0.8298  1.5637 -2.2031
 9706WAT    EPW39532   2.450   4.988   0.181 -0.3296 -0.3040 -0.0015
 9707WAT      O39533   1.202   3.112   1.915  0.4930 -0.4906 -0.5554
 9707WAT     H139534   1.119   3.129   1.895 -0.3661  1.3386  3.5822
 9707WAT     H239535   1.244   3.185   1.894  0.1258  0.3117  1.3205
 9707WAT    EPW39536   1.196   3.125   1.909 -0.7408 -0.7988  0.1904
 9708WAT      O39537   2.836   7.261   6.560 -0.8018 -0.4497  0.2439
 9708WAT     H139538   2.894   7.257   6.495  1.9433  0.1425  2.4464
 9708WAT     H239539   2.812   7.178   6.572  1.0248 -0.9918  0.3741
 9708WAT    EPW39540   2.841   7.248   6.552  0.1624 -0.3856  0.1031
 9709WAT      O39541   3.095   4.503   1.041  0.1637  0.0742 -0.1742
 9709WAT     H139542   3.168   4.530   1.001  1.2183 -2.6739 -0.3175
 9709WAT     H239543   3.062   4.444   0.986 -2.0616  1.0133  0.0381
 9709WAT    EPW39544   3.101   4.499   1.027 -0.4468  0.1288 -0.3344
 9710WAT      O39545   6.412   2.992   5.214 -0.0684  0.1515 -0.3434
 9710WAT     H139546   6.474   2.965   5.159  0.5663  1.2501 -0.2073
 9710WAT     H239547   6.343   2.942   5.194  1.6220 -3.3571  1.5164
 9710WAT    EPW39548   6.411   2.980   5.203 -0.3735  0.1318 -0.0423
 9711WAT      O39549   6.553   4.585   4.390 -0.1336  0.5463  0.5194
 9711WAT     H139550   6.546   4.505   4.426 -0.6922  1.8597  3.6404
 9711WAT     H239551   6.617   4.575   4.332 -0.4402 -2.2484  0.5056
 9711WAT    EPW39552   6.561   4.571   4.387 -0.2809  0.3375 -0.2028
 9712WAT      O39553   5.723   6.485   0.125  0.3275 -0.1695  0.0403
 9712WAT     H139554   5.645   6.457   0.153  0.1210 -0.4138 -0.7544
 9712WAT     H239555   5.766   6.411   0.108  0.3396 -0.0262 -0.5673
 9712WAT    EPW39556   5.718   6.470   0.127 -0.4285 -0.1623  0.7886
 9713WAT      O39557   2.379   6.327   3.486 -0.1786  0.2445 -0.6988
 9713WAT     H139558   2.357   6.296   3.407  1.7485  0.7845 -1.5021
 9713WAT     H239559   2.406   6.256   3.529  1.4653  0.2984 -1.5500
 9713WAT    EPW39560   2.380   6.312   3.481  0.4256  0.2543 -0.0840
 9714WAT      O39561   3.045   7.160   7.641  0.7918  0.5930 -0.0244
 9714WAT     H139562   3.075   7.124   7.715  1.8394  1.5301  0.0195
 9714WAT     H239563   3.114   7.199   7.607 -0.0148  1.4087 -0.7750
 9714WAT    EPW39564   3.059   7.160   7.647  0.4598 -0.5810 -0.3074
 9715WAT      O39565   1.566   6.683   7.267  0.4485 -0.0252 -0.0581
 9715WAT     H139566   1.611   6.758   7.267  1.1586 -0.4251  0.6456
 9715WAT     H239567   1.528   6.682   7.346  1.9225 -1.2161  0.7007
 9715WAT    EPW39568   1.567   6.694   7.279 -0.6534 -0.4263  0.5101
 9716WAT      O39569   1.855   3.506   3.841 -0.0375  0.2558 -0.1812
 9716WAT     H139570   1.808   3.459   3.898 -1.1439  2.2730  0.7088
 9716WAT     H239571   1.931   3.518   3.882  0.3752 -0.9663 -0.5538
 9716WAT    EPW39572   1.859   3.501   3.855 -0.1681  0.0842  0.0141
 9717WAT      O39573   7.312   5.193   0.708 -0.6988  0.5982  0.3134
 9717WAT     H139574   7.389   5.205   0.748 -0.0401 -1.5486 -0.1587
 9717WAT     H239575   7.255   5.230   0.762  0.4047 -0.0141  1.9921
 9717WAT    EPW39576   7.315   5.200   0.722  0.0770  0.3888 -0.7551
 9718WAT      O39577   3.696   6.222   7.519  0.2145 -0.3880 -0.1745
 9718WAT     H139578   3.660   6.299   7.539 -0.6225 -0.8013 -0.0478
 9718WAT     H239579   3.628   6.170   7.509  0.7810 -1.1519 -0.1231
 9718WAT    EPW39580   3.681   6.226   7.520  0.5337 -0.1835  0.0298
 9719WAT      O39581   7.468   4.191   1.551 -0.1000 -0.0377 -0.0010
 9719WAT     H139582   7.388   4.224   1.557 -0.8013 -1.7948  1.2032
 9719WAT     H239583   7.454   4.107   1.530  1.4392 -0.3229 -0.0552
 9719WAT    EPW39584   7.454   4.183   1.548  0.6787 -0.3642  1.1108
 9720WAT      O39585   0.282   7.955   1.488 -0.7332  0.2414 -0.5624
 9720WAT     H139586   0.240   8.030   1.473 -0.3749  0.8741  1.3571
 9720WAT     H239587   0.289   7.952   1.575  1.3803 -0.8268 -0.6973
 9720WAT    EPW39588   0.277   7.966   1.499 -0.1902  0.4486 -0.2572
 9721WAT      O39589   3.888   4.576   2.936 -0.3817 -0.1027 -0.1530
 9721WAT     H139590   3.933   4.651   2.935  0.5534 -0.6436 -0.5029
 9721WAT     H239591   3.912   4.539   3.012  1.0328 -1.0968 -1.0255
 9721WAT    EPW39592   3.898   4.581   2.947 -0.1301  0.1145 -0.4462
 9722WAT      O39593   3.342   1.249   2.022 -0.2771 -0.0248  0.1689
 9722WAT     H139594   3.346   1.336   2.011 -0.2151  0.0762  0.9251
 9722WAT     H239595   3.355   1.239   2.107 -0.1402 -0.7942  0.0632
 9722WAT    EPW39596   3.345   1.260   2.033  0.4377 -0.1360 -0.5546
 9723WAT      O39597   3.853   7.834   2.456  0.5398  0.0139  0.1403
 9723WAT     H139598   3.797   7.803   2.515 -0.8808  0.3959 -0.9444
 9723WAT     H239599   3.922   7.782   2.464 -0.5269 -1.4119  0.5369
 9723WAT    EPW39600   3.855   7.822   2.466  0.3554  0.7168 -0.0749
 9724WAT      O39601   0.995   2.285   2.844  0.3983  0.0559 -0.4263
 9724WAT     H139602   1.033   2.265   2.767 -0.1987  0.2142 -0.7653
 9724WAT     H239603   1.059   2.325   2.888  0.8728 -0.4167 -0.6793
 9724WAT    EPW39604   1.010   2.288   2.839 -0.2167  1.2162  0.3065
 9725WAT      O39605   1.291   6.359   4.544 -0.3916  0.7918  0.0864
 9725WAT     H139606   1.303   6.438   4.578 -1.1702  0.2229  1.7809
 9725WAT     H239607   1.308   6.305   4.610 -0.7685 -0.4274 -0.7714
 9725WAT    EPW39608   1.295   6.362   4.559 -0.5740  0.2391  0.4505
 9726WAT      O39609   4.109   6.208   7.459 -0.3235  0.3905 -1.0099
 9726WAT     H139610   4.138   6.254   7.527  1.8320 -0.5581 -1.1803
 9726WAT     H239611   4.169   6.223   7.398  0.3486 -2.3515 -1.1477
 9726WAT    EPW39612   4.122   6.217   7.460 -0.9975 -0.2423  0.0929
 9727WAT      O39613   3.861   5.856   4.253 -0.3798  0.1356  0.2660
 9727WAT     H139614   3.847   5.937   4.282 -0.6017 -0.3192  1.5046
 9727WAT     H239615   3.812   5.852   4.181 -0.4999  1.0413  0.2794
 9727WAT    EPW39616   3.851   5.867   4.247 -0.3091 -0.0798  0.0486
 9728WAT      O39617   3.132   4.128   1.061 -0.2426  0.0386 -0.9927
 9728WAT     H139618   3.149   4.044   1.082 -1.9148 -0.3210 -0.9729
 9728WAT     H239619   3.207   4.168   1.080  0.2153 -1.2531  0.1888
 9728WAT    EPW39620   3.146   4.121   1.067  0.6278 -0.3029 -0.2202
 9729WAT      O39621   1.566   4.458   5.141 -0.0069 -0.6363 -0.6009
 9729WAT     H139622   1.598   4.499   5.071  2.1542 -0.5576  0.3272
 9729WAT     H239623   1.601   4.502   5.208 -2.5106 -0.3157  0.5832
 9729WAT    EPW39624   1.576   4.471   5.141 -0.4123  0.1642  0.3932
 9730WAT      O39625   0.184   3.802   3.543 -0.4561 -0.0731 -0.0521
 9730WAT     H139626   0.209   3.759   3.471 -1.6447 -0.3558 -0.3171
 9730WAT     H239627   0.099   3.784   3.549 -0.8528  1.6940  0.2236
 9730WAT    EPW39628   0.175   3.793   3.533  0.0852  0.2038 -0.7159
 9731WAT      O39629   2.107   0.024   4.789 -0.1663  0.3959 -0.1196
 9731WAT     H139630   2.079   0.104   4.770 -0.2995  0.2870 -0.3899
 9731WAT     H239631   2.099   0.019   4.876  0.9111  1.0729  0.0291
 9731WAT    EPW39632   2.102   0.035   4.799  0.1325  0.2509 -0.2438
 9732WAT      O39633   7.967   5.736   3.580 -0.2745 -0.2964  0.2000
 9732WAT     H139634   8.037   5.698   3.543  0.8273  1.0264  0.8633
 9732WAT     H239635   7.974   5.819   3.556 -1.3784 -0.0547  0.6824
 9732WAT    EPW39636   7.979   5.743   3.571  0.1799 -0.2103  0.0966
 9733WAT      O39637   1.236   1.401   7.650  0.5815 -0.1862 -0.1907
 9733WAT     H139638   1.277   1.359   7.715  1.7143 -0.0286 -0.7794
 9733WAT     H239639   1.230   1.340   7.588 -2.4337 -1.0110  0.7592
 9733WAT    EPW39640   1.241   1.386   7.650 -0.4809  0.0545  0.0702
 9734WAT      O39641   5.059   6.128   6.435  0.0794 -0.5738 -0.3869
 9734WAT     H139642   5.000   6.189   6.413  0.6705  0.0957 -0.1711
 9734WAT     H239643   5.131   6.154   6.392 -0.2637 -2.4732 -2.2844
 9734WAT    EPW39644   5.061   6.141   6.425  0.1570  0.3673  0.3820
 9735WAT      O39645   5.016   3.084   1.811  1.0544 -0.1038  0.2915
 9735WAT     H139646   4.942   3.128   1.797  1.9732  1.3722 -0.0466
 9735WAT     H239647   5.016   3.070   1.897  0.6369  0.3270  0.3634
 9735WAT    EPW39648   5.005   3.088   1.821 -0.1224  0.1649 -0.5296
 9736WAT      O39649   0.471   6.866   4.483  0.0921 -0.5244  0.3553
 9736WAT     H139650   0.479   6.935   4.429  1.5121 -0.8602  0.0970
 9736WAT     H239651   0.545   6.868   4.529  1.0195 -2.8803 -0.8711
 9736WAT    EPW39652   0.483   6.877   4.482  0.1134  0.2576 -0.0200
 9737WAT      O39653   2.347   1.436   1.566  0.3732  1.1093  0.2804
 9737WAT     H139654   2.348   1.516   1.531  0.3170  0.8536 -0.3041
 9737WAT     H239655   2.275   1.400   1.534 -1.0612  1.7187  2.5977
 9737WAT    EPW39656   2.337   1.443   1.556 -0.4416 -0.5422 -0.0502
 9738WAT      O39657   1.171   4.563   5.184  0.0889 -0.1761 -0.1242
 9738WAT     H139658   1.179   4.524   5.261 -1.4157 -2.3154 -0.9588
 9738WAT     H239659   1.192   4.646   5.201  0.5226 -0.7260  2.3975
 9738WAT    EPW39660   1.175   4.570   5.198  0.3673  0.5429  0.3005
 9739WAT      O39661   1.119   0.601   0.757 -0.4614  0.6122 -0.2361
 9739WAT     H139662   1.176   0.636   0.812  2.0947 -1.1223 -1.5609
 9739WAT     H239663   1.102   0.665   0.701 -0.1341  1.2969  0.4337
 9739WAT    EPW39664   1.125   0.615   0.757  0.4805 -1.0194 -0.3346
 9740WAT      O39665   4.161   4.856   6.195 -0.1854 -0.4383  0.1230
 9740WAT     H139666   4.137   4.910   6.260  3.8572 -0.2750  1.8329
 9740WAT     H239667   4.189   4.910   6.133 -2.2541 -0.6264 -1.0450
 9740WAT    EPW39668   4.162   4.872   6.196 -0.1791 -0.4408  0.4777
 9741WAT      O39669   0.804   6.409   1.961  0.3644 -0.3765 -0.1696
 9741WAT     H139670   0.737   6.403   2.017  0.8874 -1.0236  0.4083
 9741WAT     H239671   0.841   6.330   1.964  0.8654 -0.1835 -0.8560
 9741WAT    EPW39672   0.800   6.397   1.970  0.1024 -0.3870 -0.1103
 9742WAT      O39673   2.495   7.465   1.308 -0.8416 -0.1180  0.1890
 9742WAT     H139674   2.468   7.541   1.343 -0.0773 -0.2571  1.1257
 9742WAT     H239675   2.443   7.406   1.345 -0.1961 -0.2380  0.9419
 9742WAT    EPW39676   2.483   7.468   1.319 -0.4322  1.1567  0.3916
 9743WAT      O39677   5.629   7.947   3.429 -0.0074  0.1003  0.0132
 9743WAT     H139678   5.694   8.005   3.428  0.3944 -0.3061  0.8243
 9743WAT     H239679   5.631   7.916   3.511 -1.6696  0.5666  0.2668
 9743WAT    EPW39680   5.639   7.951   3.441  0.0034  0.2494 -0.1332
 9744WAT      O39681   1.331   6.947   7.640  0.4734  0.3067 -0.7063
 9744WAT     H139682   1.338   6.986   7.718 -1.2126  1.9816 -1.3087
 9744WAT     H239683   1.301   7.011   7.588 -3.4952 -1.9105 -1.5612
 9744WAT    EPW39684   1.328   6.962   7.644  0.0060  0.0879 -0.7680
 9745WAT      O39685   6.481   6.986   4.446  0.5007 -0.2714  0.2461
 9745WAT     H139686   6.524   6.939   4.506  0.1148  0.3688  1.0376
 9745WAT     H239687   6.469   7.063   4.484  0.0023  0.0624 -0.5520
 9745WAT    EPW39688   6.485   6.990   4.460 -0.6041 -0.6275 -0.2397
 9746WAT      O39689   7.506   6.616   4.128  0.4135 -0.6010 -0.9128
 9746WAT     H139690   7.505   6.555   4.066  1.6166 -0.9846 -0.5842
 9746WAT     H239691   7.545   6.684   4.089 -0.1060 -0.3455 -0.9983
 9746WAT    EPW39692   7.511   6.617   4.113  0.3923  0.8548  0.0132
 9747WAT      O39693   0.678   4.660   0.663  0.6950 -0.1069  0.1773
 9747WAT     H139694   0.757   4.624   0.650  1.4676  0.9230  1.7678
 9747WAT     H239695   0.642   4.658   0.583  1.9424 -1.4344 -0.4113
 9747WAT    EPW39696   0.685   4.654   0.649 -0.4641 -0.3718 -0.2295
 9748WAT      O39697   5.489   6.342   0.156  0.3279  0.6559 -0.0594
 9748WAT     H139698   5.424   6.296   0.191 -0.9096  0.6485 -2.1673
 9748WAT     H239699   5.547   6.281   0.132  0.0308  0.4447 -0.2479
 9748WAT    EPW39700   5.488   6.327   0.157  0.3726  0.2766  0.0571
 9749WAT      O39701   3.925   4.937   0.948  0.1204 -0.0027  0.5177
 9749WAT     H139702   3.965   4.868   0.983  2.0125  0.6828 -0.1564
 9749WAT     H239703   3.937   4.927   0.862  0.3794  1.1119  0.4012
 9749WAT    EPW39704   3.932   4.925   0.941 -0.2821  0.3531 -0.5560
 9750WAT      O39705   2.858   7.806   3.919  0.0226  0.1504  0.0270
 9750WAT     H139706   2.787   7.756   3.926  0.4332 -0.7472 -1.6925
 9750WAT     H239707   2.900   7.794   3.994 -0.4533 -1.2245  0.0912
 9750WAT    EPW39708   2.854   7.797   3.931 -0.0414  0.4280 -0.2912
 9751WAT      O39709   0.159   6.830   1.514  0.0459  0.1651  0.2121
 9751WAT     H139710   0.082   6.846   1.477  0.4797  1.6377 -0.1424
 9751WAT     H239711   0.142   6.832   1.600 -0.0150  2.6340  0.2237
 9751WAT    EPW39712   0.145   6.833   1.521 -0.3820  0.4678  0.6157
 9752WAT      O39713   2.523   3.665   1.284  0.0313  0.0060 -0.4407
 9752WAT     H139714   2.520   3.693   1.367 -0.2548 -0.3655 -0.3243
 9752WAT     H239715   2.442   3.679   1.255 -0.1916 -0.9232 -0.3038
 9752WAT    EPW39716   2.510   3.671   1.292  0.6964 -0.3018  0.2545
 9753WAT      O39717   2.704   2.925   4.669 -0.0000 -0.2459 -0.0782
 9753WAT     H139718   2.638   2.925   4.727 -1.2102  3.0753 -1.2359
 9753WAT     H239719   2.755   2.990   4.697  1.0965 -0.6949 -0.9953
 9753WAT    EPW39720   2.702   2.934   4.682 -0.4306  0.1553 -0.0589
 9754WAT      O39721   0.047   0.258   4.276  0.5085 -0.0823 -0.0170
 9754WAT     H139722   0.116   0.277   4.225  0.1091  1.2081 -0.1209
 9754WAT     H239723   0.084   0.236   4.352  1.0436  0.3486 -0.1410
 9754WAT    EPW39724   0.063   0.257   4.280 -0.4665  0.0658  0.1005
 9755WAT      O39725   2.806   4.788   2.302 -0.3554 -0.0587  0.6963
 9755WAT     H139726   2.867   4.727   2.295 -0.6587 -0.3516  0.5744
 9755WAT     H239727   2.810   4.810   2.386 -0.3137 -0.3213  0.7655
 9755WAT    EPW39728   2.815   4.782   2.314 -0.0515 -0.0363 -0.0340
 9756WAT      O39729   3.273   6.726   6.516 -0.0981 -0.2864  0.1113
 9756WAT     H139730   3.316   6.656   6.546 -0.5099 -0.4737  0.2668
 9756WAT     H239731   3.216   6.692   6.460  0.8728  0.0811 -1.1514
 9756WAT    EPW39732   3.271   6.711   6.512 -0.2455 -0.5158  0.0823
 9757WAT      O39733   0.412   0.026   2.307  0.0475  0.0031  0.2683
 9757WAT     H139734   0.496   0.023   2.332 -0.2153 -1.1131  1.0919
 9757WAT     H239735   0.371  -0.024   2.366 -0.9507 -0.9516 -1.1814
 9757WAT    EPW39736   0.418   0.018   2.320  0.7664  0.0056 -0.0396
 9758WAT      O39737   0.695   3.656   1.546 -0.3653 -0.3713  0.1262
 9758WAT     H139738   0.723   3.732   1.578  1.7133 -2.0086  2.6525
 9758WAT     H239739   0.620   3.643   1.587 -1.0734  0.5601 -0.8243
 9758WAT    EPW39740   0.688   3.665   1.557 -1.1055 -0.9345  0.0788
 9759WAT      O39741   0.320   6.637   2.302  0.2935 -0.2148 -0.7762
 9759WAT     H139742   0.268   6.707   2.304  1.5300  0.7180  0.0901
 9759WAT     H239743   0.400   6.671   2.301  0.9066 -1.6291 -1.6480
 9759WAT    EPW39744   0.324   6.652   2.302  0.1529  0.2681 -0.0884
 9760WAT      O39745   4.902   3.308   7.443 -0.5585 -0.2870 -0.1724
 9760WAT     H139746   4.860   3.333   7.370  0.2424 -1.8016 -1.2167
 9760WAT     H239747   4.974   3.357   7.444 -0.8074  0.0805 -0.1292
 9760WAT    EPW39748   4.906   3.319   7.432  0.2134  0.3727 -0.2091
 9761WAT      O39749   3.257   3.197   2.824 -0.6033  0.9857 -0.1087
 9761WAT     H139750   3.331   3.203   2.777 -0.4892  1.5461  0.1290
 9761WAT     H239751   3.198   3.236   2.773 -0.6530  0.8861 -0.1278
 9761WAT    EPW39752   3.259   3.204   2.809  0.1842  0.1085  0.4610
 9762WAT      O39753   4.600   6.851   7.429  0.9080  0.2871  0.5205
 9762WAT     H139754   4.644   6.896   7.369  1.1361  1.6002  1.6156
 9762WAT     H239755   4.517   6.876   7.417  1.0761  1.3717  1.3597
 9762WAT    EPW39756   4.594   6.862   7.419  0.4352  0.4615 -0.1994
 9763WAT      O39757   5.677   4.713   2.838 -0.0420 -0.0610  0.5638
 9763WAT     H139758   5.668   4.735   2.754 -2.6098  0.1747  0.8317
 9763WAT     H239759   5.611   4.658   2.853  1.1006 -1.1101  2.1396
 9763WAT    EPW39760   5.666   4.708   2.828 -0.3109  0.1572 -0.3447
 9764WAT      O39761   3.657   6.025   1.889  0.3011 -0.0020 -0.6445
 9764WAT     H139762   3.692   6.097   1.923  0.3812 -0.0181 -0.6920
 9764WAT     H239763   3.665   6.037   1.803  0.9364 -0.3727 -0.6453
 9764WAT    EPW39764   3.663   6.038   1.881  0.3473 -0.2002 -0.1607
 9765WAT      O39765   2.063   7.225   7.594 -0.0535 -0.1989  0.1091
 9765WAT     H139766   2.039   7.181   7.522  0.1932 -1.3411  0.6990
 9765WAT     H239767   2.000   7.284   7.604 -2.0654 -2.3383  0.9486
 9765WAT    EPW39768   2.050   7.227   7.585  0.0947 -0.0301  0.3342
 9766WAT      O39769   3.135   3.227   3.060  0.3224  0.3935  0.0368
 9766WAT     H139770   3.178   3.218   2.985 -0.0658 -0.0278 -0.1389
 9766WAT     H239771   3.183   3.286   3.104  2.3959 -1.7061  0.7964
 9766WAT    EPW39772   3.149   3.234   3.055 -0.4559  0.0521  0.0444
 9767WAT      O39773   2.154   6.043   3.558 -0.0584 -0.5642  0.3204
 9767WAT     H139774   2.103   5.993   3.608  2.2506 -1.6910  1.7176
 9767WAT     H239775   2.229   5.999   3.554  1.7817  2.2715  0.7631
 9767WAT    EPW39776   2.158   6.029   3.565 -0.1672  0.5080 -0.1279
 9768WAT      O39777   6.819   7.412   1.362 -0.2621  0.6324 -0.4258
 9768WAT     H139778   6.838   7.409   1.277 -0.1391  2.4809 -0.5031
 9768WAT     H239779   6.882   7.464   1.395 -0.3088 -0.0488  0.7936
 9768WAT    EPW39780   6.831   7.420   1.354 -0.5076  0.0282 -0.1810
 9769WAT      O39781   1.193   1.338   2.764  0.4548  0.2582 -0.2437
 9769WAT     H139782   1.224   1.265   2.801 -0.3387 -0.3425 -0.7266
 9769WAT     H239783   1.143   1.373   2.826  0.2490  0.0034 -0.2667
 9769WAT    EPW39784   1.190   1.332   2.778 -0.3083 -0.3604  0.1488
 9770WAT      O39785   5.006   0.547   2.875  0.0727  0.0956 -0.3517
 9770WAT     H139786   4.991   0.623   2.836  0.3158  0.2128 -0.2233
 9770WAT     H239787   4.932   0.502   2.863 -0.1712  0.4507 -0.1933
 9770WAT    EPW39788   4.993   0.551   2.868 -0.1090  0.2454 -0.1008
 9771WAT      O39789   4.361   4.929   5.092  0.0429 -0.5436  0.2124
 9771WAT     H139790   4.285   4.960   5.061  0.6509 -1.1836 -2.1542
 9771WAT     H239791   4.336   4.874   5.155 -1.8524 -3.2334 -2.5490
 9771WAT    EPW39792   4.346   4.926   5.097 -0.5577  0.1779  0.3348
 9772WAT      O39793   2.232   6.783   3.423  0.0586  0.1614  0.0289
 9772WAT     H139794   2.224   6.826   3.499  0.9110  1.0678 -0.3760
 9772WAT     H239795   2.162   6.730   3.423 -0.1849  0.4332  1.2516
 9772WAT    EPW39796   2.220   6.782   3.434 -0.0724  0.5000  0.2311
 9773WAT      O39797   1.575   7.015   3.701 -0.2777  0.2725 -0.0915
 9773WAT     H139798   1.653   6.980   3.721 -0.0399 -0.3133 -1.8760
 9773WAT     H239799   1.538   6.955   3.650 -1.1851  1.2902 -0.6753
 9773WAT    EPW39800   1.581   7.001   3.696 -0.5115 -0.2912  0.8085
 9774WAT      O39801   2.017   6.837   0.709 -0.2987  0.6653 -0.1129
 9774WAT     H139802   2.040   6.753   0.709 -0.2821  0.6326 -1.9570
 9774WAT     H239803   2.091   6.878   0.730 -0.3950  0.2234  1.1642
 9774WAT    EPW39804   2.032   6.831   0.712  0.2608  0.1675 -0.2173
 9775WAT      O39805   5.041   6.953   3.166  0.1051  0.5235  0.5866
 9775WAT     H139806   5.038   7.038   3.146 -0.0258  1.0394  2.5398
 9775WAT     H239807   5.120   6.944   3.203  0.3138 -0.3325 -0.0426
 9775WAT    EPW39808   5.052   6.964   3.168  0.3772 -0.1424 -0.4354
 9776WAT      O39809   7.732   5.688   1.160 -0.3123  0.6851 -0.0332
 9776WAT     H139810   7.728   5.610   1.198 -2.7298  0.9111  0.3149
 9776WAT     H239811   7.652   5.700   1.128 -0.7979  3.9849  1.9709
 9776WAT    EPW39812   7.720   5.678   1.161 -0.0081  0.5009 -0.3059
 9777WAT      O39813   0.456   6.036   0.794  0.1632 -0.0459  0.0038
 9777WAT     H139814   0.496   6.040   0.872 -0.8328  1.2459  0.4851
 9777WAT     H239815   0.497   5.970   0.754  0.7145 -0.7445  1.6081
 9777WAT    EPW39816   0.468   6.027   0.800 -0.9230 -0.6662 -0.4953
 9778WAT      O39817   4.027   5.525   1.421  0.2747  0.3711 -0.3465
 9778WAT     H139818   3.958   5.527   1.368  0.6258 -0.2247 -0.8337
 9778WAT     H239819   4.015   5.594   1.473 -0.5156  0.4636 -0.6389
 9778WAT    EPW39820   4.015   5.535   1.421  0.0428  0.0630 -0.0986
 9779WAT      O39821   6.091   0.947   4.414  0.2984  0.2893  0.2665
 9779WAT     H139822   6.078   1.011   4.356 -2.2332  2.2770  2.6842
 9779WAT     H239823   6.069   0.875   4.371 -2.6049  1.7798 -1.0733
 9779WAT    EPW39824   6.086   0.946   4.399 -0.2676 -0.2683  1.0696
 9780WAT      O39825   4.143   4.170   7.614 -0.4105  0.6308  0.6690
 9780WAT     H139826   4.170   4.090   7.637 -0.6492  0.0961 -0.7898
 9780WAT     H239827   4.167   4.177   7.531 -1.4985  1.5920  0.4051
 9780WAT    EPW39828   4.150   4.159   7.605 -0.2876  0.1553 -0.5035
 9781WAT      O39829   8.055   1.832   3.972  0.0856  0.5403  0.1279
 9781WAT     H139830   8.126   1.813   3.925  0.5256 -1.4578  1.4717
 9781WAT     H239831   8.089   1.863   4.047 -0.5473  1.5915  0.0023
 9781WAT    EPW39832   8.071   1.834   3.976  0.4728  0.0011  0.0045
 9782WAT      O39833   3.172   2.102   7.126  0.5342  0.3926  0.3892
 9782WAT     H139834   3.182   2.083   7.042  0.9312  2.0115  0.0267
 9782WAT     H239835   3.088   2.124   7.133  0.7702  1.4530  0.1168
 9782WAT    EPW39836   3.161   2.102   7.115 -0.3237 -0.7830 -0.1642
 9783WAT      O39837   3.227   6.212   1.771 -0.4451 -0.2781 -0.2998
 9783WAT     H139838   3.261   6.175   1.843  2.1326 -0.7298 -1.6261
 9783WAT     H239839   3.197   6.288   1.800  1.0968 -0.1667  1.1891
 9783WAT    EPW39840   3.228   6.218   1.786  0.6361 -0.0609 -0.7430
 9784WAT      O39841   7.676   7.619   1.144  0.2620  0.4038 -0.5054
 9784WAT     H139842   7.669   7.624   1.057  0.5642  1.2222 -0.4990
 9784WAT     H239843   7.757   7.647   1.160 -0.0173  0.9284  0.0743
 9784WAT    EPW39844   7.687   7.624   1.134 -0.3936 -0.4195 -0.4296
 9785WAT      O39845   1.027   3.725   4.917  0.3553 -0.2400 -0.4959
 9785WAT     H139846   0.997   3.656   4.873  1.2212 -0.6678 -0.4375
 9785WAT     H239847   1.001   3.709   4.999 -1.6442  0.7779 -0.8817
 9785WAT    EPW39848   1.019   3.712   4.923 -0.2726  0.2270  0.2132
 9786WAT      O39849   3.244   5.510   6.353 -0.0327 -0.2817 -0.3694
 9786WAT     H139850   3.328   5.522   6.333 -0.1082 -0.5478 -0.8403
 9786WAT     H239851   3.226   5.579   6.405  0.7437 -0.7792  0.5883
 9786WAT    EPW39852   3.254   5.522   6.358  0.8628  0.2835 -0.4550
 9787WAT      O39853   2.398   4.324   3.421 -0.0209  0.3018 -0.6156
 9787WAT     H139854   2.465   4.300   3.370  0.1527  1.0778 -0.7643
 9787WAT     H239855   2.355   4.382   3.373 -0.3398  0.4131 -0.1991
 9787WAT    EPW39856   2.402   4.329   3.406 -0.1951  0.5886 -0.5704
 9788WAT      O39857   3.383   4.246   1.063 -0.1054  0.2461  0.6187
 9788WAT     H139858   3.385   4.187   0.999 -1.4165  1.2861 -0.4269
 9788WAT     H239859   3.427   4.314   1.030 -0.3325  0.5949  1.0256
 9788WAT    EPW39860   3.390   4.247   1.049  0.2797  0.0634 -0.2950
 9789WAT      O39861   2.833   5.731   3.320  0.0106  0.0889 -0.6838
 9789WAT     H139862   2.857   5.648   3.329 -1.1864 -0.2366 -0.1964
 9789WAT     H239863   2.817   5.757   3.402 -1.2612  0.2520 -0.9573
 9789WAT    EPW39864   2.834   5.722   3.333 -0.1741  0.1801  0.2652
 9790WAT      O39865   1.364   0.288   4.329 -0.3015  0.1062 -0.3154
 9790WAT     H139866   1.355   0.374   4.324  0.9068  0.2286 -0.8223
 9790WAT     H239867   1.326   0.259   4.256  0.4628  0.3371 -0.8195
 9790WAT    EPW39868   1.357   0.296   4.317  0.2629  0.1591  0.0027
 9791WAT      O39869   2.917   3.642   3.487 -0.4806  0.0310  0.2541
 9791WAT     H139870   2.863   3.702   3.519 -0.0463  1.2020 -1.1156
 9791WAT     H239871   2.969   3.622   3.555  0.2800  2.2581  0.3919
 9791WAT    EPW39872   2.917   3.648   3.502  0.1653  0.1818  0.5737
 9792WAT      O39873   0.742   6.136   3.102  0.2833  0.5946  0.2423
 9792WAT     H139874   0.827   6.151   3.101  0.2344  0.8895  0.3879
 9792WAT     H239875   0.724   6.111   3.020  0.6959 -0.5474  0.4895
 9792WAT    EPW39876   0.752   6.135   3.089 -0.2032 -0.2574  0.0510
 9793WAT      O39877   6.823   2.428   2.372  0.5255  0.5558 -0.5884
 9793WAT     H139878   6.886   2.412   2.314  0.2820  0.8960 -0.9552
 9793WAT     H239879   6.802   2.511   2.356 -0.5655  0.2137 -1.0081
 9793WAT    EPW39880   6.830   2.438   2.361  0.1004 -0.0153 -0.4398
 9794WAT      O39881   0.602   1.634   3.191  0.2061  0.7388  0.5093
 9794WAT     H139882   0.634   1.691   3.249  1.8786  0.1808  0.2083
 9794WAT     H239883   0.660   1.569   3.194  0.5030  0.7971 -1.9353
 9794WAT    EPW39884   0.616   1.633   3.200  0.5197 -0.1889 -0.0098
 9795WAT      O39885   3.511   3.639   7.986  0.3926  0.0222  0.3642
 9795WAT     H139886   3.473   3.561   7.981  0.1898  0.0929  0.7347
 9795WAT     H239887   3.445   3.694   8.000  0.3207  0.5074 -1.6170
 9795WAT    EPW39888   3.496   3.636   7.988 -0.1588 -0.1946  0.2221
 9796WAT      O39889   1.585   5.859   7.428  0.0059  0.2439 -0.4639
 9796WAT     H139890   1.631   5.925   7.394  0.6922  0.2184  0.3716
 9796WAT     H239891   1.581   5.802   7.363  0.8420  0.4179 -0.6847
 9796WAT    EPW39892   1.591   5.860   7.414  0.4880 -0.2784  0.0253
 9797WAT      O39893   4.941   3.804   1.914  0.1952 -0.4618 -0.2745
 9797WAT     H139894   4.854   3.795   1.911  0.1608 -0.7719  0.8873
 9797WAT     H239895   4.966   3.796   1.831 -0.8114 -1.1968 -0.5299
 9797WAT    EPW39896   4.932   3.801   1.901  0.4703 -0.8773 -0.3401
 9798WAT      O39897   1.230   0.810   3.370 -0.2662 -0.1736  0.1915
 9798WAT     H139898   1.294   0.758   3.397 -0.0270  0.3799  0.7312
 9798WAT     H239899   1.159   0.779   3.410 -0.1616 -0.1997  0.3554
 9798WAT    EPW39900   1.229   0.798   3.380  0.0541  0.6472  0.0704
 9799WAT      O39901   4.675   4.455   5.720 -0.2067  0.5552  0.0146
 9799WAT     H139902   4.640   4.393   5.772 -0.3643  0.2814 -0.4091
 9799WAT     H239903   4.741   4.413   5.681  0.0931  0.8438  0.2140
 9799WAT    EPW39904   4.679   4.439   5.722 -0.1531  0.0839  0.2432
 9800WAT      O39905   1.656   2.518   2.955  0.0463 -0.3788 -0.7026
 9800WAT     H139906   1.637   2.572   2.889 -0.0547  0.5494  0.0745
 9800WAT     H239907   1.717   2.560   3.000  0.1119 -0.9993 -0.1904
 9800WAT    EPW39908   1.662   2.532   2.952  0.1506  0.1077  0.1822
 9801WAT      O39909   2.717   3.239   6.048 -0.2727  0.2164 -0.3843
 9801WAT     H139910   2.719   3.245   5.961  0.5013  0.1287 -0.3811
 9801WAT     H239911   2.795   3.205   6.068  0.9079  3.0895  0.5191
 9801WAT    EPW39912   2.729   3.235   6.038  0.1235 -0.1988  0.1917
 9802WAT      O39913   2.861   5.632   2.479 -0.3466  0.5478  0.3919
 9802WAT     H139914   2.777   5.654   2.486 -0.5626  0.1801 -0.8231
 9802WAT     H239915   2.903   5.699   2.517 -1.2244 -0.1095  2.6803
 9802WAT    EPW39916   2.855   5.645   2.486  0.0827  0.2461  0.6396
 9803WAT      O39917   3.923   5.444   2.144 -0.0805  0.0428  0.5124
 9803WAT     H139918   3.843   5.414   2.126 -0.7408  0.7960  2.0610
 9803WAT     H239919   3.961   5.449   2.065 -1.1951 -1.2857 -0.1447
 9803WAT    EPW39920   3.917   5.440   2.129 -0.6641  0.5945 -0.1166
 9804WAT      O39921   1.212   4.273   4.800 -0.5504 -0.1268  0.1022
 9804WAT     H139922   1.148   4.281   4.742  1.4626  0.2750 -2.2135
 9804WAT     H239923   1.220   4.353   4.834  1.1106  0.8900 -2.4093
 9804WAT    EPW39924   1.204   4.286   4.797  0.3555 -0.4078 -0.8421
 9805WAT      O39925   0.116   5.453   1.442  0.0680  0.3112  0.2821
 9805WAT     H139926   0.037   5.424   1.466 -0.1561  1.6232  1.2442
 9805WAT     H239927   0.143   5.393   1.385 -0.9475 -1.0197  1.1328
 9805WAT    EPW39928   0.108   5.440   1.437 -0.7175  0.1646 -0.2945
 9806WAT      O39929   6.701   7.463   2.230  0.2267 -0.1209  0.4366
 9806WAT     H139930   6.743   7.539   2.238  0.4112 -0.1860  0.0950
 9806WAT     H239931   6.763   7.407   2.208  0.1819 -0.4840  1.2066
 9806WAT    EPW39932   6.716   7.466   2.228 -0.1247 -0.2986  0.2307
 9807WAT      O39933   3.850   1.837   3.079 -0.2043  0.0480 -0.2045
 9807WAT     H139934   3.860   1.922   3.098  0.3484 -0.3010  1.2212
 9807WAT     H239935   3.928   1.815   3.045 -0.8217  0.4124 -1.9403
 9807WAT    EPW39936   3.863   1.847   3.077  0.2696  0.3436  0.1732
 9808WAT      O39937   2.228   6.399   6.150  0.1206 -0.1768  0.3543
 9808WAT     H139938   2.148   6.408   6.115 -0.4404 -1.0326  1.3452
 9808WAT     H239939   2.269   6.473   6.128 -1.4254  0.9308  1.0250
 9808WAT    EPW39940   2.222   6.412   6.142 -0.2263 -0.6857  0.0026
 9809WAT      O39941   1.551   5.888   4.916 -0.2588 -0.2391 -0.2790
 9809WAT     H139942   1.484   5.869   4.862 -0.4537 -0.7522  0.1288
 9809WAT     H239943   1.523   5.957   4.961  0.8859  1.8299 -2.5461
 9809WAT    EPW39944   1.537   5.895   4.915  0.1817  0.4284  0.1205
 9810WAT      O39945   5.848   1.073   2.276  0.0883  0.3513 -0.0100
 9810WAT     H139946   5.854   1.086   2.362 -0.2609  0.6906 -0.0322
 9810WAT     H239947   5.762   1.068   2.262  0.1132 -3.5628  0.2064
 9810WAT    EPW39948   5.836   1.074   2.287  0.0884  0.0661 -0.1579
 9811WAT      O39949   3.913   4.772   2.251 -0.3310 -0.3310  0.2377
 9811WAT     H139950   3.900   4.746   2.334  1.3015 -0.4621  0.4853
 9811WAT     H239951   3.951   4.850   2.261 -1.8695  0.5602 -0.4535
 9811WAT    EPW39952   3.917   4.780   2.265  0.2477 -0.5984 -0.0107
 9812WAT      O39953   2.453   7.359   0.466  0.0476 -0.0975 -0.4533
 9812WAT     H139954   2.440   7.277   0.442 -1.2693 -0.6641  1.9028
 9812WAT     H239955   2.534   7.358   0.499  0.0097 -0.4714 -0.3683
 9812WAT    EPW39956   2.463   7.347   0.468 -0.1706 -0.1437  0.5084
 9813WAT      O39957   7.752   7.374   3.879  0.4946 -0.5594 -0.1614
 9813WAT     H139958   7.733   7.439   3.935  0.3058 -0.9959  0.2907
 9813WAT     H239959   7.782   7.310   3.931  0.6425 -0.8510 -0.5974
 9813WAT    EPW39960   7.754   7.374   3.895 -0.1071  1.0577 -0.1402
 9814WAT      O39961   1.480   1.778   7.527 -0.0540  0.0010 -0.1590
 9814WAT     H139962   1.515   1.702   7.502  0.6921  0.0874  0.6056
 9814WAT     H239963   1.418   1.754   7.583  0.2278 -0.0388  0.1354
 9814WAT    EPW39964   1.476   1.763   7.531  0.2962 -0.5766  0.4663
 9815WAT      O39965   2.015   6.492   1.193  0.0798 -0.1649  0.0382
 9815WAT     H139966   1.961   6.559   1.174  0.3103  0.4806  1.5142
 9815WAT     H239967   2.004   6.482   1.279  2.3212 -0.0066  0.3874
 9815WAT    EPW39968   2.005   6.501   1.203  0.0375  0.0647 -0.4502
 9816WAT      O39969   2.840   6.739   1.600  0.0502  0.0025  0.4814
 9816WAT     H139970   2.879   6.815   1.618  0.6638  0.1993 -1.5188
 9816WAT     H239971   2.856   6.726   1.515 -0.4898 -2.1151  0.6372
 9816WAT    EPW39972   2.848   6.748   1.590 -0.0403  0.1517 -0.2625
 9817WAT      O39973   4.071   1.531   3.886  0.1026  0.1377  0.1449
 9817WAT     H139974   4.063   1.554   3.970  0.1070  3.1257 -0.5519
 9817WAT     H239975   4.157   1.534   3.871  0.0366  0.5793 -0.1756
 9817WAT    EPW39976   4.082   1.535   3.896  0.1112  0.3223 -0.0890
 9818WAT      O39977   1.964   7.107   2.991  0.4878 -0.3516  0.4020
 9818WAT     H139978   1.934   7.058   3.057  2.2442 -0.3692  1.2428
 9818WAT     H239979   2.043   7.132   3.019 -0.0227  2.3898 -0.2624
 9818WAT    EPW39980   1.971   7.104   3.005 -0.3336 -0.4469 -0.1831
 9819WAT      O39981   2.288   1.856   0.561  0.0427 -0.4026  0.4954
 9819WAT     H139982   2.352   1.848   0.503  0.3869 -1.0242  0.9474
 9819WAT     H239983   2.297   1.785   0.611 -0.3243  0.0555  1.2260
 9819WAT    EPW39984   2.299   1.845   0.560  0.4128  0.0953  1.0301
 9820WAT      O39985   1.492   3.567   6.427  0.2472  0.2788  0.3024
 9820WAT     H139986   1.524   3.645   6.405 -1.7461  1.4732  1.2996
 9820WAT     H239987   1.520   3.514   6.364  1.2665  1.9047 -0.6740
 9820WAT    EPW39988   1.501   3.570   6.414  0.8989  0.4802  0.0600
 9821WAT      O39989   1.505   6.712   4.201 -0.1502 -0.1852 -0.1706
 9821WAT     H139990   1.488   6.790   4.166  1.8141  0.0409 -0.7375
 9821WAT     H239991   1.496   6.726   4.287 -1.4373  0.1967 -0.3389
 9821WAT    EPW39992   1.501   6.725   4.208  0.0637 -0.2017 -0.3118
 9822WAT      O39993   0.167   3.196   2.941  0.2478 -0.2640 -0.1545
 9822WAT     H139994   0.183   3.127   2.890  3.3893  1.8879 -2.4394
 9822WAT     H239995   0.198   3.171   3.019 -1.9357 -2.5580  0.1276
 9822WAT    EPW39996   0.174   3.182   2.945  0.1726 -0.2489 -0.2433
 9823WAT      O39997   3.964   0.663   4.997  0.5626  0.0466 -0.2079
 9823WAT     H139998   3.916   0.668   4.925  0.8250 -0.0051 -0.3875
 9823WAT     H239999   4.021   0.729   4.989 -0.7819  1.4369  0.9746
 9823WAT    EPW40000   3.965   0.674   4.985  0.2083 -0.2250  0.7409
 9824WAT      O40001   3.187   4.718   1.499  0.3913  0.2560 -0.3082
 9824WAT     H140002   3.167   4.785   1.552  1.2442 -1.4826  2.3823
 9824WAT     H240003   3.108   4.688   1.475 -0.2075 -0.5035  2.2218
 9824WAT    EPW40004   3.172   4.724   1.504 -0.9634  0.6336 -0.4593
 9825WAT      O40005   4.287   1.793   3.786 -0.2413  0.2433  0.0964
 9825WAT     H140006   4.288   1.770   3.870 -0.6553 -0.0870  0.0140
 9825WAT     H240007   4.353   1.748   3.751 -0.8993 -0.6662 -0.0172
 9825WAT    EPW40008   4.297   1.783   3.793 -0.7440 -0.7009 -0.9496
 9826WAT      O40009   1.138   6.767   2.586  0.2186 -0.4338  0.0107
 9826WAT     H140010   1.112   6.820   2.521 -1.3977 -1.0173  0.1484
 9826WAT     H240011   1.223   6.755   2.570  0.8249  2.6282  0.2748
 9826WAT    EPW40012   1.146   6.773   2.574 -0.0693  0.5702 -0.0235
 9827WAT      O40013   0.901   6.140   7.755  0.3362  0.3869  0.2129
 9827WAT     H140014   0.861   6.144   7.677  0.5250  0.6190  0.1281
 9827WAT     H240015   0.975   6.096   7.737 -0.6634 -1.5992  0.6946
 9827WAT    EPW40016   0.906   6.134   7.741 -0.1629 -0.0518 -0.0137
 9828WAT      O40017   5.400   2.125   7.535 -0.0251 -0.5490  0.0081
 9828WAT     H140018   5.338   2.065   7.549 -1.3015  0.3826 -1.3036
 9828WAT     H240019   5.456   2.085   7.482 -0.0343 -1.0730  0.3867
 9828WAT    EPW40020   5.399   2.110   7.530  0.1905 -1.4610  0.7206
 9829WAT      O40021   2.859   3.522   7.247 -0.2807  0.3801 -0.0808
 9829WAT     H140022   2.908   3.534   7.318  1.1059  0.8852 -1.0756
 9829WAT     H240023   2.917   3.500   7.186 -1.5182 -0.7168 -0.9187
 9829WAT    EPW40024   2.874   3.520   7.249 -0.3306 -0.7857 -0.4245
 9830WAT      O40025   3.416   0.022   5.224  0.2417 -0.3895 -0.0030
 9830WAT     H140026   3.371   0.091   5.253 -0.6036 -0.5543 -0.8748
 9830WAT     H240027   3.360  -0.019   5.171  0.2678 -2.4358  1.4220
 9830WAT    EPW40028   3.401   0.026   5.221  0.3539  0.2635  0.7391
 9831WAT      O40029   7.645   6.031   1.747 -0.3183  1.0667  0.5916
 9831WAT     H140030   7.655   6.114   1.773 -2.2893  1.2858  0.7518
 9831WAT     H240031   7.623   6.037   1.663  1.7597  0.5434 -0.0625
 9831WAT    EPW40032   7.644   6.044   1.738 -0.0406  0.7660  0.1514
 9832WAT      O40033   1.828   3.803   7.295  0.1051  0.1812  0.2297
 9832WAT     H140034   1.890   3.744   7.279  0.8408  0.7034  1.0774
 9832WAT     H240035   1.755   3.755   7.298  0.5176 -0.5007 -0.3630
 9832WAT    EPW40036   1.826   3.787   7.293  0.3701 -0.0551 -0.0983
 9833WAT      O40037   0.600   4.166   4.823  0.3211 -0.1512 -0.0734
 9833WAT     H140038   0.550   4.203   4.884 -0.5466  0.8730 -1.3678
 9833WAT     H240039   0.571   4.084   4.820 -2.8333  0.8637 -2.2036
 9833WAT    EPW40040   0.589   4.160   4.832 -0.1864 -0.1495  0.0198
 9834WAT      O40041   1.123   5.954   0.592  0.4348 -0.4285  0.0665
 9834WAT     H140042   1.109   5.904   0.522 -0.0193  0.9055 -0.8325
 9834WAT     H240043   1.044   5.983   0.614  0.8701  1.3342 -0.5587
 9834WAT    EPW40044   1.110   5.951   0.585  0.2306 -0.2645  0.4824
 9835WAT      O40045   4.836   0.236   2.657 -0.0983 -0.6243  0.4808
 9835WAT     H140046   4.901   0.212   2.710  0.6099  0.4358  0.1331
 9835WAT     H240047   4.783   0.167   2.657  1.8684 -2.2456 -0.5384
 9835WAT    EPW40048   4.838   0.222   2.665 -0.2981  0.2026 -0.1656
 9836WAT      O40049   1.175   4.147   5.324  0.3348 -0.1244 -0.5400
 9836WAT     H140050   1.254   4.150   5.288 -0.8041 -0.1965 -3.2526
 9836WAT     H240051   1.124   4.117   5.260 -1.9578  0.2092  1.0115
 9836WAT    EPW40052   1.179   4.143   5.309  0.9823 -0.3330  0.1462
 9837WAT      O40053   5.521   2.253   1.940  0.2169 -0.3586  0.2932
 9837WAT     H140054   5.604   2.231   1.925  0.0848  0.1786 -1.4717
 9837WAT     H240055   5.476   2.184   1.912 -0.0095  0.3509 -1.1750
 9837WAT    EPW40056   5.527   2.240   1.934  0.6235 -0.4564 -0.0224
 9838WAT      O40057   1.112   3.806   1.723  0.5883 -0.1412 -0.1649
 9838WAT     H140058   1.101   3.858   1.792 -0.5325  0.1995 -0.5754
 9838WAT     H240059   1.137   3.730   1.757  0.4330  0.1391  0.5897
 9838WAT    EPW40060   1.114   3.803   1.738 -0.0826 -0.0919  0.5909
 9839WAT      O40061   6.315   5.235   2.935 -0.8767  0.2504 -0.3478
 9839WAT     H140062   6.260   5.273   2.990 -0.2020 -1.7109  1.8656
 9839WAT     H240063   6.316   5.288   2.866 -0.7890  3.5738  2.0034
 9839WAT    EPW40064   6.307   5.248   2.933 -0.5624 -0.0635 -0.4814
 9840WAT      O40065   4.359   2.452   0.954 -0.2227  0.0384  0.6695
 9840WAT     H140066   4.359   2.429   0.870 -0.8170  0.6930  0.4749
 9840WAT     H240067   4.274   2.457   0.974 -0.1959  2.4542  0.5478
 9840WAT    EPW40068   4.346   2.449   0.945 -0.4676  0.0043 -0.0445
 9841WAT      O40069   3.490   4.608   7.368 -0.5903  0.8853  0.0214
 9841WAT     H140070   3.489   4.561   7.442  1.0849  0.1698 -0.3716
 9841WAT     H240071   3.406   4.630   7.358 -1.0956 -0.2180  1.3667
 9841WAT    EPW40072   3.477   4.604   7.378 -0.3544  0.1512 -0.5956
 9842WAT      O40073   2.871   7.670   8.024  0.1669 -0.1398  0.6548
 9842WAT     H140074   2.827   7.613   8.074 -1.1138 -0.3150 -0.5873
 9842WAT     H240075   2.860   7.639   7.944  1.4708  0.5791  0.1718
 9842WAT    EPW40076   2.863   7.657   8.020  0.0796  0.5172 -0.0147
 9843WAT      O40077   4.390   5.907   1.174 -0.0761 -0.0782 -0.4910
 9843WAT     H140078   4.466   5.913   1.217 -0.3210  0.4603 -0.1239
 9843WAT     H240079   4.413   5.916   1.091  0.1197  1.6311 -0.2912
 9843WAT    EPW40080   4.405   5.909   1.168 -0.0321 -0.3925 -0.5606
 9844WAT      O40081   3.934   3.254   7.712  0.4880 -0.2216 -0.0373
 9844WAT     H140082   3.949   3.254   7.626 -1.2637 -0.1041 -0.3800
 9844WAT     H240083   3.901   3.333   7.728  2.5752  0.4761  1.1366
 9844WAT    EPW40084   3.931   3.265   7.701  0.2358  0.0387 -0.1737
 9845WAT      O40085   2.823   7.319   4.505  0.2322 -0.3194  0.3914
 9845WAT     H140086   2.899   7.284   4.478  0.0144 -0.9089  0.5322
 9845WAT     H240087   2.766   7.254   4.494 -0.2026  0.0328  0.5548
 9845WAT    EPW40088   2.826   7.305   4.499  0.2024  0.1839 -0.0913
 9846WAT      O40089   2.221   4.621   0.060  0.0381  0.0308  0.0715
 9846WAT     H140090   2.270   4.686   0.028 -0.7793  0.2821 -0.7277
 9846WAT     H240091   2.189   4.582  -0.012 -0.7270 -0.2766  0.5596
 9846WAT    EPW40092   2.223   4.625   0.045 -0.4904 -0.1181  0.4332
 9847WAT      O40093   0.149   5.296   3.469 -0.0955  0.2437 -0.1856
 9847WAT     H140094   0.072   5.312   3.506 -0.3403 -3.5833  1.4825
 9847WAT     H240095   0.129   5.273   3.388 -0.4907  0.9997 -0.3063
 9847WAT    EPW40096   0.135   5.295   3.463 -0.2901 -0.3703  0.0706
 9848WAT      O40097   4.164   3.628   2.598 -0.2489  0.0339  0.1914
 9848WAT     H140098   4.183   3.547   2.571  1.5552 -0.9362  3.7691
 9848WAT     H240099   4.234   3.674   2.576 -1.2350  0.7516 -1.7514
 9848WAT    EPW40100   4.177   3.623   2.591 -0.1874 -0.8122  0.4154
 9849WAT      O40101   2.796   4.002   6.274  0.4929  0.2560 -0.3400
 9849WAT     H140102   2.821   3.921   6.252  0.7295 -0.4025  2.0340
 9849WAT     H240103   2.840   4.017   6.348 -1.1128  1.7592  0.3672
 9849WAT    EPW40104   2.806   3.992   6.281  0.2073  0.4321  0.3969
 9850WAT      O40105   4.960   7.079   0.247  0.5429 -0.1751 -0.3707
 9850WAT     H140106   4.920   7.038   0.314  0.0343  2.5928  1.1485
 9850WAT     H240107   4.901   7.074   0.183  0.0483 -0.8667  0.1156
 9850WAT    EPW40108   4.945   7.072   0.247  0.3747  0.1032 -0.6402
 9851WAT      O40109   6.833   5.413   0.394  0.0907 -0.4243 -0.3016
 9851WAT     H140110   6.892   5.358   0.361  0.3870 -0.1093 -0.3032
 9851WAT     H240111   6.879   5.486   0.410 -0.1118 -0.4719  0.5238
 9851WAT    EPW40112   6.848   5.416   0.392  0.7752 -0.1732 -0.3283
 9852WAT      O40113   3.454   2.321   0.080  0.1841 -0.1987 -0.2610
 9852WAT     H140114   3.418   2.358   0.010 -1.1310  0.1296  0.5550
 9852WAT     H240115   3.510   2.382   0.109  1.3769 -0.6748 -1.4876
 9852WAT    EPW40116   3.457   2.336   0.074 -0.2541  0.0265  0.4079
 9853WAT      O40117   2.916   4.311   0.540 -0.2705  0.2440  0.4776
 9853WAT     H140118   2.938   4.293   0.622 -1.5697 -0.5329  0.6841
 9853WAT     H240119   2.992   4.309   0.497  0.2410 -0.9830  1.3719
 9853WAT    EPW40120   2.931   4.308   0.546 -0.1712  0.2371 -0.4488
 9854WAT      O40121   2.463   0.979   3.141  0.0817  0.1500 -0.1347
 9854WAT     H140122   2.483   0.979   3.226 -1.2011 -0.9578  0.1998
 9854WAT     H240123   2.536   0.951   3.102  0.7200  0.7882  0.5724
 9854WAT    EPW40124   2.477   0.975   3.148  0.2195  0.1763 -0.1546
 9855WAT      O40125   2.196   6.694   0.250  0.1029  0.2826 -0.2363
 9855WAT     H140126   2.186   6.614   0.284  0.6154 -0.4067 -1.5899
 9855WAT     H240127   2.276   6.717   0.275  0.8810 -0.6480 -1.7019
 9855WAT    EPW40128   2.206   6.686   0.258  0.9945 -0.4518  0.0542
 9856WAT      O40129   1.302   5.944   4.875  0.4420  0.3626  0.1107
 9856WAT     H140130   1.245   5.884   4.849 -1.0482  1.7521 -0.0071
 9856WAT     H240131   1.283   5.955   4.960  0.8167  0.5444  0.1745
 9856WAT    EPW40132   1.290   5.937   4.884 -0.0021 -0.1685 -0.4003
 9857WAT      O40133   2.012   2.589   5.713 -0.2187  0.2017 -0.2293
 9857WAT     H140134   1.947   2.646   5.700  0.1288  0.7605  0.4222
 9857WAT     H240135   1.997   2.561   5.794  0.8201  0.9638  0.2468
 9857WAT    EPW40136   2.000   2.593   5.723 -0.4377 -0.1820 -0.3606
 9858WAT      O40137   0.668   0.976   1.253 -0.2547 -0.0029 -0.7258
 9858WAT     H140138   0.707   0.899   1.262 -0.0315  0.1273 -0.5793
 9858WAT     H240139   0.584   0.955   1.244 -0.1042 -0.3134 -1.5179
 9858WAT    EPW40140   0.661   0.962   1.253 -0.4475 -0.1908 -0.1617
 9859WAT      O40141   2.287   7.463   7.972  0.4688 -0.8962 -0.7287
 9859WAT     H140142   2.232   7.530   7.971  1.0595 -0.3965 -1.8297
 9859WAT     H240143   2.238   7.396   7.944  0.0429 -0.7882 -0.2525
 9859WAT    EPW40144   2.272   7.463   7.968  0.1116 -0.1152 -0.3325
 9860WAT      O40145   3.985   5.415   3.568  0.4613 -0.4132 -0.0136
 9860WAT     H140146   3.978   5.398   3.654  0.2973  2.2169  0.5744
 9860WAT     H240147   4.070   5.428   3.557  0.3461  0.3309 -0.0170
 9860WAT    EPW40148   3.997   5.414   3.579  0.4069 -0.2207  0.1250
 9861WAT      O40149   5.043   4.973   2.451  0.4109 -0.1784 -0.1561
 9861WAT     H140150   5.085   5.006   2.520  1.9021 -1.4967 -0.3840
 9861WAT     H240151   5.065   5.027   2.386  2.2301 -1.1040 -0.3756
 9861WAT    EPW40152   5.053   4.986   2.451 -0.3583  0.4007 -0.5347
 9862WAT      O40153   4.068   5.981   6.800 -0.0271 -0.1631 -0.0081
 9862WAT     H140154   4.103   6.047   6.753 -2.3467  0.4458 -1.0200
 9862WAT     H240155   4.121   5.914   6.782  0.5119  0.6343 -1.6739
 9862WAT    EPW40156   4.081   5.981   6.790 -0.2842  0.5664  0.4292
 9863WAT      O40157   6.658   3.152   2.149 -0.3749 -0.2075 -0.0758
 9863WAT     H140158   6.610   3.188   2.212 -1.6446  1.1981 -1.7374
 9863WAT     H240159   6.737   3.186   2.161 -0.3317 -0.7450  1.3201
 9863WAT    EPW40160   6.662   3.162   2.160 -0.0422  0.2318  0.3127
 9864WAT      O40161   6.684   6.412   0.434  0.1540  0.0996  0.2849
 9864WAT     H140162   6.685   6.349   0.373  0.4417  0.4024 -0.0323
 9864WAT     H240163   6.673   6.485   0.387 -0.2481  0.2812  0.6548
 9864WAT    EPW40164   6.682   6.414   0.418 -0.1678  0.6004 -0.6088
 9865WAT      O40165   2.637   0.326   5.346 -0.1186  0.1189 -0.1759
 9865WAT     H140166   2.558   0.360   5.358  0.0559  0.0302  1.3448
 9865WAT     H240167   2.689   0.395   5.335  0.3622  0.5348  3.6128
 9865WAT    EPW40168   2.633   0.341   5.346 -0.8768  0.2248 -0.4110
 9866WAT      O40169   2.994   0.729   5.312  0.2240 -0.3950 -0.7084
 9866WAT     H140170   3.047   0.672   5.353  0.9855  1.2963  0.7717
 9866WAT     H240171   3.047   0.768   5.255  0.1059 -0.0186 -0.5596
 9866WAT    EPW40172   3.010   0.726   5.310 -0.3118 -0.9626  0.0876
 9867WAT      O40173   4.825   6.701   7.092 -0.5682 -0.1152  0.0678
 9867WAT     H140174   4.841   6.698   7.178 -0.1737 -2.4586 -0.0331
 9867WAT     H240175   4.762   6.642   7.081 -0.2534 -0.2139 -1.3435
 9867WAT    EPW40176   4.818   6.692   7.103 -0.3140  0.0220 -0.3162
 9868WAT      O40177   2.111   3.795   0.863 -0.1973  0.2022  0.0107
 9868WAT     H140178   2.110   3.870   0.818 -1.1704  0.1800 -0.0227
 9868WAT     H240179   2.032   3.762   0.849  0.5800 -1.3736 -0.8672
 9868WAT    EPW40180   2.099   3.801   0.854  0.5114 -0.3274  0.0891
 9869WAT      O40181   4.415   5.385   1.100  0.3398 -0.6515  0.4867
 9869WAT     H140182   4.399   5.335   1.169  0.3399 -0.0992  0.8899
 9869WAT     H240183   4.488   5.428   1.121 -0.8100  1.1305  1.0679
 9869WAT    EPW40184   4.423   5.384   1.113  0.0060 -0.4164 -0.3150
 9870WAT      O40185   3.152   0.709   0.443  0.4940 -0.3407  0.1343
 9870WAT     H140186   3.124   0.631   0.415 -1.3464  0.8184 -1.5863
 9870WAT     H240187   3.189   0.691   0.520  0.9032 -3.0071 -0.5692
 9870WAT    EPW40188   3.153   0.695   0.450 -0.2911  0.0550 -0.2265
 9871WAT      O40189   2.439   4.808   1.961 -0.4575  0.1744 -0.1183
 9871WAT     H140190   2.474   4.792   2.040  0.4107 -0.8865 -0.6992
 9871WAT     H240191   2.502   4.852   1.920 -0.4539 -0.2731 -0.5971
 9871WAT    EPW40192   2.454   4.812   1.967  0.2357  0.1307  0.1949
 9872WAT      O40193   3.070   2.291   7.932 -0.5221  0.4485 -0.7145
 9872WAT     H140194   2.996   2.257   7.899 -0.6944  0.2209 -0.1115
 9872WAT     H240195   3.105   2.334   7.864 -0.0483 -1.3082 -1.6454
 9872WAT    EPW40196   3.064   2.293   7.917 -0.2946 -0.0873 -1.4196
 9873WAT      O40197   5.474   1.703   2.083 -0.3139 -0.2760 -0.4694
 9873WAT     H140198   5.454   1.776   2.127  0.9635 -1.0006  1.3962
 9873WAT     H240199   5.440   1.639   2.132  1.2692 -1.1191 -0.4318
 9873WAT    EPW40200   5.466   1.705   2.097  0.1395  0.9018  0.0883
 9874WAT      O40201   3.501   7.213   5.184 -0.7116 -0.1015  0.1318
 9874WAT     H140202   3.523   7.266   5.118 -0.7062  0.2982  0.4496
 9874WAT     H240203   3.421   7.242   5.207 -0.6052 -0.0713  0.4654
 9874WAT    EPW40204   3.492   7.225   5.178 -0.1598  0.0531  0.8509
 9875WAT      O40205   3.988   4.670   1.005 -0.0668 -0.1900 -0.3745
 9875WAT     H140206   4.036   4.613   1.049  0.2437 -0.3979 -0.9661
 9875WAT     H240207   4.009   4.654   0.921 -2.0558 -1.1160 -0.7400
 9875WAT    EPW40208   3.998   4.659   0.999  1.3086  0.1915  0.0276
 9876WAT      O40209   2.316   3.746   1.732  0.0464 -0.2948  0.6039
 9876WAT     H140210   2.379   3.687   1.717 -0.7133 -1.0807  0.4102
 9876WAT     H240211   2.353   3.822   1.710  1.3919 -0.5485  1.8310
 9876WAT    EPW40212   2.331   3.748   1.726  0.1065  0.0280 -0.5729
 9877WAT      O40213   0.953   6.011   2.707 -0.4851 -0.2070 -0.2492
 9877WAT     H140214   0.946   6.071   2.645  0.0178 -0.3130 -0.4159
 9877WAT     H240215   1.031   6.028   2.743 -0.8909  0.0328  0.5426
 9877WAT    EPW40216   0.964   6.022   2.703  0.4912 -0.4112  0.0124
 9878WAT      O40217   1.694   7.884   4.887 -0.2645 -0.0885 -0.1005
 9878WAT     H140218   1.757   7.884   4.947  0.0487  0.4621 -0.4231
 9878WAT     H240219   1.628   7.843   4.927 -0.5930  1.5639  1.1983
 9878WAT    EPW40220   1.694   7.878   4.902 -0.4286  0.5204 -0.2392
 9879WAT      O40221   2.325   3.346   7.512 -0.1351 -0.4111 -0.3679
 9879WAT     H140222   2.264   3.290   7.540 -0.6880 -1.4395 -3.2539
 9879WAT     H240223   2.282   3.421   7.503  0.4189  0.4202  2.7288
 9879WAT    EPW40224   2.310   3.349   7.514  0.5037 -0.7383 -0.0331
 9880WAT      O40225   1.045   4.775   0.208 -0.4855 -0.1919 -0.0922
 9880WAT     H140226   1.001   4.743   0.276  0.7453  0.4650  1.0705
 9880WAT     H240227   1.021   4.724   0.141 -1.0539 -1.4225  1.0141
 9880WAT    EPW40228   1.035   4.763   0.208  0.4516 -0.5986 -0.2359
 9881WAT      O40229   2.339   5.736   1.391  0.8438 -0.0370  0.5804
 9881WAT     H140230   2.400   5.678   1.414  1.5931  0.0384 -1.0370
 9881WAT     H240231   2.364   5.760   1.310  0.1381  1.9673  0.9103
 9881WAT    EPW40232   2.352   5.731   1.382 -0.0345 -0.7444  0.1774
 9882WAT      O40233   2.836   5.370   0.808 -0.6528  0.3124 -0.1665
 9882WAT     H140234   2.837   5.312   0.743 -3.1316 -0.5634  0.4642
 9882WAT     H240235   2.752   5.374   0.831  0.0916  0.5887  3.0010
 9882WAT    EPW40236   2.824   5.362   0.802  0.1614 -0.5460 -0.4162
 9883WAT      O40237   6.852   0.330   1.645  0.1165  0.3167  0.1045
 9883WAT     H140238   6.827   0.398   1.693  0.0290  0.1533  0.2922
 9883WAT     H240239   6.801   0.335   1.575 -1.5091 -0.8481  1.1345
 9883WAT    EPW40240   6.841   0.341   1.642 -0.0737  0.5902 -0.3156
 9884WAT      O40241   1.561   1.038   0.420  0.4131  0.1342 -0.1265
 9884WAT     H140242   1.521   1.115   0.431  0.8952  0.5071 -0.8550
 9884WAT     H240243   1.503   0.980   0.450 -0.1354  0.7511  0.0383
 9884WAT    EPW40244   1.547   1.041   0.426 -0.2640 -0.7144  0.3799
 9885WAT      O40245   5.131   5.262   4.366  0.6236 -0.3034 -0.5383
 9885WAT     H140246   5.074   5.277   4.302  1.1456  0.0639 -0.9246
 9885WAT     H240247   5.097   5.302   4.435  0.5471  0.1385 -0.8326
 9885WAT    EPW40248   5.118   5.270   4.366 -0.2130  0.1937 -0.0793
 9886WAT      O40249   3.855   3.268   1.264  0.3915  0.8093 -0.0809
 9886WAT     H140250   3.931   3.311   1.257  0.5927  0.7592  1.4612
 9886WAT     H240251   3.796   3.332   1.260  0.3968  0.7305 -2.5948
 9886WAT    EPW40252   3.858   3.284   1.263  0.4457  0.0218 -0.5300
 9887WAT      O40253   1.079   3.949   1.987  0.3290  0.1028  0.2418
 9887WAT     H140254   1.140   3.909   2.034  0.2724  0.2026  0.4027
 9887WAT     H240255   1.006   3.906   2.007  0.5579 -0.9027 -1.0030
 9887WAT    EPW40256   1.077   3.937   1.997 -0.5175  0.4542  0.1326
 9888WAT      O40257   1.513   6.978   2.782 -0.1703 -0.0668  0.4197
 9888WAT     H140258   1.566   6.984   2.714 -0.1162  1.9516  0.5727
 9888WAT     H240259   1.523   6.896   2.809  1.0519 -0.4219 -0.9987
 9888WAT    EPW40260   1.523   6.967   2.776  0.2161 -0.4158 -0.0671
 9889WAT      O40261   2.032   1.212   2.065 -0.1677  0.1474 -0.7342
 9889WAT     H140262   2.020   1.147   2.122 -2.8971  1.3468  0.2310
 9889WAT     H240263   2.008   1.178   1.989  1.0141 -0.7076 -0.7515
 9889WAT    EPW40264   2.027   1.198   2.062 -0.1190 -0.2014  0.5821
 9890WAT      O40265   4.741   3.145   1.228  0.3686 -0.3113  0.0626
 9890WAT     H140266   4.727   3.160   1.313 -1.2263  0.4441 -0.2950
 9890WAT     H240267   4.777   3.220   1.200 -1.0357  0.2472 -0.3166
 9890WAT    EPW40268   4.744   3.158   1.236 -0.2848  0.0231  0.1898
 9891WAT      O40269   1.207   1.816   1.812  0.4138 -0.0662  0.1577
 9891WAT     H140270   1.244   1.869   1.870  1.9404 -0.2562 -0.5968
 9891WAT     H240271   1.239   1.844   1.736  0.8448 -1.7242 -0.3008
 9891WAT    EPW40272   1.217   1.828   1.809 -0.4667 -0.2704  0.2765
 9892WAT      O40273   6.794   1.156   1.065 -0.0797 -0.2252  0.3096
 9892WAT     H140274   6.820   1.103   1.130 -1.9733 -0.7483  0.7117
 9892WAT     H240275   6.796   1.235   1.101 -0.1168 -0.3957  0.6941
 9892WAT    EPW40276   6.798   1.160   1.080 -0.0930 -0.1278 -0.1006
 9893WAT      O40277   1.424   7.926   7.454  0.0813  0.1816  0.2358
 9893WAT     H140278   1.447   8.010   7.460  0.6677  0.0290  0.1350
 9893WAT     H240279   1.477   7.886   7.510  1.8370 -0.5047 -1.7893
 9893WAT    EPW40280   1.435   7.933   7.463 -0.2340  0.2662  0.0852
 9894WAT      O40281   3.363   2.623   0.105 -0.3712 -0.2359  0.0415
 9894WAT     H140282   3.319   2.548   0.104 -1.3002  0.1391  3.0116
 9894WAT     H240283   3.446   2.598   0.117 -0.6152 -0.8103  0.5668
 9894WAT    EPW40284   3.369   2.608   0.107  0.4416 -0.3614 -0.6567
 9895WAT      O40285   2.519   5.088   6.002 -0.4591  0.9497  0.0561
 9895WAT     H140286   2.560   5.164   6.011 -0.7985  1.0691  0.6120
 9895WAT     H240287   2.557   5.036   6.061  1.3534 -0.0261 -1.8200
 9895WAT    EPW40288   2.531   5.091   6.012 -0.4511  0.0550 -0.0268
 9896WAT      O40289   6.409   0.103   7.777 -0.5783  0.2679  0.3296
 9896WAT     H140290   6.410   0.033   7.724 -0.6850 -1.1873  2.1470
 9896WAT     H240291   6.491   0.108   7.805 -1.1645 -1.1365  2.5879
 9896WAT    EPW40292   6.421   0.093   7.773 -0.0691 -0.0768 -0.5499
 9897WAT      O40293   2.522   0.162   7.267 -0.0426 -0.5226 -0.0606
 9897WAT     H140294   2.552   0.243   7.271  2.1754 -1.2358 -0.4855
 9897WAT     H240295   2.594   0.114   7.255 -1.3822 -2.4346 -1.1051
 9897WAT    EPW40296   2.537   0.167   7.266 -0.0376  0.2141  0.8071
 9898WAT      O40297   5.416   4.050   1.432 -0.4370 -0.3107  0.4239
 9898WAT     H140298   5.465   4.087   1.494 -0.4377 -0.8540  0.7493
 9898WAT     H240299   5.337   4.085   1.446 -0.6139 -0.9895  1.2185
 9898WAT    EPW40300   5.411   4.061   1.443 -0.5241 -0.3279 -0.1562
 9899WAT      O40301   7.882   6.969   1.788  0.2284 -0.2417 -0.6526
 9899WAT     H140302   7.799   6.973   1.813  0.1814 -1.3031 -0.5754
 9899WAT     H240303   7.903   6.885   1.803  0.9630 -0.2636 -1.7259
 9899WAT    EPW40304   7.873   6.957   1.794 -0.1282  0.9711  0.3012
 9900WAT      O40305   4.595   6.073   7.203  0.1798 -0.0563  0.3032
 9900WAT     H140306   4.584   6.041   7.123  0.9797 -0.7866  0.4702
 9900WAT     H240307   4.618   6.003   7.250 -2.2654 -0.0556  1.6494
 9900WAT    EPW40308   4.597   6.058   7.198 -0.8290  0.2245  0.2305
 9901WAT      O40309   0.196   5.459   0.062  0.1386 -0.0702 -0.8442
 9901WAT     H140310   0.272   5.453   0.104 -0.9684  0.0623  1.2761
 9901WAT     H240311   0.136   5.454   0.125 -1.6285  0.5551 -2.3652
 9901WAT    EPW40312   0.198   5.457   0.077 -0.1076  0.0570  0.5522
 9902WAT      O40313   7.119   5.751   4.885  0.0064  0.3122 -0.0033
 9902WAT     H140314   7.070   5.679   4.890 -0.7445  0.8440  0.5099
 9902WAT     H240315   7.130   5.763   4.799  1.7643 -1.4774 -0.0929
 9902WAT    EPW40316   7.113   5.742   4.873  0.1978  0.0030 -0.1382
 9903WAT      O40317   3.065   5.547   4.985 -0.4138 -0.1402 -0.1150
 9903WAT     H140318   2.985   5.525   4.956 -2.0349  0.7027  3.2101
 9903WAT     H240319   3.070   5.508   5.062  0.4283  3.3867  1.8492
 9903WAT    EPW40320   3.054   5.538   4.992  0.0934 -0.5799 -0.9495
 9904WAT      O40321   1.898   1.388   2.851  0.2406  0.0313  0.2084
 9904WAT     H140322   1.839   1.445   2.882  0.0628 -0.2630  0.4168
 9904WAT     H240323   1.955   1.439   2.809 -1.7600  0.1062 -2.6893
 9904WAT    EPW40324   1.898   1.404   2.850 -0.5973  0.0046 -0.0547
 9905WAT      O40325   1.977   4.199   4.113  0.3352 -0.1551 -0.2215
 9905WAT     H140326   2.049   4.230   4.149  0.9317 -0.9563 -0.6952
 9905WAT     H240327   1.947   4.142   4.171 -1.5136  2.1608  1.2852
 9905WAT    EPW40328   1.983   4.195   4.127  0.3559  0.5885  0.3637
 9906WAT      O40329   3.285   6.156   0.698 -0.1428 -0.3093 -0.3143
 9906WAT     H140330   3.259   6.079   0.727 -1.6463  0.4046  0.3222
 9906WAT     H240331   3.371   6.155   0.711 -0.2728 -1.4792  0.6084
 9906WAT    EPW40332   3.294   6.145   0.704 -0.4643 -0.0185 -1.0182
 9907WAT      O40333   1.004   6.327   0.262 -0.1751 -0.1735  0.6329
 9907WAT     H140334   0.927   6.364   0.243  0.2465  0.2836 -0.2209
 9907WAT     H240335   1.005   6.256   0.211  0.1504  0.0620  0.3008
 9907WAT    EPW40336   0.993   6.322   0.251 -0.4449  0.3649 -0.8132
 9908WAT      O40337   5.897   7.589   7.922  0.0992 -0.5474  0.1878
 9908WAT     H140338   5.891   7.631   7.998  0.5083 -0.7830  0.3559
 9908WAT     H240339   5.830   7.533   7.924  0.4580 -0.9785  0.6524
 9908WAT    EPW40340   5.886   7.587   7.934  0.2999  0.1500  0.0008
 9909WAT      O40341   1.660   4.601   4.882 -0.1674 -0.0682  0.0194
 9909WAT     H140342   1.673   4.687   4.886 -2.1762  0.3084 -0.3583
 9909WAT     H240343   1.721   4.573   4.826 -0.5860  1.3928 -1.2263
 9909WAT    EPW40344   1.671   4.609   4.874 -0.5083 -0.2247  0.3279
 9910WAT      O40345   2.298   6.603   7.858 -0.2327 -0.1828 -0.0224
 9910WAT     H140346   2.371   6.633   7.895 -1.3960  0.9773  1.5015
 9910WAT     H240347   2.259   6.559   7.923 -1.4910  0.3525 -0.3877
 9910WAT    EPW40348   2.303   6.601   7.873 -0.5842  0.8206 -1.0887
 9911WAT      O40349   1.845   5.209   0.960  0.1717 -0.1107 -0.3078
 9911WAT     H140350   1.780   5.231   1.013 -0.9305 -0.9749 -1.2561
 9911WAT     H240351   1.916   5.217   1.010 -0.5854  1.3623  0.5920
 9911WAT    EPW40352   1.846   5.214   0.975  0.2658 -0.3772 -0.0596
 9912WAT      O40353   0.228   6.618   0.577 -0.1336 -0.2204 -0.2469
 9912WAT     H140354   0.246   6.533   0.574 -1.7455 -0.5644 -1.3816
 9912WAT     H240355   0.296   6.655   0.537  0.1213 -1.0783 -0.6268
 9912WAT    EPW40356   0.240   6.611   0.570  0.5724  0.2501  0.2341
 9913WAT      O40357   2.759   1.770   6.555 -0.4812 -0.1810 -0.4528
 9913WAT     H140358   2.758   1.755   6.469  0.9880  0.9271 -0.7040
 9913WAT     H240359   2.699   1.832   6.566  0.0208  0.3931 -0.8581
 9913WAT    EPW40360   2.750   1.777   6.544 -0.4420  0.6459  0.2357
 9914WAT      O40361   2.011   7.949   0.158 -0.4588  0.7614  0.3139
 9914WAT     H140362   2.076   8.007   0.163 -0.4616  0.9127 -1.0503
 9914WAT     H240363   2.047   7.874   0.182  0.5173  0.6429 -1.3943
 9914WAT    EPW40364   2.026   7.947   0.162 -0.2566  0.3198 -0.0914
 9915WAT      O40365   1.624   5.539   5.806 -0.5012  0.1832  0.7450
 9915WAT     H140366   1.579   5.612   5.821 -1.3599 -0.2884  0.5279
 9915WAT     H240367   1.562   5.479   5.794  0.1914 -0.7127  1.5356
 9915WAT    EPW40368   1.608   5.541   5.806  0.1993 -0.7280  0.2120
 9916WAT      O40369   3.988   6.568   0.748 -0.8387  0.0236 -0.4948
 9916WAT     H140370   4.034   6.560   0.674  2.4759 -0.7352  1.4312
 9916WAT     H240371   3.919   6.517   0.735  0.4992 -1.4355 -2.5002
 9916WAT    EPW40372   3.985   6.559   0.735  0.1756  0.5571 -0.0311
 9917WAT      O40373   5.287   3.351  -0.003  0.2076 -0.1973  0.0903
 9917WAT     H140374   5.369   3.354  -0.034 -0.0525  0.1105 -0.5849
 9917WAT     H240375   5.289   3.408   0.064  1.1255 -1.8520  1.5633
 9917WAT    EPW40376   5.299   3.360   0.003  0.2501  0.0587 -0.0242
 9918WAT      O40377   6.260   5.670   1.068  0.7902  0.4289 -0.0031
 9918WAT     H140378   6.218   5.709   1.002  1.3431  0.5678 -0.2738
 9918WAT     H240379   6.327   5.631   1.030  1.1392  0.5439  0.4822
 9918WAT    EPW40380   6.264   5.670   1.053  0.2656  0.6703 -0.0101
 9919WAT      O40381   1.099   6.537   1.288 -0.3640  0.4057  0.3703
 9919WAT     H140382   1.086   6.614   1.329  0.0693 -0.2218  1.7658
 9919WAT     H240383   1.165   6.553   1.234 -1.9755  1.6888 -1.3714
 9919WAT    EPW40384   1.107   6.551   1.286 -0.1166  0.2260 -0.5973
 9920WAT      O40385   2.202   6.862   3.950 -0.0408  0.1521  0.1637
 9920WAT     H140386   2.256   6.848   4.017  0.0881 -0.2384 -0.0205
 9920WAT     H240387   2.123   6.857   3.986  0.0427  0.5991  0.4103
 9920WAT    EPW40388   2.199   6.859   3.965  0.7872 -0.6091  0.1974
 9921WAT      O40389   2.399   7.470   3.583 -0.1415 -0.0636 -0.0175
 9921WAT     H140390   2.405   7.389   3.552  0.0653 -0.5339  1.1840
 9921WAT     H240391   2.327   7.502   3.544 -0.6320 -1.0724  0.0315
 9921WAT    EPW40392   2.389   7.463   3.573  0.5892  0.3012 -0.0226
 9922WAT      O40393   0.850   3.222   0.679  0.0070 -0.6483  0.1551
 9922WAT     H140394   0.777   3.182   0.706 -0.8070  0.7887  0.1620
 9922WAT     H240395   0.839   3.304   0.706  1.6960 -0.4366  0.2516
 9922WAT    EPW40396   0.837   3.228   0.687  0.1894  0.1055  0.0907
 9923WAT      O40397   7.873   2.772   2.382 -0.1558  0.1034  0.1516
 9923WAT     H140398   7.791   2.772   2.351 -0.4928  2.4731  0.8182
 9923WAT     H240399   7.915   2.827   2.328  0.4526  0.5077  1.0114
 9923WAT    EPW40400   7.867   2.780   2.369 -0.1151 -0.0861 -0.1455
 9924WAT      O40401   4.737   6.563   2.931  0.3224 -0.4522  0.3463
 9924WAT     H140402   4.703   6.641   2.947  0.8332 -0.4807  1.6984
 9924WAT     H240403   4.815   6.581   2.896  0.1535 -0.3685  0.0103
 9924WAT    EPW40404   4.744   6.577   2.928  0.2069 -0.0519 -0.2314
 9925WAT      O40405   1.058   2.020   0.552 -0.4012 -0.4810  0.1674
 9925WAT     H140406   1.067   1.990   0.471  0.1080  0.6788 -0.2344
 9925WAT     H240407   0.996   2.082   0.544 -0.5069 -0.5072  0.7062
 9925WAT    EPW40408   1.050   2.025   0.539  1.0842 -0.0051  0.3678
 9926WAT      O40409   3.901   1.011   3.632 -0.5309  0.0601 -0.6651
 9926WAT     H140410   3.895   1.094   3.659 -1.6534 -0.0235 -0.6406
 9926WAT     H240411   3.857   1.011   3.557  0.0472 -0.3707 -1.0082
 9926WAT    EPW40412   3.894   1.023   3.625  0.3015 -0.0067 -0.4137
 9927WAT      O40413   3.443   7.276   0.120 -0.2155  0.1596 -0.2703
 9927WAT     H140414   3.505   7.337   0.126 -1.9064  2.0002 -0.1838
 9927WAT     H240415   3.481   7.211   0.076  2.1179  0.6452  0.9190
 9927WAT    EPW40416   3.458   7.276   0.114  0.2854  0.2829 -0.6962
 9928WAT      O40417   2.952   5.009   0.774  0.1766  0.0591  0.1565
 9928WAT     H140418   2.950   5.023   0.688  1.5385  0.8608  0.2153
 9928WAT     H240419   3.026   4.964   0.786  0.8805  1.3646  1.0419
 9928WAT    EPW40420   2.963   5.005   0.763 -0.2478  0.2308 -0.6994
 9929WAT      O40421   3.008   0.815   6.000 -0.1772 -0.1613 -0.7809
 9929WAT     H140422   3.071   0.822   6.059 -1.2648 -0.5288  0.4650
 9929WAT     H240423   3.047   0.840   5.926  0.8035  1.8879  0.3426
 9929WAT    EPW40424   3.023   0.820   5.998 -0.0108  0.4286  0.3567
 9930WAT      O40425   4.691   8.039   2.689 -0.0515  0.2676  0.4562
 9930WAT     H140426   4.717   7.988   2.622 -2.3109 -0.7309  0.2347
 9930WAT     H240427   4.722   7.998   2.759  0.8678  0.3641  0.1114
 9930WAT    EPW40428   4.699   8.025   2.689  0.1161  0.2028  0.6718
 9931WAT      O40429   0.337   0.081   2.790  0.1331 -0.5297 -0.5134
 9931WAT     H140430   0.424   0.077   2.783  0.0335 -0.9247 -2.1611
 9931WAT     H240431   0.322   0.160   2.823  1.1616 -1.1252  1.5060
 9931WAT    EPW40432   0.348   0.092   2.794 -0.1372  0.3704 -0.2792
 9932WAT      O40433   3.277   5.785   1.983  0.3983  0.5322 -0.6834
 9932WAT     H140434   3.289   5.740   1.909 -0.2492  0.5482 -0.8014
 9932WAT     H240435   3.313   5.734   2.044 -1.6956 -0.9311 -0.5869
 9932WAT    EPW40436   3.284   5.771   1.982  1.1803 -0.5101 -0.2764
 9933WAT      O40437   2.764   5.811   7.595 -0.4065 -0.5200 -0.4571
 9933WAT     H140438   2.755   5.724   7.595 -1.6491 -0.4348  0.5782
 9933WAT     H240439   2.738   5.834   7.675 -1.8485  0.9553 -1.2819
 9933WAT    EPW40440   2.759   5.802   7.607  0.3191 -0.5792  0.3761
 9934WAT      O40441   7.533   6.485   1.962 -0.0493 -0.4356 -0.3351
 9934WAT     H140442   7.476   6.550   1.954  0.7921  0.5079  0.9518
 9934WAT     H240443   7.600   6.521   2.005  0.9418 -1.8520 -0.6067
 9934WAT    EPW40444   7.535   6.500   1.967  0.6882 -0.1567  0.2809
 9935WAT      O40445   2.807   4.101   2.602  0.7109  0.1302  0.7849
 9935WAT     H140446   2.883   4.067   2.628  1.4529 -1.1195 -2.5612
 9935WAT     H240447   2.765   4.033   2.567 -0.7711  1.3513  0.0878
 9935WAT    EPW40448   2.812   4.086   2.601 -0.4137  0.1171 -0.3142
 9936WAT      O40449   7.374   4.409   3.098 -0.0901 -0.5600  0.5503
 9936WAT     H140450   7.374   4.495   3.080  0.7430 -0.6996 -0.2216
 9936WAT     H240451   7.440   4.400   3.154  2.0538 -1.1159 -1.8832
 9936WAT    EPW40452   7.384   4.421   3.103  0.3122 -0.1142  0.1440
 9937WAT      O40453   0.519   2.749   0.380 -0.0823  0.3406  0.8174
 9937WAT     H140454   0.460   2.687   0.363 -0.0180  0.1299  1.3520
 9937WAT     H240455   0.505   2.768   0.464  1.8789 -1.0816  1.5475
 9937WAT    EPW40456   0.508   2.743   0.390  0.1553 -0.2947  0.2908
 9938WAT      O40457   5.000   2.761   0.335 -0.0064 -0.1039  0.5258
 9938WAT     H140458   4.986   2.819   0.271  1.1873  0.1255  0.4569
 9938WAT     H240459   5.039   2.695   0.293  1.5012  0.3709  1.1220
 9938WAT    EPW40460   5.004   2.760   0.319  0.1873 -0.0075  0.1765
 9939WAT      O40461   0.515   2.073   3.246 -0.0538  0.1216 -0.0251
 9939WAT     H140462   0.509   2.090   3.331  0.3067 -1.4923  0.3651
 9939WAT     H240463   0.585   2.021   3.240 -1.1585 -1.3467 -1.0050
 9939WAT    EPW40464   0.524   2.068   3.258 -0.6050 -0.2123  0.5850
 9940WAT      O40465   2.754   2.918   5.979 -0.3210  0.3288 -0.4441
 9940WAT     H140466   2.790   2.997   5.980 -0.5339  0.4253  0.6404
 9940WAT     H240467   2.784   2.882   5.905  1.0760  0.8158 -0.1293
 9940WAT    EPW40468   2.763   2.924   5.968  0.0085 -0.4940 -0.3593
 9941WAT      O40469   2.661   7.826   7.451  0.1206  0.2874  0.3554
 9941WAT     H140470   2.582   7.809   7.483 -0.5207  3.2505  0.6700
 9941WAT     H240471   2.708   7.849   7.521  0.8133  0.0711 -0.0197
 9941WAT    EPW40472   2.657   7.827   7.466 -0.0397  0.3792  0.1576
 9942WAT      O40473   1.555   1.464   7.050  0.3612 -0.3332 -0.0932
 9942WAT     H140474   1.502   1.449   7.118 -1.0656 -1.0969 -1.3200
 9942WAT     H240475   1.635   1.463   7.085 -0.2864 -1.4680  1.4372
 9942WAT    EPW40476   1.559   1.462   7.065 -0.3995 -0.0300 -0.2557
 9943WAT      O40477   2.144   7.072   0.423 -0.5350  0.4661 -0.1997
 9943WAT     H140478   2.098   7.026   0.364 -1.7716  0.2522  0.8721
 9943WAT     H240479   2.082   7.106   0.474  0.5357 -0.3680  1.7182
 9943WAT    EPW40480   2.128   7.071   0.422 -0.1905  0.2867  0.0874
 9944WAT      O40481   7.739   6.030   2.648  0.1771 -0.2802  0.0033
 9944WAT     H140482   7.695   6.079   2.592 -1.4169 -0.6587  0.8831
 9944WAT     H240483   7.746   5.953   2.607  0.2411 -0.1465 -0.2381
 9944WAT    EPW40484   7.734   6.026   2.633  0.3108  0.3402 -0.7487
 9945WAT      O40485   2.477   4.913   3.983 -0.1052  0.0467 -0.0472
 9945WAT     H140486   2.402   4.869   3.969  1.0916 -2.4191  0.6598
 9945WAT     H240487   2.510   4.922   3.903 -0.4079 -0.3361 -0.2230
 9945WAT    EPW40488   2.471   4.908   3.969  0.2407  0.4902  0.2032
 9946WAT      O40489   1.514   1.006   3.653  0.5874  0.1987  0.3829
 9946WAT     H140490   1.486   1.079   3.614  0.8899  1.4618  2.3972
 9946WAT     H240491   1.441   0.958   3.660  0.1767  0.7424 -0.0641
 9946WAT    EPW40492   1.499   1.010   3.648 -0.0585 -0.2570  0.1828
 9947WAT      O40493   6.862   5.094   3.705  0.5518 -0.0169  0.0418
 9947WAT     H140494   6.792   5.119   3.658  0.1914  1.8441  1.4688
 9947WAT     H240495   6.912   5.053   3.646 -0.2965  1.4190 -1.7813
 9947WAT    EPW40496   6.859   5.092   3.689 -0.2296  0.2904  0.6611
 9948WAT      O40497   1.231   4.656   1.053 -0.7890  0.3564  0.2405
 9948WAT     H140498   1.292   4.686   0.997 -1.1204 -1.1380 -0.9841
 9948WAT     H240499   1.269   4.587   1.089 -2.0995 -1.3397 -1.4320
 9948WAT    EPW40500   1.246   4.650   1.050  0.6150 -0.1090  0.2051
 9949WAT      O40501   5.841   3.674   6.052 -0.4832 -0.2969  0.2241
 9949WAT     H140502   5.921   3.707   6.061 -0.8770  0.3288  1.5710
 9949WAT     H240503   5.807   3.720   5.986  0.2622 -0.5955 -0.3831
 9949WAT    EPW40504   5.848   3.685   6.043  0.4554 -0.1649  0.4630
 9950WAT      O40505   4.204   2.083   2.659  0.1581  0.0901 -0.0418
 9950WAT     H140506   4.209   2.170   2.667 -2.4157  0.3765 -0.7404
 9950WAT     H240507   4.139   2.061   2.712  0.5228 -1.3730 -0.1665
 9950WAT    EPW40508   4.195   2.092   2.668 -0.2525  0.3802 -0.1783
 9951WAT      O40509   0.285   3.838   1.801 -0.7520  0.0677  0.3030
 9951WAT     H140510   0.203   3.817   1.782 -0.7148 -0.9165  1.1037
 9951WAT     H240511   0.301   3.794   1.875  0.1027  1.2150  0.8257
 9951WAT    EPW40512   0.275   3.828   1.809 -0.1320 -0.1673 -0.4412
 9952WAT      O40513   5.354   4.604   6.361  0.4319 -0.4662 -0.0242
 9952WAT     H140514   5.288   4.608   6.418 -0.1890 -0.3158 -0.7428
 9952WAT     H240515   5.422   4.635   6.406 -0.1661  0.1594  0.4569
 9952WAT    EPW40516   5.354   4.609   6.376  0.2045 -0.4447  0.7264
 9953WAT      O40517   1.684   6.622   2.012  0.0135 -0.0834  0.1320
 9953WAT     H140518   1.642   6.550   2.035 -0.6389  0.2604  0.0409
 9953WAT     H240519   1.758   6.619   2.059  0.0281 -0.8411  0.0666
 9953WAT    EPW40520   1.689   6.611   2.023 -0.0131  1.0194  0.9246
 9954WAT      O40521   3.572   1.909   3.652 -0.1219 -0.2968 -0.2757
 9954WAT     H140522   3.495   1.939   3.624 -0.6248 -0.9987  0.3312
 9954WAT     H240523   3.630   1.946   3.598 -0.9146 -0.0874 -0.9864
 9954WAT    EPW40524   3.569   1.919   3.640 -0.0658  0.0751  0.0243
 9955WAT      O40525   2.946   1.020   1.031 -0.0825 -0.0642 -0.2294
 9955WAT     H140526   2.935   1.107   1.034 -2.1268 -0.2990  0.7887
 9955WAT     H240527   2.951   0.997   1.114 -0.7617 -1.0324 -0.4409
 9955WAT    EPW40528   2.945   1.030   1.044  0.4439  0.1474  0.0422
 9956WAT      O40529   0.625   7.113   2.393  0.2772 -0.2377  0.0248
 9956WAT     H140530   0.674   7.043   2.409  0.9622  0.5517  1.5038
 9956WAT     H240531   0.636   7.163   2.463  0.5327  1.7809 -1.3825
 9956WAT    EPW40532   0.634   7.110   2.405  0.0260  0.0350  0.2432
 9957WAT      O40533   1.094   0.837   4.934  0.0970 -0.8167  0.1594
 9957WAT     H140534   1.100   0.923   4.918 -1.7558 -0.8194 -0.7679
 9957WAT     H240535   1.156   0.802   4.884 -0.6134 -0.1758 -1.2151
 9957WAT    EPW40536   1.104   0.845   4.924  0.4890 -0.0016 -0.0858
 9958WAT      O40537   0.787   2.244   3.915  0.8590 -0.0311 -0.6110
 9958WAT     H140538   0.770   2.224   3.832 -0.4916 -0.7223 -0.1971
 9958WAT     H240539   0.749   2.322   3.926  1.2526  0.1763 -0.6987
 9958WAT    EPW40540   0.779   2.252   3.904  0.2256  0.3368  0.3094
 9959WAT      O40541   2.765   1.745   4.376 -0.4316 -0.1535 -0.5484
 9959WAT     H140542   2.801   1.785   4.307  0.7552  0.1243  0.2079
 9959WAT     H240543   2.831   1.699   4.410 -0.5624  0.8899  1.2706
 9959WAT    EPW40544   2.780   1.744   4.371 -0.1998  0.1631 -0.1949
 9960WAT      O40545   4.788   5.317   7.720  0.1319  0.1747  0.4513
 9960WAT     H140546   4.803   5.291   7.802  0.1292  1.0449  0.7411
 9960WAT     H240547   4.716   5.274   7.697  0.4811 -0.5420  0.6880
 9960WAT    EPW40548   4.780   5.307   7.728  0.6654  0.1666  0.3804
 9961WAT      O40549   3.720   2.977   2.381  0.3767  0.1976  0.0215
 9961WAT     H140550   3.745   2.960   2.463  0.8502 -1.1345 -0.3810
 9961WAT     H240551   3.771   3.044   2.358  0.0855  0.7312  0.8778
 9961WAT    EPW40552   3.731   2.984   2.390  0.7212  0.0164  0.0963
 9962WAT      O40553   3.949   2.487   7.874  0.0720 -0.3486  0.3411
 9962WAT     H140554   4.026   2.457   7.845  1.1509  2.7896 -0.4032
 9962WAT     H240555   3.964   2.503   7.959  0.3088  0.3728  0.1694
 9962WAT    EPW40556   3.963   2.485   7.882  0.1754 -0.0902  0.2589
 9963WAT      O40557   6.934   0.184   2.534 -0.1936 -0.2972  0.0575
 9963WAT     H140558   6.862   0.180   2.484  0.5049 -2.1872 -0.8773
 9963WAT     H240559   6.974   0.108   2.519  0.7196 -0.3886  2.5530
 9963WAT    EPW40560   6.929   0.172   2.524 -0.8111  0.1740 -0.1319
 9964WAT      O40561   4.623   2.046   0.561  0.3876  0.4434 -0.3222
 9964WAT     H140562   4.634   1.963   0.537  1.8391  0.6084 -0.3059
 9964WAT     H240563   4.540   2.062   0.540  0.1607 -0.9247 -0.5714
 9964WAT    EPW40564   4.612   2.036   0.554 -0.3717 -0.5354 -0.1091
 9965WAT      O40565   5.828   2.302   6.859 -0.2919 -0.3239 -0.0974
 9965WAT     H140566   5.756   2.315   6.811 -2.9970  1.0302  3.8856
 9965WAT     H240567   5.871   2.377   6.853  0.3804 -0.7870 -1.6740
 9965WAT    EPW40568   5.823   2.315   6.851  0.0351 -0.1508  0.1980
 9966WAT      O40569   0.844   4.033   3.363  0.4327 -0.5905 -0.4696
 9966WAT     H140570   0.893   3.971   3.327 -1.6009 -1.7125 -1.3937
 9966WAT     H240571   0.850   4.016   3.449  1.1410 -1.0790 -0.6072
 9966WAT    EPW40572   0.852   4.021   3.371 -0.1201  0.1964 -0.0665
 9967WAT      O40573   8.067   1.276   1.683  0.4270 -0.1271  0.1834
 9967WAT     H140574   8.046   1.329   1.750 -0.8652 -2.4317  1.7436
 9967WAT     H240575   8.143   1.241   1.708  0.7194  0.1539 -0.3041
 9967WAT    EPW40576   8.075   1.279   1.697 -0.5034  0.9050  0.4329
 9968WAT      O40577   6.760   2.055   0.574 -0.3738 -0.0918  0.1264
 9968WAT     H140578   6.732   2.003   0.509  0.4844 -0.6862  0.2240
 9968WAT     H240579   6.838   2.023   0.594 -0.8484 -0.2928  1.8557
 9968WAT    EPW40580   6.767   2.043   0.568 -0.6005  0.2618 -0.0959
 9969WAT      O40581   4.249   2.137   6.592  0.2281 -0.0861 -0.2763
 9969WAT     H140582   4.243   2.223   6.578 -2.1806  0.1733  1.6577
 9969WAT     H240583   4.214   2.102   6.520 -1.3129  0.7104  0.0420
 9969WAT    EPW40584   4.243   2.145   6.579  0.4269  1.5118  0.7403
 9970WAT      O40585   2.640   1.387   4.957  0.1696 -0.7383  0.1452
 9970WAT     H140586   2.613   1.304   4.959 -0.0239 -0.7132 -0.9750
 9970WAT     H240587   2.646   1.405   4.872  0.3576  0.3532  0.3747
 9970WAT    EPW40588   2.637   1.377   4.945  0.7417  0.1732 -0.2484
 9971WAT      O40589   2.889   6.956   7.547  0.4832  0.1361  0.4300
 9971WAT     H140590   2.946   7.019   7.566 -0.5430  1.0051  0.7795
 9971WAT     H240591   2.881   6.912   7.622  0.3637  0.2970  0.5128
 9971WAT    EPW40592   2.896   6.959   7.561  0.5232  0.1374  0.4403
 9972WAT      O40593   2.010   0.383   5.528  0.1416 -0.1869  0.6869
 9972WAT     H140594   2.062   0.338   5.582  0.8739  1.0818  1.0850
 9972WAT     H240595   2.049   0.461   5.522 -0.8965  0.2952 -0.2531
 9972WAT    EPW40596   2.024   0.388   5.535 -0.0811 -0.4865 -0.2045
 9973WAT      O40597   2.075   6.607   5.804  0.4149  0.0273  0.3415
 9973WAT     H140598   2.091   6.642   5.883 -1.8361  0.3628  0.7164
 9973WAT     H240599   2.149   6.566   5.784  1.1952  0.3044  2.4420
 9973WAT    EPW40600   2.088   6.606   5.813  0.0677  0.5856  0.4444
 9974WAT      O40601   3.324   0.957   7.615  0.0612  0.2842  0.1571
 9974WAT     H140602   3.346   0.876   7.639  1.1507  1.3898  3.5473
 9974WAT     H240603   3.394   1.005   7.638 -1.7205  2.5527  1.2688
 9974WAT    EPW40604   3.338   0.952   7.622 -0.0755 -0.0688  0.0789
 9975WAT      O40605   2.046   5.509   6.670 -0.2519 -0.7790  0.1947
 9975WAT     H140606   1.986   5.459   6.631  0.4643  0.3660 -2.6490
 9975WAT     H240607   2.118   5.493   6.624  0.4360  1.4705  0.3989
 9975WAT    EPW40608   2.048   5.499   6.657 -0.7515 -0.3698  0.1531
 9976WAT      O40609   0.982   4.354   0.264 -0.4342 -0.1283  0.6633
 9976WAT     H140610   1.055   4.402   0.267 -0.8364  0.4858  0.7383
 9976WAT     H240611   0.920   4.408   0.293 -0.7544 -0.9743  1.5909
 9976WAT    EPW40612   0.984   4.369   0.269  0.0422 -0.1160 -0.2518
 9977WAT      O40613   2.222   3.378   2.389 -0.1045  0.1268  0.0433
 9977WAT     H140614   2.184   3.361   2.466 -0.3170  0.2257 -0.0387
 9977WAT     H240615   2.258   3.301   2.368 -0.1691  0.0594  0.1721
 9977WAT    EPW40616   2.221   3.364   2.397  0.6177  0.3455 -0.3716
 9978WAT      O40617   1.713   5.629   5.544 -0.2205 -0.5816 -0.2547
 9978WAT     H140618   1.766   5.697   5.556 -0.2129 -0.5409 -0.5125
 9978WAT     H240619   1.693   5.604   5.625 -1.7553  0.9175 -0.1135
 9978WAT    EPW40620   1.718   5.635   5.558  0.3377 -0.2917 -0.0201
 9979WAT      O40621   6.643   3.585   8.056  0.2425  0.0459 -0.1963
 9979WAT     H140622   6.562   3.568   8.027  0.4820 -0.8344 -0.3978
 9979WAT     H240623   6.673   3.506   8.078  1.1987  0.3148 -0.5081
 9979WAT    EPW40624   6.636   3.571   8.055 -0.0188  0.2746  0.2498
 9980WAT      O40625   3.188   5.975   6.229  0.2849 -0.5819 -0.4402
 9980WAT     H140626   3.123   5.920   6.244  0.5444 -0.5679  0.8529
 9980WAT     H240627   3.259   5.930   6.251  0.4336  0.5808  1.8344
 9980WAT    EPW40628   3.189   5.960   6.235  0.3755 -0.4958 -0.3225
 9981WAT      O40629   2.038   4.748   0.250  0.2049 -0.4330  0.2756
 9981WAT     H140630   2.077   4.679   0.214 -2.2222 -1.5624 -0.4012
 9981WAT     H240631   2.078   4.755   0.328  1.3300 -1.8366 -0.1223
 9981WAT    EPW40632   2.050   4.739   0.256  0.3925  0.6310  0.5910
 9982WAT      O40633   1.756   2.210   5.956  0.0453  0.4594 -0.6342
 9982WAT     H140634   1.750   2.137   5.909  2.6657 -0.1080 -0.2282
 9982WAT     H240635   1.833   2.202   5.997 -0.5783  2.4807  1.1007
 9982WAT    EPW40636   1.767   2.198   5.955  0.0736 -0.1246  0.4638
 9983WAT      O40637   2.005   1.810   7.030  0.3104  0.1729  0.0249
 9983WAT     H140638   1.987   1.799   6.945 -0.8648  0.2753  0.2449
 9983WAT     H240639   1.951   1.753   7.069  0.8936  0.0771  0.6965
 9983WAT    EPW40640   1.994   1.800   7.023 -0.6078 -0.1668  0.5123
 9984WAT      O40641   2.578   7.253   7.809 -0.2600 -0.3669  0.0968
 9984WAT     H140642   2.518   7.203   7.770  1.2230 -1.8359 -0.4643
 9984WAT     H240643   2.586   7.321   7.755 -2.1990  0.4655  0.7828
 9984WAT    EPW40644   2.571   7.255   7.795  0.1855 -0.6008 -0.3869
 9985WAT      O40645   8.041   3.208   2.154  0.2433 -0.2047 -1.2292
 9985WAT     H140646   8.116   3.234   2.117  0.4649  0.3164 -0.4439
 9985WAT     H240647   8.027   3.268   2.216 -2.9061  2.1224 -3.8128
 9985WAT    EPW40648   8.050   3.221   2.158 -0.3590  0.3170  0.6433
 9986WAT      O40649   0.674   2.176   2.388  0.4969 -0.1489 -0.2411
 9986WAT     H140650   0.677   2.120   2.321  0.8917  0.2469 -0.5605
 9986WAT     H240651   0.665   2.124   2.458 -2.7725 -0.4765 -0.7683
 9986WAT    EPW40652   0.673   2.160   2.388 -0.2125 -0.1630 -0.3922
 9987WAT      O40653   3.396   3.433   6.581  0.9953  0.6063  0.4173
 9987WAT     H140654   3.481   3.410   6.585  0.9979 -0.2228 -2.2600
 9987WAT     H240655   3.362   3.374   6.526 -1.3936  0.8172  1.5664
 9987WAT    EPW40656   3.404   3.421   6.573  0.1658 -0.2780  0.8800
 9988WAT      O40657   4.335   3.145   6.200 -0.6483  0.4142 -0.7032
 9988WAT     H140658   4.269   3.148   6.144 -2.6228  0.3231  1.4620
 9988WAT     H240659   4.319   3.073   6.247  0.0659  1.2819  0.9491
 9988WAT    EPW40660   4.323   3.135   6.199  0.3819 -0.4190 -0.5029
 9989WAT      O40661   3.168   1.507   2.872 -0.7970  0.5941 -0.2148
 9989WAT     H140662   3.114   1.516   2.940  0.1168 -1.5300  0.9075
 9989WAT     H240663   3.117   1.523   2.803 -2.1022  1.4793  0.9046
 9989WAT    EPW40664   3.152   1.510   2.871 -0.1234 -0.2604 -0.2243
 9990WAT      O40665   2.546   2.189  -0.027  0.0468  0.0126  0.0246
 9990WAT     H140666   2.474   2.145  -0.004  0.8817 -1.3863  0.0808
 9990WAT     H240667   2.567   2.233   0.046 -0.3359 -0.1624  0.2469
 9990WAT    EPW40668   2.538   2.189  -0.013 -0.4104  0.1254  0.4218
 9991WAT      O40669   0.328   3.308   1.783 -0.5538 -0.4463  0.6849
 9991WAT     H140670   0.412   3.287   1.771  0.0306  1.7081  0.5736
 9991WAT     H240671   0.290   3.282   1.709  0.7731  1.8335 -0.9271
 9991WAT    EPW40672   0.335   3.301   1.770 -0.5090 -0.4778  0.3236
 9992WAT      O40673   1.977   6.446   7.378  0.6377  0.2613  0.0691
 9992WAT     H140674   2.006   6.369   7.408  1.1289  0.1378 -0.6881
 9992WAT     H240675   1.935   6.480   7.446  1.0458 -0.3535  0.6445
 9992WAT    EPW40676   1.975   6.439   7.392 -0.4231  0.6386  0.3074
 9993WAT      O40677   1.737   2.221   7.837 -0.2384  0.5769 -0.2669
 9993WAT     H140678   1.744   2.138   7.865 -1.8052  0.1672 -0.9798
 9993WAT     H240679   1.699   2.261   7.904 -2.0440  0.0628 -0.9252
 9993WAT    EPW40680   1.733   2.214   7.851 -0.4698 -0.6860  0.5480
 9994WAT      O40681   0.946   6.537   0.828  0.2874 -0.2441 -0.6678
 9994WAT     H140682   0.962   6.623   0.830 -0.9319  0.0739 -2.5072
 9994WAT     H240683   0.888   6.526   0.893 -0.0321  0.4470 -0.8248
 9994WAT    EPW40684   0.939   6.548   0.838 -0.0337  0.1515 -0.2005
 9995WAT      O40685   2.575   0.991   6.568  0.1347  0.3550 -0.3563
 9995WAT     H140686   2.582   0.923   6.514  1.5882  0.4876 -0.3942
 9995WAT     H240687   2.605   0.960   6.644 -3.1217 -0.2239  0.8396
 9995WAT    EPW40688   2.581   0.977   6.572  0.0009 -0.1555 -0.4014
 9996WAT      O40689   1.803   5.408   2.106 -0.0339 -0.2754 -0.2235
 9996WAT     H140690   1.827   5.329   2.079 -0.3429 -0.7511  0.8171
 9996WAT     H240691   1.878   5.454   2.106  0.1527 -0.5799 -0.7920
 9996WAT    EPW40692   1.818   5.403   2.102 -0.8060 -0.1410  0.0372
 9997WAT      O40693   4.449   3.127   1.743 -0.1910 -0.0393 -0.1537
 9997WAT     H140694   4.513   3.072   1.723 -1.2016 -1.0773 -0.6510
 9997WAT     H240695   4.467   3.152   1.825  0.6549 -0.5753 -0.1749
 9997WAT    EPW40696   4.461   3.123   1.752  0.0589  0.4352  0.3310
 9998WAT      O40697   3.477   2.188   6.968  0.2655  0.0386 -0.3725
 9998WAT     H140698   3.412   2.235   6.934 -1.5111 -0.6499  1.8246
 9998WAT     H240699   3.538   2.247   6.985  0.8370  0.5434 -3.5958
 9998WAT    EPW40700   3.476   2.204   6.966 -0.1197 -0.2205  1.1768
 9999WAT      O40701   5.749   4.393   7.137  0.4038 -1.1872  0.5048
 9999WAT     H140702   5.721   4.425   7.213 -0.7937 -0.8208 -0.0633
 9999WAT     H240703   5.833   4.414   7.136 -0.0243  0.6932  0.8003
 9999WAT    EPW40704   5.757   4.401   7.148  0.4750  0.1496 -0.3555
10000WAT      O40705   4.903   3.683   0.241 -0.7194  0.1096  0.4514
10000WAT     H140706   4.840   3.710   0.295  0.5360  0.8583  1.5925
10000WAT     H240707   4.923   3.604   0.272  0.3463  0.7371  1.4732
10000WAT    EPW40708   4.896   3.675   0.254  0.2824 -0.4636 -0.0628
10001WAT      O40709   5.409   0.398   0.475 -0.0085 -0.0315  0.3742
10001WAT     H140710   5.419   0.369   0.393 -2.3136 -1.1922  0.4183
10001WAT     H240711   5.353   0.464   0.467 -0.9138 -0.6884  1.0661
10001WAT    EPW40712   5.402   0.403   0.462 -0.3592  0.2904  0.2006
10002WAT      O40713   2.802   7.472   0.146 -0.4138  0.1712  0.4119
10002WAT     H140714   2.717   7.451   0.142 -0.4836  0.3790  0.7367
10002WAT     H240715   2.842   7.397   0.129 -0.6620  0.0552  0.3245
10002WAT    EPW40716   2.795   7.458   0.143  0.5695 -0.8491  0.0864
10003WAT      O40717   1.392   6.499   0.856  0.1558  0.5817 -0.0870
10003WAT     H140718   1.425   6.433   0.903 -0.0674  0.5555  0.0327
10003WAT     H240719   1.316   6.468   0.827 -0.2249  0.9920  0.4536
10003WAT    EPW40720   1.386   6.485   0.859  0.2890 -0.1415  0.4456
10004WAT      O40721   3.082   5.867   1.615  0.1847  0.5693 -0.3060
10004WAT     H140722   3.117   5.912   1.549 -1.0464  0.6614 -0.9188
10004WAT     H240723   3.089   5.921   1.683  0.7425  0.7886 -0.5367
10004WAT    EPW40724   3.088   5.881   1.615  0.1206  0.0320 -0.2407
10005WAT      O40725   7.449   0.529   1.537  0.0376  0.2316 -0.2423
10005WAT     H140726   7.441   0.444   1.519  1.0902  0.2421 -0.8268
10005WAT     H240727   7.398   0.567   1.478 -0.8133  0.0077  0.3173
10005WAT    EPW40728   7.440   0.522   1.526 -0.1804 -0.1837 -0.0926
10006WAT      O40729   2.794   0.526   6.995  0.4405 -0.0736  0.3300
10006WAT     H140730   2.859   0.508   6.940 -0.7042 -0.7871 -0.8254
10006WAT     H240731   2.829   0.509   7.073  2.3848  1.8025 -0.0226
10006WAT    EPW40732   2.809   0.521   6.999 -0.0753  0.1909  0.3873
10007WAT      O40733   0.524   3.334   0.880  0.0408  0.2872 -0.0583
10007WAT     H140734   0.520   3.418   0.860  0.4520  0.4791  0.6344
10007WAT     H240735   0.558   3.297   0.809  0.6934  0.8365 -0.0379
10007WAT    EPW40736   0.529   3.341   0.867 -0.1700 -0.5319  0.1976
10008WAT      O40737   2.204   7.506   0.587 -0.2225 -0.5372  0.7464
10008WAT     H140738   2.132   7.518   0.539  0.5464  2.0365  0.0812
10008WAT     H240739   2.250   7.448   0.540 -1.0887 -0.9051  0.3173
10008WAT    EPW40740   2.200   7.499   0.573 -0.8754  0.0179  0.1915
10009WAT      O40741   5.377   5.344   6.308  0.4731 -0.6287 -0.0698
10009WAT     H140742   5.407   5.296   6.241  0.2955 -0.5596 -0.1986
10009WAT     H240743   5.291   5.350   6.293  0.2738 -1.4485  0.6971
10009WAT    EPW40744   5.369   5.338   6.296 -0.2931 -0.3538  0.1001
10010WAT      O40745   2.567   2.936   5.385 -0.3861 -0.1952  0.0748
10010WAT     H140746   2.568   2.924   5.299 -1.2421 -2.5797  0.3096
10010WAT     H240747   2.546   3.020   5.394 -2.5349 -0.3844 -2.0527
10010WAT    EPW40748   2.564   2.947   5.374 -0.2313  0.0153  0.4790
10011WAT      O40749   4.549   3.827   3.028 -0.4897 -0.1044 -0.2704
10011WAT     H140750   4.616   3.874   2.997 -0.8289  0.1207 -0.6777
10011WAT     H240751   4.541   3.762   2.971 -0.8738  0.0989 -0.4569
10011WAT    EPW40752   4.558   3.825   3.015 -0.2051 -0.6483 -0.7037
10012WAT      O40753   3.581   2.217   7.365  0.0724  0.0089  0.1154
10012WAT     H140754   3.496   2.196   7.368 -0.1749  1.0441  0.9394
10012WAT     H240755   3.621   2.141   7.382 -0.5450 -1.1351 -2.9031
10012WAT    EPW40756   3.574   2.202   7.368  0.0067 -0.2659 -0.3215
10013WAT      O40757   2.874   3.393   2.497 -0.3651  0.5144 -0.2242
10013WAT     H140758   2.909   3.470   2.516  1.1357 -0.5644  1.6562
10013WAT     H240759   2.814   3.381   2.559  0.8158 -0.6842  0.7284
10013WAT    EPW40760   2.870   3.403   2.509 -0.0274 -0.3024  0.2550
10014WAT      O40761   1.082   6.817   0.668 -0.1059 -0.3060  0.4176
10014WAT     H140762   1.051   6.794   0.590  2.3991 -2.9012 -0.0121
10014WAT     H240763   1.011   6.816   0.719 -1.7284  0.9641 -1.6681
10014WAT    EPW40764   1.067   6.813   0.664  0.0946 -0.1672  0.0358
10015WAT      O40765   1.461   1.738   4.611  0.2139  0.2254  0.1905
10015WAT     H140766   1.411   1.667   4.621  0.5405 -0.0270  0.0630
10015WAT     H240767   1.500   1.725   4.534 -0.5304  1.0585 -0.3567
10015WAT    EPW40768   1.459   1.725   4.601 -0.4538 -0.4926  0.1077
10016WAT      O40769   1.557   4.528   0.698 -0.0156 -0.1292  0.1771
10016WAT     H140770   1.607   4.456   0.705 -1.2251 -0.9946  0.1730
10016WAT     H240771   1.610   4.585   0.658  1.1639 -0.8188  0.6686
10016WAT    EPW40772   1.572   4.526   0.693 -0.5027 -0.6349 -0.3049
10017WAT      O40773   4.088   2.921   0.145 -0.1217  0.0574 -0.4401
10017WAT     H140774   4.037   2.940   0.077 -0.9617  1.6532  0.5823
10017WAT     H240775   4.032   2.891   0.205  0.4693 -0.4089 -0.1076
10017WAT    EPW40776   4.072   2.919   0.144 -0.0326 -0.0786  0.3168
10018WAT      O40777   3.088   1.566   3.797  0.3042  0.5950 -0.5101
10018WAT     H140778   3.070   1.631   3.742  1.4363  0.2912 -1.2809
10018WAT     H240779   3.176   1.566   3.800  0.4466 -2.0595 -1.9904
10018WAT    EPW40780   3.098   1.576   3.789 -0.1645  0.0157 -0.4759
10019WAT      O40781   2.708   4.955   4.117  0.2312  0.4050  0.0021
10019WAT     H140782   2.627   4.959   4.086  0.5348  1.9184 -0.7147
10019WAT     H240783   2.751   4.907   4.057  0.6339  2.6525 -1.6313
10019WAT    EPW40784   2.703   4.948   4.104  0.1694 -0.8308  0.0461
10020WAT      O40785   1.311   4.914   0.206  0.0273  0.1515  0.0853
10020WAT     H140786   1.228   4.893   0.221  0.2157 -0.1936  0.6843
10020WAT     H240787   1.339   4.944   0.283  0.4299  0.3718 -0.1417
10020WAT    EPW40788   1.303   4.915   0.219  0.3816 -0.3124  0.2061
10021WAT      O40789   7.301   8.004   1.249 -0.2235 -0.1600 -0.4009
10021WAT     H140790   7.234   8.033   1.297 -0.5433 -0.8273 -0.4462
10021WAT     H240791   7.367   8.002   1.306 -0.5965 -0.9270  0.0121
10021WAT    EPW40792   7.301   8.008   1.264 -0.3421 -0.0496  0.0493
10022WAT      O40793   5.643   2.354   7.254  0.1600 -0.0607  0.2272
10022WAT     H140794   5.641   2.278   7.297  0.7180 -0.2188 -0.0132
10022WAT     H240795   5.620   2.332   7.173 -1.9306  0.4053  0.6482
10022WAT    EPW40796   5.640   2.339   7.248  0.3061 -0.2058  0.3618
10023WAT      O40797   5.007   0.609   0.081 -0.1610 -0.0928  0.0378
10023WAT     H140798   4.922   0.589   0.088 -0.0355 -0.8946 -0.5257
10023WAT     H240799   5.047   0.533   0.098  0.4525  0.3235  0.4830
10023WAT    EPW40800   5.000   0.595   0.085  0.3342  0.2487  0.0963
10024WAT      O40801   5.064   3.370   1.491 -0.4514 -0.4138  0.0272
10024WAT     H140802   5.124   3.315   1.522 -0.5361 -1.3927 -1.4392
10024WAT     H240803   5.108   3.418   1.432 -1.1281 -1.4370 -1.3886
10024WAT    EPW40804   5.080   3.369   1.487  0.3215  0.3308 -0.2416
10025WAT      O40805   2.553   1.571   6.578 -0.3178  0.4399 -0.7770
10025WAT     H140806   2.587   1.504   6.623 -1.5611  0.9700  1.0209
10025WAT     H240807   2.620   1.627   6.573  0.2457 -0.2155 -0.8544
10025WAT    EPW40808   2.568   1.569   6.584  0.7262 -0.1463 -0.1368
10026WAT      O40809   0.817   5.746   0.602 -0.2107 -0.4546 -0.2324
10026WAT     H140810   0.856   5.721   0.676  0.1699 -0.2955 -0.3769
10026WAT     H240811   0.837   5.831   0.596  2.1858 -1.0089 -1.9433
10026WAT    EPW40812   0.826   5.755   0.612 -0.1118  0.0321 -0.8267
10027WAT      O40813   2.778   1.270   3.171  0.5715  0.3682 -0.5632
10027WAT     H140814   2.761   1.300   3.252 -2.1778  0.3938 -1.0572
10027WAT     H240815   2.789   1.184   3.183  0.4566  0.4080 -0.1307
10027WAT    EPW40816   2.777   1.262   3.185  0.1245 -0.3182 -0.4921
10028WAT      O40817   2.950   3.512   0.672 -0.2503  0.0961  0.3181
10028WAT     H140818   2.945   3.504   0.585 -0.6441  1.2351  0.2165
10028WAT     H240819   2.882   3.465   0.700 -0.5030  0.2478 -0.0297
10028WAT    EPW40820   2.939   3.504   0.663 -0.3488  0.0019 -0.5298
10029WAT      O40821   2.063   5.893   7.909 -0.2246  0.3596 -0.1332
10029WAT     H140822   2.072   5.925   7.989 -0.7729 -0.5216  0.2848
10029WAT     H240823   2.043   5.809   7.921 -2.3213  0.6607 -1.1449
10029WAT    EPW40824   2.062   5.885   7.922 -0.2527 -0.1661  0.1971
10030WAT      O40825   0.207   2.831   0.943  0.1401  0.0917 -0.2110
10030WAT     H140826   0.160   2.762   0.918  1.2013 -1.5367  1.9786
10030WAT     H240827   0.148   2.883   0.981 -0.1762 -1.4216  1.5270
10030WAT    EPW40828   0.191   2.828   0.945 -0.3581  0.1906 -0.5306
10031WAT      O40829   4.146   4.808   6.589  0.0089  0.2072  0.2563
10031WAT     H140830   4.187   4.817   6.665  0.0440 -0.7710  0.3643
10031WAT     H240831   4.198   4.755   6.543 -0.4597  0.0514 -0.1057
10031WAT    EPW40832   4.159   4.802   6.593  0.4563  0.2062  0.3145
10032WAT      O40833   1.568   3.624   7.447  0.4648 -0.0836 -0.6435
10032WAT     H140834   1.553   3.690   7.503  2.0947  2.3001 -2.8026
10032WAT     H240835   1.568   3.553   7.498  0.0180  1.7245  2.0541
10032WAT    EPW40836   1.566   3.623   7.463  0.8500 -0.0377 -0.1907
10033WAT      O40837   5.492   0.844   1.524 -0.2432  0.4434 -0.6811
10033WAT     H140838   5.501   0.858   1.610 -0.8984 -0.3571 -0.4705
10033WAT     H240839   5.484   0.924   1.491  0.4821  0.7912 -0.0621
10033WAT    EPW40840   5.492   0.858   1.532 -0.3832 -0.4095 -0.6189
10034WAT      O40841   5.262   6.230   4.955  0.1792  0.0914 -0.3323
10034WAT     H140842   5.289   6.243   5.037  0.7775  1.2529 -0.6962
10034WAT     H240843   5.313   6.283   4.908 -0.0366 -0.6858 -1.4807
10034WAT    EPW40844   5.273   6.240   4.961  0.5486 -0.1879 -0.0494
10035WAT      O40845   5.242   5.399   0.948 -0.3373 -0.1662  0.0781
10035WAT     H140846   5.285   5.324   0.952  2.0944  1.0315 -1.3487
10035WAT     H240847   5.289   5.453   0.998 -0.4713  1.0613 -1.0610
10035WAT    EPW40848   5.255   5.396   0.956 -0.2777  0.0190  0.0378
10036WAT      O40849   4.525   4.544   5.081 -0.8985 -0.0847 -0.5875
10036WAT     H140850   4.559   4.619   5.051  0.5844  0.3085  1.7844
10036WAT     H240851   4.581   4.484   5.051  0.5522  0.3007  1.1528
10036WAT    EPW40852   4.539   4.546   5.072 -0.7440  0.6064 -0.5636
10037WAT      O40853   1.593   1.824   1.943  0.2981  0.1212  0.4704
10037WAT     H140854   1.568   1.813   1.860 -0.8816  1.7602  0.5547
10037WAT     H240855   1.587   1.744   1.977 -1.0701 -0.2452 -0.5531
10037WAT    EPW40856   1.588   1.810   1.936  0.4879 -0.1599 -0.4565
10038WAT      O40857   1.174   2.074   3.739 -0.0809 -0.0440  0.1366
10038WAT     H140858   1.120   2.091   3.805  0.9331  0.6602  0.8161
10038WAT     H240859   1.185   2.151   3.700 -0.5863 -0.4348 -0.8075
10038WAT    EPW40860   1.168   2.088   3.743  0.1477  0.1537 -0.0485
10039WAT      O40861   1.838   0.616   4.232 -0.3519  0.2574 -0.4056
10039WAT     H140862   1.813   0.582   4.308  0.7773 -0.6164 -0.4030
10039WAT     H240863   1.765   0.652   4.201 -0.6283  1.4689  1.5065
10039WAT    EPW40864   1.823   0.616   4.239 -0.2803  0.4732 -0.4783
10040WAT      O40865   0.991   5.897   0.320  0.2773  0.0484 -0.0625
10040WAT     H140866   1.027   5.967   0.283 -1.3883  0.4087 -1.0969
10040WAT     H240867   0.906   5.907   0.305 -0.3846 -0.4633  2.7474
10040WAT    EPW40868   0.984   5.909   0.313 -0.0402  0.1583  0.0906
10041WAT      O40869   5.622   3.174   7.818  0.1758  0.0515 -0.1176
10041WAT     H140870   5.705   3.172   7.791 -0.1098  0.7180 -1.1065
10041WAT     H240871   5.579   3.132   7.755 -0.6146  2.2953 -1.1912
10041WAT    EPW40872   5.628   3.167   7.805  0.5991 -0.5729  0.1722
10042WAT      O40873   2.543   3.316   0.393 -0.1511  0.0708 -0.1464
10042WAT     H140874   2.520   3.285   0.471  1.7002 -0.2275  0.3458
10042WAT     H240875   2.528   3.249   0.339  0.3814 -0.4209  0.2992
10042WAT    EPW40876   2.538   3.302   0.396  0.1097  0.2132 -0.0038
10043WAT      O40877   3.733   4.116   6.483  0.2699 -0.5140 -0.3727
10043WAT     H140878   3.761   4.033   6.481  3.4397  0.4241 -1.3221
10043WAT     H240879   3.807   4.162   6.496 -0.7534  2.3259 -3.3476
10043WAT    EPW40880   3.748   4.110   6.485 -0.4417  0.5452  0.3367
10044WAT      O40881   1.778   4.943   7.584 -0.8037  0.8028  0.1285
10044WAT     H140882   1.848   4.936   7.533 -0.9168  2.9645 -0.3984
10044WAT     H240883   1.761   5.028   7.585 -2.9264  0.4370  0.9528
10044WAT    EPW40884   1.786   4.954   7.577  0.8624  0.2719 -0.0520
10045WAT      O40885   4.649   1.589   7.498 -0.4457  0.5506  0.6669
10045WAT     H140886   4.701   1.520   7.509 -0.3990  0.5924  0.7111
10045WAT     H240887   4.679   1.646   7.557  0.5114  1.2013 -0.4030
10045WAT    EPW40888   4.661   1.587   7.509 -0.0862 -0.1300  0.2096
10046WAT      O40889   2.517   3.214   5.406 -0.3213 -0.0203  0.0491
10046WAT     H140890   2.504   3.254   5.329 -0.5968  0.5820  0.4019
10046WAT     H240891   2.595   3.244   5.431 -1.1939  1.5824  1.0577
10046WAT    EPW40892   2.527   3.225   5.398 -0.5478 -0.4832  0.0253
10047WAT      O40893   3.201   0.906   0.918  0.1468  0.4461 -0.3720
10047WAT     H140894   3.199   0.934   0.836 -0.2121  0.5523 -0.3286
10047WAT     H240895   3.129   0.940   0.953 -0.1327 -0.2724 -0.2326
10047WAT    EPW40896   3.190   0.916   0.911  0.2714  0.1715 -0.2569
10048WAT      O40897   2.995   3.107   5.376 -0.4600  0.1668 -0.0510
10048WAT     H140898   3.030   3.085   5.452 -0.0099 -0.2010 -0.3548
10048WAT     H240899   3.041   3.177   5.351 -0.5127  0.2004 -0.0559
10048WAT    EPW40900   3.007   3.114   5.383 -0.0885  0.1858  0.0481
10049WAT      O40901   2.954   6.086   7.909  0.8334  0.0977 -0.0450
10049WAT     H140902   2.875   6.064   7.940 -0.4093  1.3680 -2.0963
10049WAT     H240903   3.000   6.104   7.981 -0.8960 -0.1888  1.1888
10049WAT    EPW40904   2.949   6.085   7.924  0.3353 -0.3257  0.1868
10050WAT      O40905   6.428   0.036   4.073 -0.0807 -0.4013 -0.0204
10050WAT     H140906   6.453   0.015   4.154 -1.7779  0.3582  0.7620
10050WAT     H240907   6.477   0.105   4.054  1.8930 -1.8621 -0.5749
10050WAT    EPW40908   6.439   0.043   4.082 -0.3923 -0.2342 -0.1337
10051WAT      O40909   2.669   2.491   6.997 -0.1089 -0.0130  0.7281
10051WAT     H140910   2.637   2.570   7.014  1.0900  0.5937  0.2680
10051WAT     H240911   2.598   2.441   6.988 -0.8676  0.9608  1.2603
10051WAT    EPW40912   2.654   2.495   6.998  0.0921  0.3033  0.2588
10052WAT      O40913   2.259   0.316   3.121 -0.1673  0.0848 -0.3010
10052WAT     H140914   2.258   0.323   3.208 -1.4779 -0.4626 -0.2497
10052WAT     H240915   2.258   0.398   3.093  1.8134  0.3126  0.1698
10052WAT    EPW40916   2.259   0.329   3.130 -0.0595  0.1330  0.2656
10053WAT      O40917   5.761   3.143   7.322  0.0349  0.2757  0.0088
10053WAT     H140918   5.844   3.127   7.341 -0.0337 -0.6212 -0.3974
10053WAT     H240919   5.741   3.081   7.264 -0.0027  2.4080 -2.4070
10053WAT    EPW40920   5.770   3.131   7.316  0.9053 -0.3927 -0.9845
10054WAT      O40921   1.748   4.258   7.200 -0.6685 -0.2188  0.0770
10054WAT     H140922   1.809   4.205   7.167  0.0872  0.4020  0.4283
10054WAT     H240923   1.678   4.243   7.151  0.5610  1.1110 -2.2930
10054WAT    EPW40924   1.747   4.248   7.188  0.2020 -0.3342  0.1417
10055WAT      O40925   2.409   1.473   0.367  0.5230  0.2020 -0.0265
10055WAT     H140926   2.405   1.391   0.397 -1.9015  0.9431  2.1009
10055WAT     H240927   2.356   1.471   0.297  2.1064 -0.4258 -1.2590
10055WAT    EPW40928   2.400   1.460   0.361  0.0972 -0.2668 -0.8593
10056WAT      O40929   1.985   5.597   2.432  0.3222 -0.0208 -0.1374
10056WAT     H140930   2.042   5.659   2.408  0.3796  0.3666  0.9560
10056WAT     H240931   1.915   5.613   2.383 -0.0131  1.5057  0.7665
10056WAT    EPW40932   1.983   5.609   2.421  0.5167  0.1952  0.2273
10057WAT      O40933   3.578   1.670   6.199 -0.1456 -0.1291  0.0868
10057WAT     H140934   3.492   1.679   6.187 -0.3445 -0.0837  1.4010
10057WAT     H240935   3.599   1.601   6.150 -1.0131 -0.3876  0.0729
10057WAT    EPW40936   3.569   1.661   6.190 -0.1101 -0.0353  0.2675
10058WAT      O40937   2.104   4.439   3.751 -0.2268 -0.3499 -0.7581
10058WAT     H140938   2.099   4.381   3.687  0.8668  0.7871 -1.9403
10058WAT     H240939   2.159   4.402   3.808  2.0461  0.2237 -2.4054
10058WAT    EPW40940   2.111   4.425   3.750  0.5807  0.3553  0.3291
10059WAT      O40941   1.793   7.667   4.122  0.1130  0.2592 -0.3803
10059WAT     H140942   1.872   7.686   4.091  0.5706 -0.9595 -0.0282
10059WAT     H240943   1.745   7.652   4.051  0.0216  1.5170 -0.6212
10059WAT    EPW40944   1.797   7.668   4.107  0.1911 -0.1792  0.4721
10060WAT      O40945   1.063   4.062   5.066 -0.0328 -0.4792 -0.6569
10060WAT     H140946   1.141   4.045   5.030 -0.7197 -1.6165 -1.6756
10060WAT     H240947   1.026   4.117   5.008  0.5036  1.1937  0.5046
10060WAT    EPW40948   1.069   4.068   5.052  0.0992  0.1112  0.1898
10061WAT      O40949   2.910   3.835   4.959 -0.1921 -0.3446  0.2012
10061WAT     H140950   2.928   3.915   4.929 -1.0715 -0.5933 -1.0721
10061WAT     H240951   2.880   3.849   5.039 -1.6977  0.7695 -0.5078
10061WAT    EPW40952   2.908   3.849   4.966 -0.5269 -0.6596 -0.3680
10062WAT      O40953   3.193   1.362   4.668  0.1705  0.1427  0.0528
10062WAT     H140954   3.209   1.295   4.722  0.5878  0.0098 -0.2379
10062WAT     H240955   3.115   1.342   4.633 -0.1585  0.2802  0.6757
10062WAT    EPW40956   3.184   1.349   4.671  0.1955 -0.5555 -0.3555
10063WAT      O40957   2.695   3.830   4.696 -0.2702 -0.0293 -0.4573
10063WAT     H140958   2.720   3.777   4.761 -1.8710  1.0262  1.1199
10063WAT     H240959   2.762   3.827   4.640  0.3393 -2.4770  0.2921
10063WAT    EPW40960   2.709   3.822   4.697  0.4373 -0.1606  0.1842
10064WAT      O40961   2.805   6.042   2.528 -0.0978  0.4242 -0.3377
10064WAT     H140962   2.868   6.099   2.506 -0.5984  1.0197 -0.2408
10064WAT     H240963   2.850   5.975   2.561  0.4535  1.4775  1.1897
10064WAT    EPW40964   2.821   6.040   2.530  0.0188 -0.1813  0.2620
10065WAT      O40965   2.592   3.426   4.672  0.1352  0.2439  0.0469
10065WAT     H140966   2.634   3.451   4.600  0.3410  3.8797  1.2158
10065WAT     H240967   2.656   3.422   4.732 -0.3013 -0.9140  0.4649
10065WAT    EPW40968   2.608   3.429   4.670 -0.1463 -0.1221 -0.0828
10066WAT      O40969   1.876   5.663   6.155  0.3485  0.0906 -0.5088
10066WAT     H140970   1.841   5.587   6.183  2.0972 -0.6920 -0.3226
10066WAT     H240971   1.876   5.712   6.227 -1.1688  0.4520 -0.7199
10066WAT    EPW40972   1.871   5.659   6.170  0.2249 -0.3689 -0.0870
10067WAT      O40973   1.120   3.031   5.419  0.2021 -0.2476  0.1354
10067WAT     H140974   1.125   3.118   5.414 -1.3308  0.0505  2.4379
10067WAT     H240975   1.153   3.013   5.498 -1.0989 -1.5648  0.4113
10067WAT    EPW40976   1.126   3.041   5.430 -0.0888  0.3773 -0.3038
10068WAT      O40977   4.836   1.378   7.642 -0.2722  0.7194  0.2891
10068WAT     H140978   4.868   1.450   7.679 -0.7956  2.6457 -2.6346
10068WAT     H240979   4.907   1.336   7.613 -0.0152  0.4146  1.3035
10068WAT    EPW40980   4.851   1.383   7.643 -0.2362 -0.2774 -0.2772
10069WAT      O40981   1.061   7.181   0.784  0.3207  0.0719 -0.5933
10069WAT     H140982   1.088   7.143   0.710 -1.4462 -0.4705 -1.0049
10069WAT     H240983   1.092   7.128   0.846  2.8871  1.1902 -0.7985
10069WAT    EPW40984   1.070   7.167   0.782  0.2742 -0.4719 -0.1302
10070WAT      O40985   3.871   6.119   0.467 -0.1161 -0.6466 -0.5632
10070WAT     H140986   3.876   6.105   0.381  0.0410 -1.8016 -0.3835
10070WAT     H240987   3.919   6.054   0.500  0.0424 -0.0528  0.3880
10070WAT    EPW40988   3.879   6.107   0.459 -0.1404  0.0877 -0.1829
10071WAT      O40989   1.724   0.690   1.031 -0.0373 -0.3013  0.5054
10071WAT     H140990   1.762   0.759   1.068  0.5677 -1.4408  2.1639
10071WAT     H240991   1.706   0.638   1.099 -1.2952 -1.3843 -0.5977
10071WAT    EPW40992   1.727   0.692   1.047 -0.6089  0.2988  0.5472
10072WAT      O40993   4.763   0.855   7.285 -0.0303 -0.5408 -0.5813
10072WAT     H140994   4.695   0.898   7.254  1.0383  1.3973 -0.3636
10072WAT     H240995   4.761   0.870   7.371 -0.0813 -1.6320 -0.3654
10072WAT    EPW40996   4.753   0.863   7.293 -0.2973  0.3179  0.0742
10073WAT      O40997   0.730   2.823   5.163  0.1735 -0.4755 -0.2048
10073WAT     H140998   0.817   2.832   5.167  0.1298 -0.0088 -0.2791
10073WAT     H240999   0.720   2.744   5.129  0.5661 -0.9539  0.7487
10073WAT    EPW41000   0.741   2.813   5.159  0.2240  0.9229 -0.5103
10074WAT      O41001   4.412   6.981   0.738 -0.3982  0.3153 -0.1675
10074WAT     H141002   4.383   6.981   0.656  2.1199  0.1214 -1.1603
10074WAT     H241003   4.443   7.062   0.749  3.3850 -0.7542 -1.1835
10074WAT    EPW41004   4.412   6.993   0.727 -0.1929 -0.1148  0.0292
10075WAT      O41005   2.891   4.433   4.051  0.6744 -0.0701 -0.3081
10075WAT     H141006   2.956   4.457   3.998  0.4935  0.0340 -0.4850
10075WAT     H241007   2.828   4.406   3.996  0.5617 -0.1527 -0.1407
10075WAT    EPW41008   2.891   4.433   4.035 -0.2436 -0.2234 -0.7755
10076WAT      O41009   3.334   6.351   0.223  0.0448 -0.1836  0.4739
10076WAT     H141010   3.370   6.329   0.299 -2.4367 -1.8189  1.2839
10076WAT     H241011   3.380   6.305   0.165  2.8571  2.1061  0.6817
10076WAT    EPW41012   3.346   6.341   0.226  0.1669 -0.7507 -0.3576
10077WAT      O41013   2.500   1.852   0.337  0.5446 -0.4163  0.0062
10077WAT     H141014   2.577   1.893   0.336  0.4953 -0.3216  0.1579
10077WAT     H241015   2.477   1.853   0.253  1.0188 -1.0333 -0.1351
10077WAT    EPW41016   2.508   1.858   0.324 -0.1313  0.1947  0.2573
10078WAT      O41017   8.107   4.736   1.706 -0.1335  0.3952 -0.4557
10078WAT     H141018   8.079   4.724   1.624 -1.4062  1.0856 -0.1463
10078WAT     H241019   8.078   4.665   1.748  0.0965  0.2755 -0.4976
10078WAT    EPW41020   8.099   4.724   1.700  0.3046 -0.0124  0.3027
10079WAT      O41021   3.882   1.322   5.129 -0.0692  0.5203 -0.2669
10079WAT     H141022   3.826   1.268   5.168 -1.3991  1.7362 -0.3634
10079WAT     H241023   3.954   1.275   5.120 -0.7580 -0.8088  0.7727
10079WAT    EPW41024   3.884   1.307   5.133  0.5163 -0.2543  0.3027
10080WAT      O41025   6.095   5.489   4.458  0.4419 -0.6390  0.4008
10080WAT     H141026   6.105   5.496   4.372 -0.4297  1.8132  0.4255
10080WAT     H241027   6.142   5.419   4.479 -0.6564 -2.3021 -2.2588
10080WAT    EPW41028   6.104   5.480   4.449  0.5294  0.2203  0.0747
10081WAT      O41029   1.511   5.625   5.338  0.0757  0.2440 -0.1694
10081WAT     H141030   1.577   5.629   5.395  0.2090  2.8757 -0.3813
10081WAT     H241031   1.467   5.554   5.362  4.4755 -3.5794 -1.8278
10081WAT    EPW41032   1.515   5.615   5.350  0.2336  0.0169 -0.3489
10082WAT      O41033   5.541   6.782   0.853  0.1413  0.1881  0.1109
10082WAT     H141034   5.585   6.720   0.810 -1.1513 -0.1210 -0.8280
10082WAT     H241035   5.461   6.778   0.819 -0.5836  0.8506  1.6432
10082WAT    EPW41036   5.536   6.772   0.841 -0.0154 -0.3393 -0.6140
10083WAT      O41037   2.741   1.801   2.029 -0.0965 -0.3755  0.0824
10083WAT     H141038   2.690   1.826   1.963  1.9570  0.4962 -1.2635
10083WAT     H241039   2.803   1.754   1.991  1.5742  0.7726  1.2439
10083WAT    EPW41040   2.742   1.798   2.014 -0.2698  0.6212 -0.0094
10084WAT      O41041   1.985   5.860   3.692  0.3098  0.5748 -0.0066
10084WAT     H141042   1.934   5.900   3.750  0.0553 -0.4919  0.5213
10084WAT     H241043   2.022   5.795   3.738 -0.6079 -0.8764 -1.2273
10084WAT    EPW41044   1.983   5.856   3.707  0.1482 -0.1139 -0.2122
10085WAT      O41045   5.850   4.276   5.827 -0.1447  1.0331 -0.3081
10085WAT     H141046   5.882   4.282   5.746  0.9125  0.8837  0.0839
10085WAT     H241047   5.894   4.209   5.862 -0.3093  1.3374  0.5047
10085WAT    EPW41048   5.861   4.267   5.820 -0.8031 -0.7034 -0.4784
10086WAT      O41049   4.459   6.736   1.095  0.0820 -0.2861 -0.3921
10086WAT     H141050   4.390   6.683   1.093  0.5490 -0.8948 -0.7698
10086WAT     H241051   4.500   6.720   1.020 -0.4095  1.5204 -1.1102
10086WAT    EPW41052   4.455   6.726   1.084  0.2848  0.0063 -0.3132
10087WAT      O41053   1.663   0.234   5.759  0.5030 -0.2516 -0.1607
10087WAT     H141054   1.696   0.213   5.681  1.9849  0.5767  0.2047
10087WAT     H241055   1.734   0.247   5.809 -0.3920  0.4640  0.9886
10087WAT    EPW41056   1.678   0.233   5.755  0.2616  0.2093  0.0866
10088WAT      O41057   2.343   3.682   4.005  0.4543 -0.0421 -0.4737
10088WAT     H141058   2.406   3.739   3.985 -0.0321  0.2929 -1.0781
10088WAT     H241059   2.364   3.656   4.086  0.7797  0.8636 -0.2538
10088WAT    EPW41060   2.356   3.687   4.014  1.0272 -0.0572 -0.2729
10089WAT      O41061   3.645   4.311   6.083  0.2092  0.7518 -0.6892
10089WAT     H141062   3.638   4.397   6.093 -0.8663  0.7480 -1.2128
10089WAT     H241063   3.594   4.279   6.146  0.8439  0.4795 -0.3029
10089WAT    EPW41064   3.636   4.319   6.093 -0.0948  0.7468 -0.5229
10090WAT      O41065   3.453   4.298   5.883  0.7731 -0.4114 -0.4668
10090WAT     H141066   3.514   4.325   5.826  0.8809 -0.8522 -0.5672
10090WAT     H241067   3.496   4.295   5.959  1.1679 -1.6982 -0.7153
10090WAT    EPW41068   3.469   4.301   5.886 -0.4740 -0.3357 -0.3938
10091WAT      O41069   3.740   4.446   7.978 -0.3682 -0.2171  0.5280
10091WAT     H141070   3.756   4.522   7.939 -0.2444  0.5710  2.0781
10091WAT     H241071   3.659   4.426   7.950 -0.1039  0.0682 -0.4967
10091WAT    EPW41072   3.730   4.454   7.968 -0.4639 -0.4874 -0.0134
10092WAT      O41073   2.408   4.430   5.993 -0.0081 -0.0053 -0.2029
10092WAT     H141074   2.375   4.509   5.978 -0.7069  0.3362  2.6978
10092WAT     H241075   2.413   4.425   6.080  3.5655 -1.7179 -0.2968
10092WAT    EPW41076   2.404   4.441   6.004 -0.2705 -0.4174 -0.6144
10093WAT      O41077   1.754   6.074   5.690  0.0303  0.2063  0.3789
10093WAT     H141078   1.809   6.076   5.757  0.0353 -0.2566  0.3894
10093WAT     H241079   1.749   6.157   5.665 -0.8301  0.5653  1.6483
10093WAT    EPW41080   1.761   6.086   5.696 -0.2346 -0.1315 -0.4667
10094WAT      O41081   4.417   4.073   0.507 -0.3297  0.0950  0.3766
10094WAT     H141082   4.336   4.051   0.483 -0.4989  1.0190  0.0508
10094WAT     H241083   4.403   4.136   0.566  0.1557  1.0827 -0.5284
10094WAT    EPW41084   4.403   4.079   0.512  0.5973 -0.0902 -0.1658
10095WAT      O41085   3.718   0.754   6.413 -0.6015  0.2928 -0.3279
10095WAT     H141086   3.632   0.770   6.412 -0.9663 -1.3908 -2.4682
10095WAT     H241087   3.728   0.699   6.479 -0.9528  1.3147  0.6108
10095WAT    EPW41088   3.707   0.748   6.423 -0.3155 -0.1201 -0.3035
10096WAT      O41089   4.070   0.811   1.686  0.2009  0.2415 -0.5729
10096WAT     H141090   4.091   0.756   1.750 -0.8886 -0.7766 -1.0503
10096WAT     H241091   4.147   0.837   1.655  0.8076 -2.2502 -1.3666
10096WAT    EPW41092   4.084   0.807   1.691  0.2333  0.1061 -0.2136
10097WAT      O41093   4.585   2.811   5.953 -0.3295 -0.4095 -0.6401
10097WAT     H141094   4.632   2.737   5.958 -0.3622 -0.4524 -0.9062
10097WAT     H241095   4.576   2.835   6.036  0.8756  0.0603 -0.6216
10097WAT    EPW41096   4.591   2.803   5.966 -1.3585 -0.0511 -0.7848
10098WAT      O41097   5.571   5.437   6.464  0.3660 -0.0927 -0.2768
10098WAT     H141098   5.505   5.402   6.420 -0.6279  0.9553  0.3199
10098WAT     H241099   5.593   5.375   6.521 -0.4531 -0.2542 -0.1317
10098WAT    EPW41100   5.565   5.423   6.466  0.1180 -0.0900  0.2866
10099WAT      O41101   4.531   4.611   5.351 -0.2743 -0.2932  0.1607
10099WAT     H141102   4.452   4.648   5.353  0.4524  1.3277  0.1771
10099WAT     H241103   4.531   4.566   5.277 -0.9236  0.3774 -0.2555
10099WAT    EPW41104   4.519   4.610   5.341  0.5794 -0.0119 -0.7043
10100WAT      O41105   5.139   5.950   4.041 -0.0668  0.3418 -0.0994
10100WAT     H141106   5.134   6.001   4.111 -1.5896  2.4839 -1.6431
10100WAT     H241107   5.219   5.964   4.010  0.2147  0.2366  0.5493
10100WAT    EPW41108   5.150   5.959   4.047  0.2080 -0.1450  0.2377
10101WAT      O41109   2.247   6.061   6.520  0.0973  0.0273 -0.0632
10101WAT     H141110   2.198   6.026   6.584  1.3609  1.4008  1.7699
10101WAT     H241111   2.328   6.042   6.545  0.6379  1.0340 -1.0088
10101WAT    EPW41112   2.251   6.053   6.533  0.7490  0.5935  0.9346
10102WAT      O41113   2.869   4.793   0.476  0.0936  0.3262 -0.0291
10102WAT     H141114   2.866   4.835   0.400  0.4065  0.4991  0.0531
10102WAT     H241115   2.790   4.807   0.510 -0.3154 -0.3784 -0.6505
10102WAT    EPW41116   2.857   4.801   0.470  0.3783 -0.4901 -0.6469
10103WAT      O41117   2.259   4.103   3.402  0.1352  0.2334  0.0023
10103WAT     H141118   2.299   4.038   3.444 -1.8979 -0.2992  1.2579
10103WAT     H241119   2.306   4.173   3.424  0.8039 -0.4347  0.8027
10103WAT    EPW41120   2.272   4.104   3.411 -0.7470  0.0236  0.2273
10104WAT      O41121   2.576   2.735   2.080 -0.2466 -0.1097 -0.0859
10104WAT     H141122   2.542   2.763   2.155 -0.0074 -2.4197  0.9777
10104WAT     H241123   2.640   2.793   2.063  1.6577 -1.0407  3.1041
10104WAT    EPW41124   2.581   2.748   2.088  0.0737 -0.0911  0.3557
10105WAT      O41125   2.588   4.686   3.732  0.1478 -0.4921 -0.0681
10105WAT     H141126   2.553   4.663   3.809  0.2214 -1.4394 -0.2977
10105WAT     H241127   2.610   4.609   3.697  2.7983  0.0273  0.2217
10105WAT    EPW41128   2.586   4.671   3.739 -0.0930  0.1252 -0.7229
10106WAT      O41129   0.811   4.298   5.219 -0.1570 -0.2957 -0.2984
10106WAT     H141130   0.803   4.216   5.190 -1.4814 -0.5117  0.5833
10106WAT     H241131   0.842   4.341   5.150  1.2266 -1.6417 -0.5857
10106WAT    EPW41132   0.815   4.292   5.205  0.1725 -0.1203 -0.0119
10107WAT      O41133   2.893   5.330   5.505 -0.1163  0.3273 -0.3058
10107WAT     H141134   2.903   5.415   5.486  0.2609  0.4239  0.3136
10107WAT     H241135   2.910   5.325   5.590  0.4737 -0.4645 -0.4529
10107WAT    EPW41136   2.897   5.342   5.515 -0.0760  0.3908  0.5711
10108WAT      O41137   7.057   5.668   0.754  0.1750 -0.1248  0.1652
10108WAT     H141138   7.135   5.629   0.754  0.9072  1.2634 -0.5758
10108WAT     H241139   7.028   5.656   0.672 -1.6654 -2.9475  1.0985
10108WAT    EPW41140   7.064   5.661   0.742  0.4133 -0.1787 -0.6646
10109WAT      O41141   5.557   4.673   1.564  0.0807 -0.0304 -0.0266
10109WAT     H141142   5.540   4.730   1.501 -1.7717  0.9688  1.2855
10109WAT     H241143   5.564   4.597   1.522  1.7296  0.9582 -1.7140
10109WAT    EPW41144   5.556   4.670   1.548  0.2141  0.3455  0.1892
10110WAT      O41145   2.891   0.827   6.926 -0.3474  0.0520 -0.0260
10110WAT     H141146   2.907   0.911   6.909 -1.1225  0.3453  0.6475
10110WAT     H241147   2.971   0.793   6.935 -0.0322  0.9625  0.8490
10110WAT    EPW41148   2.905   0.834   6.925  0.4514  0.2900  0.0781
10111WAT      O41149   2.934   4.984   5.074  0.7873  0.1868  0.5623
10111WAT     H141150   2.963   5.035   5.139  3.2064  0.6611 -0.7724
10111WAT     H241151   2.968   4.906   5.092  0.9163  0.1616  0.2184
10111WAT    EPW41152   2.944   4.980   5.086 -0.7200 -0.7765  0.0541
10112WAT      O41153   2.229   0.895   2.445 -0.0902 -0.1006  0.5270
10112WAT     H141154   2.156   0.928   2.480  0.2944  0.5770  0.6945
10112WAT     H241155   2.293   0.940   2.483  0.3766 -0.0161 -0.3189
10112WAT    EPW41156   2.228   0.907   2.456  0.5646  0.0130  0.3786
10113WAT      O41157   7.672   4.158   4.263 -0.0660 -0.6226 -0.3401
10113WAT     H141158   7.598   4.203   4.254 -0.6163 -1.7701 -1.8628
10113WAT     H241159   7.722   4.211   4.312 -0.6485  1.6822 -2.0393
10113WAT    EPW41160   7.669   4.173   4.269  0.6416 -1.1218 -0.2448
10114WAT      O41161   2.081   3.599   1.707 -0.2275  0.0592 -0.1457
10114WAT     H141162   2.146   3.657   1.716  0.7056 -0.8002 -1.0252
10114WAT     H241163   2.051   3.614   1.626  0.9247 -1.5043 -0.9249
10114WAT    EPW41164   2.086   3.610   1.696  0.2043  0.4362  0.1559
10115WAT      O41165   1.979   2.910   5.505 -0.2678 -0.0839  0.1987
10115WAT     H141166   1.974   2.996   5.493  0.7760  0.2895  2.1341
10115WAT     H241167   2.054   2.899   5.547  0.3735 -2.1357 -1.2836
10115WAT    EPW41168   1.989   2.921   5.509  0.1192 -0.2409  0.6901
10116WAT      O41169   2.418   2.322   6.510 -0.4104  0.1683 -0.5402
10116WAT     H141170   2.450   2.257   6.462 -2.3667 -2.1477  1.0656
10116WAT     H241171   2.482   2.382   6.509  2.5908 -2.7621 -0.1008
10116WAT    EPW41172   2.432   2.322   6.503  0.2754  0.9690 -0.4212
10117WAT      O41173   2.065   4.686   7.235 -0.0150  0.1541 -0.4385
10117WAT     H141174   2.019   4.618   7.206 -0.0367 -0.7010  1.4446
10117WAT     H241175   2.016   4.755   7.215 -0.6862 -0.5033 -1.0877
10117WAT    EPW41176   2.051   4.687   7.228 -0.4746 -0.7395 -0.0983
10118WAT      O41177   2.182   0.219   5.710  0.3303 -0.2057  0.1994
10118WAT     H141178   2.160   0.144   5.750 -3.0363  0.2093 -0.5148
10118WAT     H241179   2.218   0.266   5.774 -2.3194 -0.6027  2.1885
10118WAT    EPW41180   2.184   0.215   5.725  0.5299 -0.1459  0.3758
10119WAT      O41181   1.130   3.538   3.755  0.1704 -0.5051 -0.4095
10119WAT     H141182   1.175   3.491   3.813 -1.4820 -2.5073 -0.6077
10119WAT     H241183   1.057   3.491   3.744 -0.9437  1.4187 -1.7698
10119WAT    EPW41184   1.126   3.524   3.762 -0.0567  0.1592  0.3906
10120WAT      O41185   4.299   7.658   2.223  0.6619 -0.0118 -0.2231
10120WAT     H141186   4.251   7.728   2.204  1.1844  0.0288 -1.4638
10120WAT     H241187   4.254   7.620   2.287  0.0855  1.1561  0.1003
10120WAT    EPW41188   4.285   7.663   2.230 -0.2167  0.0441 -0.5073
10121WAT      O41189   2.581   4.056   4.481  0.3063  0.2476 -0.0951
10121WAT     H141190   2.567   4.014   4.406 -0.1001 -0.3974  0.3322
10121WAT     H241191   2.541   4.006   4.541  0.5881  0.7695  0.5475
10121WAT    EPW41192   2.573   4.043   4.479  0.0010 -0.5189 -0.0603
10122WAT      O41193   2.558   7.734   3.109 -0.1557 -0.5369  0.4133
10122WAT     H141194   2.549   7.814   3.141  2.0711 -0.7804  1.9508
10122WAT     H241195   2.525   7.683   3.172  1.5840 -0.9052  1.0949
10122WAT    EPW41196   2.552   7.738   3.123  0.0353 -0.2992  0.1720
10123WAT      O41197   6.265   3.191   6.706  0.5845 -0.3682  0.0889
10123WAT     H141198   6.289   3.262   6.751 -1.3911  0.3246  0.1340
10123WAT     H241199   6.221   3.224   6.638 -1.2814 -1.5655  0.6713
10123WAT    EPW41200   6.262   3.207   6.702  0.1166  0.0461 -0.0991
10124WAT      O41201   2.131   3.399   1.929 -0.0815 -0.6179  0.2796
10124WAT     H141202   2.144   3.458   1.866  0.6471  0.2536  1.2241
10124WAT     H241203   2.046   3.379   1.921 -0.3787  0.6559  0.0285
10124WAT    EPW41204   2.120   3.404   1.919  0.0958 -0.2505 -0.0951
10125WAT      O41205   4.463   3.626   5.786 -0.5275 -0.3529 -0.2271
10125WAT     H141206   4.385   3.619   5.749 -0.4360 -0.7808 -0.3503
10125WAT     H241207   4.502   3.690   5.742 -0.7087 -0.3263 -0.3468
10125WAT    EPW41208   4.457   3.635   5.774 -0.2053  0.1172 -0.5537
10126WAT      O41209   2.107   4.097   7.221 -0.2727 -0.2931 -0.7327
10126WAT     H141210   2.138   4.178   7.215 -1.2183  0.2071  0.5973
10126WAT     H241211   2.077   4.081   7.141 -1.0427  1.1174 -0.7751
10126WAT    EPW41212   2.107   4.107   7.208  0.1627  0.7367 -0.0532
10127WAT      O41213   4.023   0.960   6.150 -0.1402  0.2850 -0.4854
10127WAT     H141214   3.988   0.973   6.228 -0.0244 -3.0445  0.2756
10127WAT     H241215   3.985   0.887   6.122  1.1789  0.3606 -2.7363
10127WAT    EPW41216   4.013   0.951   6.157  0.7171  0.1710 -0.3331
10128WAT      O41217   6.909   5.313   0.651 -0.0662  0.1880 -0.0295
10128WAT     H141218   6.838   5.355   0.680  0.9545  1.2823  1.0600
10128WAT     H241219   6.908   5.326   0.565 -0.7452  0.9192  0.0843
10128WAT    EPW41220   6.899   5.321   0.643  0.2281 -0.0044 -0.1832
10129WAT      O41221   5.559   7.019   7.462  0.1277  0.1371 -0.0683
10129WAT     H141222   5.609   7.090   7.453 -1.1148  0.8973 -1.6763
10129WAT     H241223   5.508   7.039   7.530  0.3952  0.3844  0.0641
10129WAT    EPW41224   5.559   7.033   7.471  0.1431 -0.1950  0.2910
10130WAT      O41225   3.389   0.745   7.229 -0.7953  0.1024  0.1388
10130WAT     H141226   3.345   0.804   7.182 -0.4652 -0.4600 -0.8901
10130WAT     H241227   3.329   0.684   7.245 -0.5239 -0.4288 -0.8452
10130WAT    EPW41228   3.374   0.745   7.224  0.0973 -0.2798  0.0079
10131WAT      O41229   2.683   4.411   5.055  0.1423  0.3024  0.5704
10131WAT     H141230   2.726   4.483   5.078  1.0176 -0.0693  0.1406
10131WAT     H241231   2.746   4.355   5.032 -0.5894 -0.1166 -0.4923
10131WAT    EPW41232   2.699   4.413   5.055 -0.8926  0.5188  0.1046
10132WAT      O41233   3.732   6.413   3.173  0.0185 -0.2901  0.2548
10132WAT     H141234   3.698   6.334   3.186 -0.0494 -0.4357 -0.7073
10132WAT     H241235   3.665   6.460   3.141  0.3957 -0.2357 -0.4821
10132WAT    EPW41236   3.717   6.409   3.170 -0.1311 -0.0578  0.0938
10133WAT      O41237   2.170   4.979   6.995 -0.5587 -0.9761  0.0296
10133WAT     H141238   2.165   5.032   6.925 -1.3527 -1.6908 -0.4726
10133WAT     H241239   2.221   5.023   7.050 -1.9502  0.7528  0.0163
10133WAT    EPW41240   2.177   4.993   6.993  0.4415  0.1344  0.2552
10134WAT      O41241   1.649   3.699   3.883  0.5283 -0.4393 -0.2968
10134WAT     H141242   1.705   3.636   3.860  0.9158 -0.2330  0.0678
10134WAT     H241243   1.696   3.750   3.936 -0.1577 -0.5471  0.4282
10134WAT    EPW41244   1.664   3.697   3.887  0.3801  0.1959 -0.0175
10135WAT      O41245   4.248   4.592   6.148 -0.1389  0.7673  0.1460
10135WAT     H141246   4.195   4.523   6.138  1.0170  0.1231 -2.1420
10135WAT     H241247   4.196   4.660   6.132 -0.3567  0.1433 -2.0746
10135WAT    EPW41248   4.232   4.592   6.144  0.6474 -0.3883  0.7964
10136WAT      O41249   2.305   0.467   2.493  0.3109 -0.3864  0.8163
10136WAT     H141250   2.319   0.482   2.408 -5.0294 -0.1824 -0.3316
10136WAT     H241251   2.306   0.380   2.500  1.2935 -0.3939  0.7477
10136WAT    EPW41252   2.308   0.457   2.482  0.5705  0.1783 -0.2115
10137WAT      O41253   3.132   3.828   7.235  0.0808  0.4915 -0.0564
10137WAT     H141254   3.119   3.765   7.176 -0.1922  1.7226 -1.3751
10137WAT     H241255   3.065   3.882   7.221  0.7851  1.5063  0.4358
10137WAT    EPW41256   3.120   3.827   7.224 -0.2314 -0.1967  0.6429
10138WAT      O41257   2.794   3.611   4.815  0.0915  0.1343  0.2553
10138WAT     H141258   2.852   3.651   4.867 -0.6135  0.3050  0.9367
10138WAT     H241259   2.732   3.584   4.870  0.2459 -1.3899 -0.2610
10138WAT    EPW41260   2.793   3.613   4.831 -0.4031 -0.1267 -0.3150
10139WAT      O41261   7.255   6.364   2.770 -0.0002 -0.5405 -0.7800
10139WAT     H141262   7.341   6.382   2.776 -0.1226  0.2269 -1.2399
10139WAT     H241263   7.243   6.305   2.833  0.0988  2.2973  2.1918
10139WAT    EPW41264   7.266   6.358   2.780 -0.1798 -0.6485  0.1247
10140WAT      O41265   3.007   6.702   6.328 -0.6442 -0.9741 -0.3373
10140WAT     H141266   2.965   6.684   6.403 -0.1742  0.1323  0.2308
10140WAT     H241267   2.945   6.693   6.267 -1.6243  0.1803  0.4334
10140WAT    EPW41268   2.992   6.698   6.330  0.4748 -0.2411  0.3214
10141WAT      O41269   2.854   3.515   5.627 -0.1108  0.0701 -0.1816
10141WAT     H141270   2.826   3.585   5.582  1.0864  0.7657  0.1390
10141WAT     H241271   2.941   3.521   5.624  0.0363 -1.5602 -0.3731
10141WAT    EPW41272   2.862   3.526   5.620 -0.5699  0.6560  0.6765
10142WAT      O41273   2.644   3.049   6.591 -0.5739  0.4451  0.3610
10142WAT     H141274   2.688   3.065   6.664 -1.2313 -0.0808  0.8873
10142WAT     H241275   2.614   2.968   6.602 -1.0863  0.5348 -0.2785
10142WAT    EPW41276   2.646   3.039   6.604 -0.7588 -0.5183  0.2521
10143WAT      O41277   1.444   0.783   7.200  0.1965 -0.1647 -0.5378
10143WAT     H141278   1.369   0.741   7.215  1.5664 -2.8461 -0.5564
10143WAT     H241279   1.503   0.736   7.244  1.9067  1.8396 -0.5303
10143WAT    EPW41280   1.441   0.770   7.208 -0.5462  1.0736  0.3969
10144WAT      O41281   5.043   3.481   4.999 -0.4480 -0.4839 -0.0267
10144WAT     H141282   5.065   3.399   4.976  0.5199  0.0749 -1.2046
10144WAT     H241283   5.019   3.518   4.923 -1.2671  0.2214  0.5578
10144WAT    EPW41284   5.043   3.474   4.984 -0.2257  0.0469 -0.0482
10145WAT      O41285   0.944   5.692   0.839 -0.7975  0.2757 -0.3355
10145WAT     H141286   1.022   5.707   0.804  0.4772  1.2163  2.5196
10145WAT     H241287   0.939   5.605   0.844 -1.1454  0.0952 -2.8335
10145WAT    EPW41288   0.955   5.681   0.835  0.1111  0.0628  0.7460
10146WAT      O41289   5.081   4.604   3.603 -0.2332 -0.2541 -0.6431
10146WAT     H141290   5.019   4.659   3.630  0.1816 -0.4181  0.7479
10146WAT     H241291   5.061   4.530   3.645  0.3662 -0.5686 -0.9052
10146WAT    EPW41292   5.069   4.601   3.613 -0.1587 -0.2440  0.2187
10147WAT      O41293   3.603   3.285   0.215 -0.3587  0.1934  0.2453
10147WAT     H141294   3.641   3.318   0.287 -0.5657  0.0119  0.4429
10147WAT     H241295   3.567   3.211   0.244 -2.2199  1.1161  0.4462
10147WAT    EPW41296   3.603   3.279   0.230  0.2192 -0.1213 -0.1257
10148WAT      O41297   6.064   2.586   6.339  0.4351  0.1597 -0.0695
10148WAT     H141298   6.048   2.500   6.340 -1.0748  0.4119  0.5670
10148WAT     H241299   6.111   2.597   6.266  1.3048 -1.2925  0.2209
10148WAT    EPW41300   6.069   2.575   6.328  0.1555 -0.2277  0.4855
10149WAT      O41301   2.544   4.880   5.184  0.3858 -0.3226  0.2053
10149WAT     H141302   2.564   4.948   5.134  0.8102  0.7020  1.7133
10149WAT     H241303   2.609   4.824   5.169  0.8470  0.2397  0.0742
10149WAT    EPW41304   2.557   4.881   5.175  0.3391  0.2584  0.5196
10150WAT      O41305   4.221   4.993   7.619 -0.4497 -0.0803 -0.5358
10150WAT     H141306   4.212   5.060   7.565 -0.5016 -0.4571 -1.0057
10150WAT     H241307   4.176   4.929   7.580  0.6927 -0.7738 -0.7693
10150WAT    EPW41308   4.213   4.993   7.605  0.0502 -0.2606 -0.5386
10151WAT      O41309   3.521   5.568   1.179 -0.5050 -0.2745 -0.3402
10151WAT     H141310   3.594   5.615   1.186  0.4507 -1.9083  1.2340
10151WAT     H241311   3.503   5.545   1.261 -2.0404 -1.0507 -0.8612
10151WAT    EPW41312   3.529   5.572   1.192 -0.1583 -0.1987 -0.1236
10152WAT      O41313   1.480   6.124   5.042 -0.2424  0.3071 -0.0474
10152WAT     H141314   1.533   6.108   5.110  1.0452 -1.9652 -1.4601
10152WAT     H241315   1.522   6.189   4.999  0.5307 -0.2891 -0.2240
10152WAT    EPW41316   1.494   6.131   5.045  0.3575  0.1814 -0.5854
10153WAT      O41317   2.605   3.654   5.449 -0.3279 -0.2868  0.0901
10153WAT     H141318   2.680   3.697   5.441 -1.7508  2.0756 -1.5907
10153WAT     H241319   2.588   3.659   5.535  1.1050 -0.3405  0.4023
10153WAT    EPW41320   2.614   3.661   5.461 -0.3039  0.1762  0.7075
10154WAT      O41321   4.750   2.504   7.174 -0.6191  0.3344 -0.0245
10154WAT     H141322   4.784   2.451   7.113  1.3179  0.5244  0.8425
10154WAT     H241323   4.667   2.477   7.180 -0.6469 -0.2217 -2.1443
10154WAT    EPW41324   4.743   2.492   7.166  0.4216  0.3861 -0.1696
10155WAT      O41325   3.524   5.010   3.698  0.0527 -0.2200 -0.3310
10155WAT     H141326   3.569   4.988   3.626  1.5780  1.3163  0.0910
10155WAT     H241327   3.558   4.958   3.759 -0.0587 -0.3336 -0.3631
10155WAT    EPW41328   3.535   4.999   3.696  0.0687  0.1198 -0.1957
10156WAT      O41329   1.984   2.946   7.010 -0.3008  0.2111  0.1793
10156WAT     H141330   2.000   3.020   7.053  1.1344 -0.0281  0.0891
10156WAT     H241331   1.899   2.931   7.027 -0.0592  0.6907  2.0400
10156WAT    EPW41332   1.974   2.955   7.019 -0.5186 -0.1877 -0.3227
10157WAT      O41333   5.338   6.076   5.970  0.5581  0.1599 -0.2504
10157WAT     H141334   5.344   6.152   6.012  2.3398 -0.0629 -0.0336
10157WAT     H241335   5.338   6.016   6.034  0.9611 -0.0942 -0.4851
10157WAT    EPW41336   5.339   6.078   5.985 -0.4501 -0.2727 -0.0131
10158WAT      O41337   2.052   0.609   0.391 -0.0907  0.5517  0.2571
10158WAT     H141338   2.072   0.527   0.369  1.7553  0.9842  0.1717
10158WAT     H241339   2.129   0.650   0.394 -0.9548  2.3211  0.2221
10158WAT    EPW41340   2.066   0.603   0.388  0.3181 -0.1047 -0.4183
10159WAT      O41341   6.147   3.769   0.367 -0.5757  0.2537 -0.3172
10159WAT     H141342   6.179   3.761   0.448  0.9061  0.3132 -0.8705
10159WAT     H241343   6.124   3.853   0.362 -1.7516  0.0013  0.3947
10159WAT    EPW41344   6.148   3.780   0.379  0.0414 -0.1825 -0.2143
10160WAT      O41345   5.420   2.441   4.766  0.1988 -0.2993  0.1677
10160WAT     H141346   5.392   2.524   4.768  0.6655 -0.1406  0.3199
10160WAT     H241347   5.362   2.398   4.815  1.1996  0.3427  2.0186
10160WAT    EPW41348   5.407   2.447   4.773  0.4186  0.0032 -0.3035
10161WAT      O41349   0.569   3.008   1.681 -0.0069 -0.2308  0.0985
10161WAT     H141350   0.504   2.972   1.727  0.2476 -0.7237  0.0793
10161WAT     H241351   0.566   2.965   1.605  0.5043 -0.4380  0.1905
10161WAT    EPW41352   0.559   2.996   1.677 -0.2650 -0.2545 -0.2294
10162WAT      O41353   3.360   5.711   4.754  0.0254 -0.1331 -0.6453
10162WAT     H141354   3.347   5.626   4.765  0.2845 -0.2950 -1.5156
10162WAT     H241355   3.290   5.747   4.792 -0.7176 -0.7908 -1.3375
10162WAT    EPW41356   3.348   5.704   4.762  0.2032 -0.2845  0.2004
10163WAT      O41357   4.952   1.984   3.952  0.6235  0.4576 -0.4961
10163WAT     H141358   4.951   2.049   3.894  1.7417 -0.6426 -1.7965
10163WAT     H241359   5.017   1.933   3.925 -0.7537 -1.6742 -0.0222
10163WAT    EPW41360   4.962   1.986   3.940  0.1420  0.0508 -0.3936
10164WAT      O41361   6.763   6.442   2.226 -0.1095 -0.0418  0.2614
10164WAT     H141362   6.793   6.397   2.295 -1.5966  0.6372  1.4223
10164WAT     H241363   6.770   6.385   2.160 -0.4061 -1.4026  1.3524
10164WAT    EPW41364   6.768   6.427   2.227 -0.6460 -0.2497 -0.2299
10165WAT      O41365   3.192   0.912   1.698 -0.1680  0.1786 -0.6178
10165WAT     H141366   3.111   0.896   1.726  0.3491 -0.0853  0.8140
10165WAT     H241367   3.240   0.910   1.771  1.0020  1.2004 -1.3176
10165WAT    EPW41368   3.187   0.909   1.713  0.1410  0.2743 -0.1842
10166WAT      O41369   2.685   3.856   0.241  0.5219  0.1319  0.2169
10166WAT     H141370   2.708   3.819   0.317  1.2419  0.7580  0.3156
10166WAT     H241371   2.622   3.912   0.264  0.6720  0.2503  0.3511
10166WAT    EPW41372   2.679   3.859   0.256  0.1749 -0.7647 -0.0135
10167WAT      O41373   3.134   4.404   7.330 -0.0526  0.0946 -0.4989
10167WAT     H141374   3.065   4.355   7.310 -0.2998 -0.2425  1.1254
10167WAT     H241375   3.116   4.436   7.408  0.7194  1.7136 -0.9442
10167WAT    EPW41376   3.121   4.401   7.338 -0.1572  0.0368  0.1625
10168WAT      O41377   2.156   4.946   0.094  0.0003 -0.2060  0.0864
10168WAT     H141378   2.241   4.929   0.083  0.1619 -1.0020  2.0614
10168WAT     H241379   2.131   4.886   0.152 -1.4672  1.1964  0.9852
10168WAT    EPW41380   2.164   4.934   0.101  0.0171 -0.2072 -0.2052
10169WAT      O41381   3.356   5.094   6.815 -0.2484 -0.0986  0.0694
10169WAT     H141382   3.440   5.112   6.827 -0.0006 -1.5702  0.7602
10169WAT     H241383   3.335   5.048   6.886 -2.3676  2.4212  1.2795
10169WAT    EPW41384   3.365   5.090   6.828  0.1720  0.2709 -0.6451
10170WAT      O41385   7.943   4.706   2.955 -0.0017  0.1479 -0.0753
10170WAT     H141386   7.898   4.664   2.894  0.6999 -0.7495  0.0014
10170WAT     H241387   7.997   4.645   2.987  0.6887  0.9786  0.4007
10170WAT    EPW41388   7.944   4.691   2.951 -0.0094  0.0079  0.0286
10171WAT      O41389   4.608   4.376   6.764  0.4832 -0.2247  0.0730
10171WAT     H141390   4.533   4.390   6.807 -0.2441 -2.1138 -0.5031
10171WAT     H241391   4.626   4.454   6.729 -1.3108  0.2217  0.0540
10171WAT    EPW41392   4.600   4.390   6.765 -0.1353 -0.4434 -0.3300
10172WAT      O41393   3.928   5.628   7.838 -0.1705  0.1849 -0.4255
10172WAT     H141394   3.915   5.696   7.891 -0.0125  0.5576 -0.8685
10172WAT     H241395   3.985   5.658   7.779 -0.4577 -0.1874 -0.8948
10172WAT    EPW41396   3.935   5.642   7.837  0.2914 -0.4361 -0.3424
10173WAT      O41397   1.012   4.629   4.704 -0.1257  0.8337 -0.4368
10173WAT     H141398   0.994   4.706   4.741 -0.2782  0.6484 -0.1161
10173WAT     H241399   1.055   4.586   4.766 -0.0583  0.6555 -0.6073
10173WAT    EPW41400   1.015   4.634   4.719 -0.0478 -0.2897 -0.1999
10174WAT      O41401   3.530   2.969   1.639 -0.0055  0.2389  0.1583
10174WAT     H141402   3.575   3.040   1.615  2.0833 -0.8851  0.5863
10174WAT     H241403   3.527   2.975   1.726  1.3101 -0.8239  0.2933
10174WAT    EPW41404   3.536   2.981   1.648  0.1656  0.8077  0.2123
10175WAT      O41405   2.492   4.559   1.017 -0.0251  0.0890 -0.1644
10175WAT     H141406   2.476   4.474   1.025  1.3565 -0.0545  1.3647
10175WAT     H241407   2.574   4.562   0.988  0.2558  0.9068  0.6924
10175WAT    EPW41408   2.502   4.547   1.014 -0.5007  0.8134  0.0255
10176WAT      O41409   2.826   1.758   4.955  0.4567  0.3841 -0.4898
10176WAT     H141410   2.784   1.701   5.006  0.1097 -0.4023 -1.6102
10176WAT     H241411   2.820   1.833   4.999 -0.6303 -0.0694  0.1868
10176WAT    EPW41412   2.819   1.761   4.969 -0.2483 -0.1173 -0.1447
10177WAT      O41413   4.218   0.791   2.311  0.0538 -0.0415  0.0624
10177WAT     H141414   4.236   0.828   2.234  0.3161  0.3852  0.3220
10177WAT     H241415   4.179   0.716   2.289  3.1545 -1.6238 -0.6073
10177WAT    EPW41416   4.215   0.785   2.296  0.0358  0.1321 -0.2147
10178WAT      O41417   6.098   3.666   0.062  0.1824  0.1530 -0.2801
10178WAT     H141418   6.162   3.680   0.119  2.2894  1.1866 -2.6626
10178WAT     H241419   6.067   3.746   0.045 -1.5893 -0.2990  0.5672
10178WAT    EPW41420   6.103   3.680   0.068 -0.6345 -0.0950  0.3954
10179WAT      O41421   4.178   6.375   7.701 -0.6716  0.8423  0.1223
10179WAT     H141422   4.182   6.445   7.649  0.4518  0.7296  0.0204
10179WAT     H241423   4.115   6.394   7.758 -1.0031  1.5420 -0.4627
10179WAT    EPW41424   4.169   6.388   7.701 -0.4296 -0.1890  0.1616
10180WAT      O41425   3.265   2.187   0.664  0.6742 -0.0742 -0.0731
10180WAT     H141426   3.187   2.209   0.632  0.3849 -0.9989 -0.0109
10180WAT     H241427   3.249   2.169   0.747  1.1130  0.5744  0.1571
10180WAT    EPW41428   3.251   2.188   0.671 -0.2251  0.7370  0.0751
10181WAT      O41429   3.226   0.067   7.839  0.6560 -0.5526 -0.2902
10181WAT     H141430   3.187   0.047   7.914  0.3863 -0.5357 -0.4243
10181WAT     H241431   3.160   0.067   7.781  0.5529  1.1467 -0.2365
10181WAT    EPW41432   3.210   0.064   7.841 -0.3461 -0.0098  0.1995
10182WAT      O41433   7.619   3.108   1.348  0.3512  0.3268 -0.4900
10182WAT     H141434   7.644   3.163   1.411 -0.0907 -1.5798  1.4480
10182WAT     H241435   7.535   3.128   1.335  0.2715  0.3125 -0.0134
10182WAT    EPW41436   7.610   3.119   1.355  0.5321 -0.2043 -0.0926
10183WAT      O41437   6.087   4.030   0.414 -0.2840 -0.2373  0.1912
10183WAT     H141438   6.064   4.071   0.487 -0.9717  1.1039 -0.7547
10183WAT     H241439   6.029   4.057   0.355  0.4074 -1.0871 -0.9310
10183WAT    EPW41440   6.075   4.040   0.416 -0.1807 -0.0890 -0.3187
10184WAT      O41441   1.914   2.825   3.538  0.2682 -0.1650 -0.0435
10184WAT     H141442   1.954   2.861   3.469  0.2681  0.5312  0.3155
10184WAT     H241443   1.979   2.785   3.580  0.6307  1.0330  0.5861
10184WAT    EPW41444   1.930   2.825   3.534  0.8111  0.1049  0.3470
10185WAT      O41445   2.891   1.125   6.927  0.1430 -0.1078 -0.0147
10185WAT     H141446   2.838   1.148   6.992  0.9706  1.4593  0.1533
10185WAT     H241447   2.968   1.158   6.951  1.0004 -1.4652 -0.7246
10185WAT    EPW41448   2.895   1.133   6.940  0.3387 -0.0297  0.0387
10186WAT      O41449   5.068   2.744   6.251  0.2857 -0.8389 -0.0246
10186WAT     H141450   5.118   2.678   6.225  0.7252 -1.0004  1.1628
10186WAT     H241451   5.037   2.718   6.328 -0.3071 -0.0478  0.0266
10186WAT    EPW41452   5.071   2.731   6.259  0.1540 -0.2120 -0.0417
10187WAT      O41453   4.229   7.712   4.054  0.7378 -0.3882  1.1042
10187WAT     H141454   4.183   7.764   4.107  0.8448  0.3028  0.5388
10187WAT     H241455   4.205   7.632   4.078  0.4224 -0.0805  1.8695
10187WAT    EPW41456   4.219   7.708   4.065  0.3321 -0.6588  0.1825
10188WAT      O41457   2.660   1.668   6.318  0.5229  0.7520  0.6316
10188WAT     H141458   2.729   1.645   6.268 -1.7365  0.9296 -2.8948
10188WAT     H241459   2.631   1.591   6.347 -0.0583  0.2024 -1.2445
10188WAT    EPW41460   2.666   1.653   6.315  0.3816 -0.1718 -0.2404
10189WAT      O41461   1.432   5.920   1.315 -1.0921 -0.2786  0.3800
10189WAT     H141462   1.365   5.939   1.263  0.5019 -0.0231 -1.7342
10189WAT     H241463   1.437   5.989   1.369 -0.6216  1.3068 -1.5637
10189WAT    EPW41464   1.423   5.933   1.315 -0.2763  0.3134  0.4752
10190WAT      O41465   4.828   0.834   0.380 -0.0189  0.2810  0.0609
10190WAT     H141466   4.817   0.864   0.461  0.1729  0.2570  0.0954
10190WAT     H241467   4.859   0.903   0.336  0.1787  0.2067  0.0814
10190WAT    EPW41468   4.831   0.849   0.385 -0.1557 -0.1004  0.4521
10191WAT      O41469   6.012   2.025   7.710  0.1518  0.1668  0.4133
10191WAT     H141470   6.027   2.101   7.750 -0.1496  1.1499 -1.2350
10191WAT     H241471   5.961   1.982   7.765  0.4142  1.1210  1.4377
10191WAT    EPW41472   6.007   2.030   7.724 -0.3175  0.6462 -0.0875
10192WAT      O41473   3.651   6.272   4.455 -0.0611 -0.1446  0.5742
10192WAT     H141474   3.699   6.345   4.449 -0.4833  0.1489  0.7059
10192WAT     H241475   3.629   6.269   4.539  0.9646 -1.0933  0.8431
10192WAT    EPW41476   3.655   6.282   4.467  0.4065 -0.4822  0.2163
10193WAT      O41477   2.375   7.820   7.486  0.3567 -0.3281 -0.0350
10193WAT     H141478   2.309   7.773   7.454  1.2813 -0.9247 -1.1307
10193WAT     H241479   2.374   7.892   7.437 -0.1345  0.1477  0.6612
10193WAT    EPW41480   2.365   7.824   7.474 -0.1318 -0.5034 -0.1431
10194WAT      O41481   2.356   4.514   4.154 -0.0557 -0.5508 -0.4613
10194WAT     H141482   2.273   4.491   4.141  0.4041 -1.7591 -1.3312
10194WAT     H241483   2.360   4.524   4.241 -1.2736  0.2694 -0.4614
10194WAT    EPW41484   2.344   4.512   4.165 -0.5550  0.3329  0.4925
10195WAT      O41485   2.450   3.600   4.259  0.2039  0.8363  0.3082
10195WAT     H141486   2.483   3.675   4.287  2.0088  0.8103 -1.5144
10195WAT     H241487   2.518   3.559   4.223 -0.9900 -1.0975  0.0740
10195WAT    EPW41488   2.465   3.605   4.258 -0.0438  1.0181  0.0768
10196WAT      O41489   4.689   1.478   6.038 -0.2781  0.2184 -0.1144
10196WAT     H141490   4.648   1.401   6.043 -0.3758  0.3323  1.7477
10196WAT     H241491   4.773   1.456   6.032 -0.4094 -0.0147 -1.2822
10196WAT    EPW41492   4.695   1.463   6.038  0.5797  0.2885  0.3656
10197WAT      O41493   1.954   4.921   7.178  0.4090 -0.2155 -0.5660
10197WAT     H141494   2.015   4.952   7.125  0.3098  2.1383  0.5762
10197WAT     H241495   1.879   4.941   7.138  0.3312 -0.9333 -0.8081
10197WAT    EPW41496   1.952   4.928   7.164 -0.0294  0.4514 -1.0318
10198WAT      O41497   5.272   3.309   5.355 -0.1550 -0.2723 -0.0981
10198WAT     H141498   5.215   3.255   5.393  0.3989 -0.2725  0.7674
10198WAT     H241499   5.233   3.387   5.361 -0.7828 -0.5027 -1.0023
10198WAT    EPW41500   5.258   3.313   5.362  0.4674  0.0464  0.9091
10199WAT      O41501   5.393   4.320   7.415  0.2467 -0.1845  0.5734
10199WAT     H141502   5.326   4.279   7.452  0.6865 -1.9271 -0.4180
10199WAT     H241503   5.460   4.265   7.428  1.1191  0.7664  0.1885
10199WAT    EPW41504   5.393   4.306   7.422  0.1419 -0.9264  0.2888
10200WAT      O41505   2.680   5.935   6.928  0.2272  0.1370  0.0948
10200WAT     H141506   2.655   5.870   6.875 -1.5247 -0.1626  1.2043
10200WAT     H241507   2.735   5.981   6.879  2.0777 -2.5059 -0.5566
10200WAT    EPW41508   2.685   5.932   6.913 -0.6117 -0.0754 -0.1195
10201WAT      O41509   1.445   3.124   0.797 -0.7049 -0.8307 -0.0707
10201WAT     H141510   1.454   3.130   0.710  1.6068 -3.5056 -0.1851
10201WAT     H241511   1.396   3.193   0.818  0.1776  0.9688 -3.2655
10201WAT    EPW41512   1.439   3.135   0.787  0.3429 -0.5076 -0.0819
10202WAT      O41513   4.778   6.163   6.049  0.0605 -0.3283 -0.6502
10202WAT     H141514   4.861   6.191   6.059  0.3473 -1.7562  1.5391
10202WAT     H241515   4.732   6.237   6.049  1.3190  0.5376 -2.3997
10202WAT    EPW41516   4.784   6.178   6.050  0.9587 -0.6723  0.3368
10203WAT      O41517   1.692   6.919   6.435 -0.1664  0.7439  0.5360
10203WAT     H141518   1.614   6.891   6.463  0.1400 -0.2477  0.4203
10203WAT     H241519   1.727   6.954   6.507  0.4298 -1.3860  1.3551
10203WAT    EPW41520   1.685   6.920   6.450 -0.3103 -0.6155  0.0841
10204WAT      O41521   7.741   0.482   0.994  0.3844 -0.0519  0.5846
10204WAT     H141522   7.685   0.525   1.046  0.4468  1.3877 -0.4938
10204WAT     H241523   7.733   0.522   0.917  2.4811 -0.2020  0.2433
10204WAT    EPW41524   7.732   0.494   0.990  0.0362  0.1344 -0.0640
10205WAT      O41525   1.081   4.095   2.235  0.1817 -0.2469 -0.3534
10205WAT     H141526   1.081   4.075   2.149  0.4563 -1.2141 -0.1466
10205WAT     H241527   1.049   4.176   2.237  0.9110  0.0994 -1.4465
10205WAT    EPW41528   1.076   4.104   2.222 -0.4181 -0.4359  0.0478
10206WAT      O41529   3.453   3.007   6.923 -0.0532  0.5222 -0.2214
10206WAT     H141530   3.457   2.943   6.864  0.4084  0.5073 -0.1802
10206WAT     H241531   3.524   3.056   6.904 -0.1095  0.7229  0.0842
10206WAT    EPW41532   3.464   3.005   6.911  1.2828 -0.6983 -0.4422
10207WAT      O41533   1.878   3.231   6.222 -0.9598 -0.1497 -0.0367
10207WAT     H141534   1.921   3.223   6.298 -2.4516  0.4099  0.8997
10207WAT     H241535   1.873   3.148   6.194  0.9605 -0.2134 -0.3575
10207WAT    EPW41536   1.884   3.217   6.229 -0.2408 -0.4776  0.4948
10208WAT      O41537   2.363   5.239   6.207 -0.6639 -0.5263 -0.1738
10208WAT     H141538   2.326   5.311   6.174  0.0460 -0.5504 -1.0822
10208WAT     H241539   2.395   5.198   6.136 -2.2459 -2.4604  0.1269
10208WAT    EPW41540   2.363   5.243   6.191  0.0649  0.6399 -0.1104
10209WAT      O41541   4.423   6.040   5.762 -0.2017  0.6721  0.1242
10209WAT     H141542   4.431   6.055   5.847 -0.7870  0.5721  0.2017
10209WAT     H241543   4.493   6.079   5.727 -0.5312  1.6799  0.5408
10209WAT    EPW41544   4.435   6.048   5.769 -0.2400 -0.1317  0.0789
10210WAT      O41545   0.561   3.734   1.949 -0.2292  0.3365  0.0825
10210WAT     H141546   0.543   3.679   1.884  1.5400 -1.6396  1.1395
10210WAT     H241547   0.533   3.692   2.020 -0.3904  1.6025  0.8052
10210WAT    EPW41548   0.554   3.720   1.950 -0.0774 -0.4665  0.4101
10211WAT      O41549   2.451   1.401   6.335 -0.3109 -0.3362  0.3261
10211WAT     H141550   2.526   1.381   6.296 -1.2984 -2.3806 -0.6929
10211WAT     H241551   2.476   1.443   6.408  1.9581 -2.7765  1.1223
10211WAT    EPW41552   2.466   1.404   6.340 -0.3191  0.3759 -0.4907
10212WAT      O41553   7.161   4.060   0.388  0.6612  0.3849  0.7333
10212WAT     H141554   7.216   4.000   0.358 -1.0065 -0.5052 -0.7250
10212WAT     H241555   7.091   4.052   0.336 -0.9530  1.2848  2.6142
10212WAT    EPW41556   7.159   4.050   0.376  0.1694 -0.7803 -0.0805
10213WAT      O41557   4.733   7.956   1.560  0.3863 -0.0785 -0.0372
10213WAT     H141558   4.659   7.971   1.604  0.4709  1.7655 -0.4262
10213WAT     H241559   4.794   7.954   1.623 -0.0882 -3.6208  0.5352
10213WAT    EPW41560   4.731   7.958   1.576  0.4955  0.4783 -0.0415
10214WAT      O41561   2.459   1.202   7.015  0.1402 -0.3871  0.5967
10214WAT     H141562   2.541   1.222   7.038 -0.2656  1.5491  0.4944
10214WAT     H241563   2.446   1.248   6.942 -1.4521  0.3561  1.3082
10214WAT    EPW41564   2.470   1.212   7.008 -0.4134 -0.0548  0.1956
10215WAT      O41565   3.126   3.032   1.248  0.2816  0.7244  0.1822
10215WAT     H141566   3.110   3.034   1.162  1.1809  1.4314  0.0181
10215WAT     H241567   3.097   3.109   1.276  0.2409  0.6052  0.4727
10215WAT    EPW41568   3.119   3.044   1.239  0.2594  0.0112 -1.0985
10216WAT      O41569   7.886   5.229   1.223 -0.8958  0.1177 -0.0625
10216WAT     H141570   7.843   5.297   1.257  0.8663  1.1339  0.3169
10216WAT     H241571   7.922   5.262   1.150  0.1909 -0.2972  0.2576
10216WAT    EPW41572   7.885   5.244   1.217 -0.3128  0.1076 -0.1000
10217WAT      O41573   1.484   5.841   4.304 -0.2130  0.0208  0.1021
10217WAT     H141574   1.490   5.881   4.381 -0.2881  2.3714 -1.0192
10217WAT     H241575   1.402   5.813   4.302 -0.0295 -0.6494  1.1147
10217WAT    EPW41576   1.473   5.843   4.315  0.2735  0.2131  0.0096
10218WAT      O41577   6.136  -0.009   2.504  0.0313 -0.0445  0.2025
10218WAT     H141578   6.208  -0.045   2.536 -0.0011 -0.3552 -0.0665
10218WAT     H241579   6.153   0.077   2.505  1.6007 -0.2051 -2.6122
10218WAT    EPW41580   6.149  -0.001   2.509 -0.0850  0.2098 -0.2567
10219WAT      O41581   1.910   7.016   1.547 -0.7508  0.0572 -0.0301
10219WAT     H141582   1.951   6.948   1.509 -0.7880 -0.6205  1.1139
10219WAT     H241583   1.871   7.056   1.480  0.4546 -0.2034 -0.9375
10219WAT    EPW41584   1.910   7.012   1.531 -0.4961 -0.5082 -0.1712
10220WAT      O41585   6.689   3.410   4.406  0.1267 -0.2372 -0.1386
10220WAT     H141586   6.624   3.382   4.354  0.5529  0.0542 -0.8360
10220WAT     H241587   6.744   3.449   4.351  0.7855 -0.2761  0.4844
10220WAT    EPW41588   6.687   3.412   4.390 -0.1131 -0.2318 -0.1487
10221WAT      O41589   2.714   5.517   7.590  0.4854  0.4071 -0.1882
10221WAT     H141590   2.629   5.501   7.600  0.3846 -0.3323 -1.9238
10221WAT     H241591   2.732   5.487   7.510  2.1867  1.3731 -0.2284
10221WAT    EPW41592   2.704   5.510   7.580  0.2095 -0.0668  0.1779
10222WAT      O41593   0.278   3.522   3.624 -0.3152  0.7591 -0.6473
10222WAT     H141594   0.341   3.464   3.606  0.5311  1.0473  1.1224
10222WAT     H241595   0.249   3.546   3.546  0.5814 -0.6853 -1.4677
10222WAT    EPW41596   0.283   3.517   3.610 -0.0428 -0.3357  0.2035
10223WAT      O41597   7.080   2.408   1.158 -0.3808 -0.0502 -0.0573
10223WAT     H141598   7.160   2.384   1.134 -0.2848  0.5826 -0.4046
10223WAT     H241599   7.068   2.367   1.233  1.4548  2.0951  1.5714
10223WAT    EPW41600   7.090   2.399   1.165  0.5654  0.4325 -0.0404
10224WAT      O41601   2.223   6.430   0.397  0.1452  0.2255  0.3534
10224WAT     H141602   2.284   6.369   0.402 -1.5728 -1.7126 -0.6244
10224WAT     H241603   2.192   6.435   0.478  0.4347 -0.0529  0.4831
10224WAT    EPW41604   2.227   6.422   0.410  0.7641  0.4360 -0.3347
10225WAT      O41605   3.078   4.677   4.169 -0.3080  0.1932  0.0272
10225WAT     H141606   3.044   4.710   4.242 -0.8335  0.7776 -0.4685
10225WAT     H241607   3.100   4.596   4.192 -1.0537  0.1564  0.6595
10225WAT    EPW41608   3.076   4.670   4.183 -0.1419  0.3441  0.4962
10226WAT      O41609   3.662   7.024   5.983 -0.2829 -0.5928 -0.0608
10226WAT     H141610   3.642   6.948   6.022 -0.7972  0.2472  1.3853
10226WAT     H241611   3.585   7.064   5.973  0.0145 -0.1159 -0.5137
10226WAT    EPW41612   3.648   7.019   5.987  0.1107  0.5839 -0.6778
10227WAT      O41613   3.073   2.831   6.758  0.1253  0.0186 -0.2900
10227WAT     H141614   3.135   2.833   6.696  1.0100  1.7514  0.5820
10227WAT     H241615   3.109   2.784   6.822  0.4352  0.7858  0.1038
10227WAT    EPW41616   3.087   2.824   6.758 -0.9232 -0.3422 -0.4809
10228WAT      O41617   6.960   3.769   4.238 -0.6505  0.6837 -0.2934
10228WAT     H141618   7.041   3.738   4.227 -0.2550  2.1057 -1.8700
10228WAT     H241619   6.912   3.697   4.244  0.8345 -0.2252  2.2183
10228WAT    EPW41620   6.965   3.754   4.237  0.0628  0.2265 -0.3107
10229WAT      O41621   1.981   7.734   6.935 -0.1479 -0.0307  0.4751
10229WAT     H141622   2.015   7.660   6.903  1.3099  1.4048 -1.5233
10229WAT     H241623   2.027   7.748   7.008 -0.9347 -1.3984  1.2874
10229WAT    EPW41624   1.993   7.725   6.941  0.6694  0.7013  0.1414
10230WAT      O41625   3.038   4.842   5.602  0.3107  0.3285  0.2703
10230WAT     H141626   3.079   4.919   5.602 -0.7498  0.9141  1.1132
10230WAT     H241627   3.073   4.801   5.533  0.5880  1.7196 -0.4668
10230WAT    EPW41628   3.049   4.847   5.591  0.0172  0.0052 -0.8724
10231WAT      O41629   7.704   6.706   3.912  0.3631  0.2563  0.1623
10231WAT     H141630   7.783   6.689   3.943  0.7650  0.8506 -0.5119
10231WAT     H241631   7.704   6.792   3.899 -0.8754  0.4921  1.4447
10231WAT    EPW41632   7.715   6.716   3.914  0.1464 -0.8598  0.0798
10232WAT      O41633   4.204   1.126   6.018 -0.4261 -0.2242  0.0408
10232WAT     H141634   4.155   1.069   6.062  0.6705  0.7123  2.6373
10232WAT     H241635   4.158   1.200   6.020 -0.3097 -0.1387 -0.3008
10232WAT    EPW41636   4.190   1.128   6.025  0.2822 -0.3715 -0.2622
10233WAT      O41637   5.541   4.401   6.243  0.3838  0.0626 -0.0558
10233WAT     H141638   5.596   4.459   6.207  0.2042  0.3900  0.1824
10233WAT     H241639   5.490   4.451   6.294  0.8240 -0.4106  0.8867
10233WAT    EPW41640   5.542   4.417   6.245  0.7147 -0.6911 -0.4575
10234WAT      O41641   4.405   3.246   0.351  0.3301 -0.0697 -0.1045
10234WAT     H141642   4.359   3.198   0.407  1.4132  0.4248  1.2481
10234WAT     H241643   4.488   3.230   0.372  0.8637 -1.0449 -2.5675
10234WAT    EPW41644   4.411   3.237   0.362  0.0199 -0.0382  0.1669
10235WAT      O41645   1.386   2.520   5.751  0.4073 -0.7006 -0.2759
10235WAT     H141646   1.420   2.597   5.776  2.5708 -1.2527 -1.3081
10235WAT     H241647   1.381   2.475   5.825 -1.8112  0.6685  0.5264
10235WAT    EPW41648   1.390   2.525   5.766 -0.4641 -0.1807 -0.0081
10236WAT      O41649   2.210   2.212   1.523  0.0970 -0.0078  0.4316
10236WAT     H141650   2.138   2.165   1.507 -0.2946  0.7995 -0.2155
10236WAT     H241651   2.266   2.185   1.461 -0.5326  1.2061 -0.7220
10236WAT    EPW41652   2.208   2.201   1.511 -0.2481  0.3963 -0.3005
10237WAT      O41653   2.677   0.775   7.061  0.4609  0.0578  0.5468
10237WAT     H141654   2.691   0.690   7.047 -0.0055  0.1726 -0.7858
10237WAT     H241655   2.745   0.814   7.021 -1.1937  0.4262 -2.1705
10237WAT    EPW41656   2.689   0.769   7.053  0.5218  0.6400 -0.2308
10238WAT      O41657   6.300   2.433   5.642  0.4168  0.0934 -0.3698
10238WAT     H141658   6.221   2.438   5.606 -0.8296  0.7069  2.2147
10238WAT     H241659   6.303   2.353   5.677  1.4675 -0.3855 -1.4971
10238WAT    EPW41660   6.289   2.422   5.642  0.0992 -0.4789  0.0037
10239WAT      O41661   7.065   3.800   2.665 -0.1204 -0.2377  0.7815
10239WAT     H141662   7.047   3.807   2.580  3.0843  1.2043  0.0700
10239WAT     H241663   7.057   3.715   2.682 -2.4185 -0.3457 -0.4733
10239WAT    EPW41664   7.061   3.789   2.655  0.3382 -0.5109 -0.4598
10240WAT      O41665   4.816   4.963   5.615  0.6408 -0.2213  0.3835
10240WAT     H141666   4.894   4.971   5.578  0.1674  1.0447 -0.3994
10240WAT     H241667   4.774   4.908   5.563  1.0016 -0.9197  0.8162
10240WAT    EPW41668   4.821   4.956   5.602 -0.0193 -0.7122  0.1506
10241WAT      O41669   0.296   3.939   0.252  0.1612  0.1822 -0.3614
10241WAT     H141670   0.363   3.980   0.290 -0.3216  0.0689  0.6595
10241WAT     H241671   0.256   4.002   0.207 -0.2347  0.7227  0.7178
10241WAT    EPW41672   0.300   3.954   0.251 -0.0679  0.0600  0.0027
10242WAT      O41673   3.127   7.062   5.257 -0.1208  0.3341  0.0801
10242WAT     H141674   3.148   6.993   5.210  2.5653  0.7406  0.5461
10242WAT     H241675   3.128   7.128   5.200 -1.9023  0.1548 -0.2098
10242WAT    EPW41676   3.130   7.062   5.242  0.8921  0.0121  0.6384
10243WAT      O41677   4.969   5.889   7.953  0.8687 -0.4464  0.1901
10243WAT     H141678   5.009   5.966   7.955  1.0298 -0.5417  0.9432
10243WAT     H241679   4.970   5.863   8.036  0.2018 -0.9437  0.0541
10243WAT    EPW41680   4.975   5.896   7.966  0.6604 -0.6699 -0.3256
10244WAT      O41681   2.974   1.883   4.209 -0.7879 -0.3584 -0.3155
10244WAT     H141682   3.035   1.832   4.245 -0.7681  0.3444  0.7074
10244WAT     H241683   3.003   1.895   4.127 -0.0729 -0.8388 -0.1456
10244WAT    EPW41684   2.988   1.877   4.202 -0.3226  0.3167  0.4644
10245WAT      O41685   4.686   2.842   6.796  0.2354 -0.3281  0.3927
10245WAT     H141686   4.735   2.892   6.848 -0.6983  1.6566 -0.5344
10245WAT     H241687   4.640   2.793   6.851  1.1502 -0.1610  1.3381
10245WAT    EPW41688   4.686   2.842   6.812  0.4438  0.1443 -0.3066
10246WAT      O41689   1.745   1.686   1.234  0.6370  0.2860 -0.1670
10246WAT     H141690   1.674   1.737   1.226  1.7949  1.7544 -1.9774
10246WAT     H241691   1.721   1.611   1.195  0.2502  0.9871 -1.3240
10246WAT    EPW41692   1.731   1.682   1.227 -0.2380 -0.3732 -0.6153
10247WAT      O41693   2.483   2.790   5.651  0.3859  0.2167  0.3345
10247WAT     H141694   2.500   2.819   5.570  0.1584 -0.2888  0.1040
10247WAT     H241695   2.518   2.711   5.652  0.7476  0.3838  0.8703
10247WAT    EPW41696   2.491   2.783   5.639  0.1387  0.5517  0.1468
10248WAT      O41697   2.063   3.960   3.240 -0.0751  0.5280 -0.1363
10248WAT     H141698   2.097   3.882   3.260  0.3711  1.0162  1.0969
10248WAT     H241699   2.113   4.016   3.283 -0.3536  1.5246 -1.0576
10248WAT    EPW41700   2.076   3.956   3.249 -0.0350  0.0517  0.2446
10249WAT      O41701   2.187   7.220   4.504 -0.2429 -0.5518 -0.1113
10249WAT     H141702   2.214   7.167   4.568  1.6167  1.7756  1.2338
10249WAT     H241703   2.133   7.276   4.545  1.6903  1.5470 -0.2094
10249WAT    EPW41704   2.183   7.221   4.519  0.0459 -0.4273 -0.7530
10250WAT      O41705   4.443   5.265   7.051  0.4332 -0.0984  0.2620
10250WAT     H141706   4.406   5.310   7.117  0.3657 -0.1135  0.2344
10250WAT     H241707   4.510   5.225   7.089 -0.0298 -0.6845  0.4741
10250WAT    EPW41708   4.447   5.266   7.066  0.8729 -0.6863 -0.1498
10251WAT      O41709   1.337   8.013   4.689  0.1329  0.0833  0.6021
10251WAT     H141710   1.277   8.076   4.692 -1.5137 -1.3428 -0.6156
10251WAT     H241711   1.371   8.020   4.609  0.1596 -0.3922  0.5697
10251WAT    EPW41712   1.333   8.024   4.678  0.2270  0.0510 -0.2439
10252WAT      O41713   7.403   7.889   4.523 -0.3635  0.3822 -0.0277
10252WAT     H141714   7.485   7.861   4.535 -0.6567 -0.2846  0.4659
10252WAT     H241715   7.403   7.967   4.561 -0.1027  0.1471  0.4683
10252WAT    EPW41716   7.415   7.896   4.530  0.1719  0.1472 -0.3419
10253WAT      O41717   4.943   1.479   5.460 -0.0176 -0.9282 -0.9249
10253WAT     H141718   4.886   1.428   5.418 -0.1728  1.1276 -3.4736
10253WAT     H241719   4.997   1.505   5.397  0.6549  1.2266  0.4477
10253WAT    EPW41720   4.943   1.475   5.445 -0.0524 -0.1465 -0.1759
10254WAT      O41721   5.615   1.507   7.197  0.4559 -0.6879 -0.1242
10254WAT     H141722   5.668   1.462   7.251 -0.1245 -1.4542 -0.1715
10254WAT     H241723   5.657   1.582   7.185  0.2281 -0.1273  2.0833
10254WAT    EPW41724   5.629   1.511   7.203 -0.0771 -0.1563 -0.3761
10255WAT      O41725   2.489   2.055   0.986 -0.1155  0.3120 -0.7767
10255WAT     H141726   2.434   1.999   1.023  0.1879 -0.6636 -1.7432
10255WAT     H241727   2.550   2.004   0.950  0.0349  1.2313 -1.9203
10255WAT    EPW41728   2.490   2.040   0.986  1.2125 -0.2232  0.0624
10256WAT      O41729   4.867   2.885   7.982 -0.1572 -0.3504  0.5592
10256WAT     H141730   4.810   2.834   8.023 -0.2975 -1.7070 -1.1889
10256WAT     H241731   4.930   2.830   7.958  0.2860  0.5043 -0.3074
10256WAT    EPW41732   4.868   2.869   7.984  0.7233 -0.3242 -0.2765
10257WAT      O41733   1.403   7.043   2.034  0.4357  0.2887  0.2803
10257WAT     H141734   1.407   7.129   2.045 -2.5528  0.5264  0.4502
10257WAT     H241735   1.423   7.032   1.950  0.4043  1.2141  0.1407
10257WAT    EPW41736   1.406   7.054   2.023  0.5398 -0.3046 -0.5282
10258WAT      O41737   6.025   2.654   7.754 -0.1766  0.3988 -0.2335
10258WAT     H141738   6.028   2.628   7.671  0.5252 -1.8104  0.4025
10258WAT     H241739   6.097   2.619   7.789 -0.8275  0.6409  1.4712
10258WAT    EPW41740   6.036   2.645   7.747  0.0320  0.3216 -0.1647
10259WAT      O41741   0.773   5.189   4.365  0.0663 -0.4616  0.2529
10259WAT     H141742   0.769   5.245   4.298  1.0828  0.8880  1.2522
10259WAT     H241743   0.692   5.158   4.371 -0.0835 -0.5069 -1.4832
10259WAT    EPW41744   0.761   5.193   4.356  0.7192  0.1997 -0.1591
10260WAT      O41745   1.486   6.178   7.439 -0.5491 -0.5807  0.0056
10260WAT     H141746   1.567   6.152   7.420 -0.7220 -0.4815 -0.9223
10260WAT     H241747   1.465   6.229   7.372 -0.2982  1.8203  1.6262
10260WAT    EPW41748   1.495   6.182   7.426  0.4331 -0.0838 -0.5785
10261WAT      O41749   7.696   5.043   4.227  0.1463 -0.6681 -0.3806
10261WAT     H141750   7.613   5.023   4.209  0.0696 -0.2385 -0.5325
10261WAT     H241751   7.695   5.130   4.230  0.4369 -0.6854  0.3921
10261WAT    EPW41752   7.683   5.053   4.225 -0.7593  0.1114 -0.3899
10262WAT      O41753   2.160   6.337   4.789 -0.2285 -0.1352  0.1626
10262WAT     H141754   2.132   6.296   4.861 -0.0978  0.5411  0.5996
10262WAT     H241755   2.086   6.357   4.747 -0.3037 -2.6995 -1.1683
10262WAT    EPW41756   2.145   6.334   4.793  0.3951 -0.2596 -0.0063
10263WAT      O41757   0.999   4.990   4.342  0.2866 -0.0633 -0.4804
10263WAT     H141758   0.949   4.922   4.366  0.4851  0.5472  1.9111
10263WAT     H241759   0.942   5.056   4.338  0.7582  0.5758  1.9789
10263WAT    EPW41760   0.983   4.990   4.345 -0.0461  0.7338 -0.1492
10264WAT      O41761   2.492   6.080   3.545  0.2123 -0.1366 -0.4017
10264WAT     H141762   2.511   6.089   3.630 -0.5590  0.2698 -0.2593
10264WAT     H241763   2.453   6.001   3.542  2.4869 -1.3205 -0.8193
10264WAT    EPW41764   2.489   6.069   3.557 -0.4552 -0.3545 -0.3929
10265WAT      O41765   2.853   6.809   3.528  0.5410  0.0136 -0.0455
10265WAT     H141766   2.890   6.881   3.494 -0.5693  1.2216  1.2034
10265WAT     H241767   2.783   6.840   3.570  0.2851 -1.7645  0.9092
10265WAT    EPW41768   2.848   6.824   3.529  0.2486 -0.1764 -0.1260
10266WAT      O41769   3.653   1.471   2.928 -0.1279 -0.3151 -0.0707
10266WAT     H141770   3.581   1.425   2.908  1.0236 -1.1203 -2.8063
10266WAT     H241771   3.665   1.522   2.859  3.0202 -1.6701 -0.7027
10266WAT    EPW41772   3.644   1.472   2.915  0.2730  0.0186  0.2751
10267WAT      O41773   0.957   7.571   1.123  0.6098  0.2455 -0.2847
10267WAT     H141774   0.894   7.620   1.160  0.2594 -0.0334 -0.5014
10267WAT     H241775   0.926   7.490   1.132  0.3839  0.1956 -1.4538
10267WAT    EPW41776   0.943   7.566   1.130 -0.1622 -0.3997 -0.2770
10268WAT      O41777   3.904   6.853   4.953  0.3199  0.5668 -0.3294
10268WAT     H141778   3.860   6.866   4.879  0.6510 -0.5944 -0.7662
10268WAT     H241779   3.988   6.861   4.928  0.4446 -0.1154 -0.1702
10268WAT    EPW41780   3.910   6.856   4.938 -0.4152  0.0676 -0.0996
10269WAT      O41781   2.547   0.684   5.661 -0.2675  0.3831  0.9344
10269WAT     H141782   2.540   0.719   5.582  0.6113 -2.6747 -0.6792
10269WAT     H241783   2.500   0.737   5.712 -1.3549  2.1614 -1.7217
10269WAT    EPW41784   2.539   0.697   5.657  0.1822  0.4323  0.6288
10270WAT      O41785   0.668   3.946   2.152 -0.2932  0.0836 -0.4129
10270WAT     H141786   0.584   3.923   2.150 -0.4945  0.7591  0.0026
10270WAT     H241787   0.701   3.908   2.081 -0.9480 -0.1813 -0.5847
10270WAT    EPW41788   0.661   3.937   2.142 -0.0356  0.0398 -0.0899
10271WAT      O41789   5.048   5.111   4.009 -0.2608 -0.0431  0.2421
10271WAT     H141790   5.083   5.072   4.078  0.2888  1.8615  1.1003
10271WAT     H241791   4.988   5.165   4.044 -0.4450  0.4635 -0.8051
10271WAT    EPW41792   5.044   5.113   4.024  0.2883  0.0262  1.3995
10272WAT      O41793   4.525   6.064   0.386 -0.1560  0.6897 -0.4809
10272WAT     H141794   4.554   6.143   0.411 -2.8187  1.5923  0.0636
10272WAT     H241795   4.480   6.081   0.313  0.6646 -0.6584 -1.3475
10272WAT    EPW41796   4.523   6.078   0.379  0.5136  0.3355  0.1886
10273WAT      O41797   3.072   6.461   5.579  0.3636  0.3387  0.0259
10273WAT     H141798   3.137   6.438   5.631 -0.5901 -0.2969  0.9801
10273WAT     H241799   3.082   6.409   5.510  0.4134 -0.3044  0.5115
10273WAT    EPW41800   3.083   6.450   5.576  0.0832 -0.8842  0.4692
10274WAT      O41801   2.662   7.426   7.597  0.5692 -0.1987  0.8982
10274WAT     H141802   2.605   7.444   7.534 -1.5739 -1.8732  2.2082
10274WAT     H241803   2.720   7.374   7.558 -0.8371 -1.3955  0.2878
10274WAT    EPW41804   2.662   7.421   7.582  0.1054  0.1418  0.4859
10275WAT      O41805   5.244   1.964   3.210  0.5429 -0.0672  0.0269
10275WAT     H141806   5.206   1.887   3.226 -2.0035  0.8233 -1.2015
10275WAT     H241807   5.284   1.984   3.285 -1.6207 -1.0408  1.5203
10275WAT    EPW41808   5.245   1.956   3.224  0.4508  0.0046  0.1116
10276WAT      O41809   0.920   3.350   3.690 -0.0098  0.2208  0.5767
10276WAT     H141810   0.904   3.347   3.776 -1.0234  1.2328  0.4559
10276WAT     H241811   0.840   3.349   3.655  0.2479  2.5607 -0.2306
10276WAT    EPW41812   0.906   3.349   3.698  0.3825 -0.2489  0.0831
10277WAT      O41813   2.435   7.276   6.868 -0.9101 -0.0455 -0.7751
10277WAT     H141814   2.472   7.226   6.928  0.3794  0.8919 -0.7633
10277WAT     H241815   2.492   7.340   6.855 -1.6406  0.3798 -2.2041
10277WAT    EPW41816   2.449   7.278   6.875  0.0613 -0.1307 -0.4012
10278WAT      O41817   0.246   2.960   4.575 -0.1921  0.4460  0.3563
10278WAT     H141818   0.234   2.873   4.569 -1.8559  0.7344 -1.8051
10278WAT     H241819   0.271   2.982   4.495 -1.6638  2.1837  0.3191
10278WAT    EPW41820   0.248   2.950   4.562 -0.5082 -0.6722  0.2558
10279WAT      O41821   7.877   0.977   2.669 -0.0275  0.0532  0.5933
10279WAT     H141822   7.842   0.900   2.649  0.0606  0.3523 -0.8680
10279WAT     H241823   7.962   0.960   2.674  0.1212  0.2085 -0.8152
10279WAT    EPW41824   7.884   0.963   2.667  0.3407  0.2827 -0.1724
10280WAT      O41825   6.382   2.879   0.907 -0.3414  0.4881 -0.3578
10280WAT     H141826   6.425   2.955   0.904  3.2900 -1.3773 -0.2434
10280WAT     H241827   6.373   2.865   0.993  0.7523 -0.0463 -0.3116
10280WAT    EPW41828   6.387   2.888   0.919 -0.0404 -0.1843  0.2149
10281WAT      O41829   1.676   1.181   5.689 -0.1771  0.0744 -0.1848
10281WAT     H141830   1.665   1.174   5.775 -1.9099  1.4915 -0.2153
10281WAT     H241831   1.637   1.110   5.657 -0.3032 -0.0180  0.1722
10281WAT    EPW41832   1.668   1.170   5.697  0.4318  0.8262 -0.1857
10282WAT      O41833   3.420   5.051   1.539  0.0815 -0.2419 -0.0834
10282WAT     H141834   3.362   5.075   1.600 -2.1685 -0.2871 -2.0444
10282WAT     H241835   3.381   5.073   1.464  3.6032  1.8445 -1.5684
10282WAT    EPW41836   3.405   5.058   1.537  0.0841  0.1916 -0.3877
10283WAT      O41837   2.049   4.218   3.593 -0.5655  0.5508  0.3612
10283WAT     H141838   2.108   4.181   3.539 -1.8846 -1.2412  0.0346
10283WAT     H241839   2.064   4.178   3.669 -2.8516 -1.8856 -0.2934
10283WAT    EPW41840   2.060   4.206   3.596  0.0827  1.1500 -0.0815
10284WAT      O41841   4.196   6.869   3.400 -0.0334  0.4465 -0.2185
10284WAT     H141842   4.166   6.866   3.318 -1.4917  1.0811  0.2489
10284WAT     H241843   4.146   6.812   3.443 -2.0266  2.8432  0.9579
10284WAT    EPW41844   4.184   6.860   3.394  0.1866 -0.2328  0.0064
10285WAT      O41845   4.349   6.370   4.209  0.1580  0.2236  0.6167
10285WAT     H141846   4.263   6.383   4.201  0.4552  1.7697 -0.7798
10285WAT     H241847   4.383   6.441   4.173  2.0368 -1.0614 -0.3032
10285WAT    EPW41848   4.341   6.382   4.202 -0.2969 -0.1542 -0.6563
10286WAT      O41849   0.883   5.096   3.686  0.9004  0.1026  0.2444
10286WAT     H141850   0.832   5.026   3.673  0.1311  0.8880 -1.2708
10286WAT     H241851   0.837   5.146   3.739  1.3361 -0.3927  1.1151
10286WAT    EPW41852   0.869   5.093   3.692 -0.1886 -0.3435 -0.3788
10287WAT      O41853   4.017   1.832   2.627 -0.1093  0.0925  0.2135
10287WAT     H141854   4.057   1.852   2.702  0.1885 -1.3362  0.4627
10287WAT     H241855   4.078   1.790   2.581 -0.2551  1.0228 -0.9020
10287WAT    EPW41856   4.032   1.829   2.631 -0.0319  0.3227  0.0928
10288WAT      O41857   5.262   5.094   2.937  0.6123 -1.0029  0.1826
10288WAT     H141858   5.339   5.056   2.954  1.0697  0.5404  1.8676
10288WAT     H241859   5.253   5.152   3.001 -1.5250 -0.4512 -0.5245
10288WAT    EPW41860   5.272   5.097   2.949 -0.4307 -0.3726 -0.1421
10289WAT      O41861   2.318   2.256   7.671  0.3724 -0.6114 -0.4038
10289WAT     H141862   2.246   2.224   7.710  1.5876 -1.0656  1.5975
10289WAT     H241863   2.303   2.241   7.586 -1.7791 -0.8977 -0.0435
10289WAT    EPW41864   2.305   2.249   7.664 -0.6070 -0.1718 -0.0313
10290WAT      O41865   0.662   1.961   4.638 -0.1279  0.0649  0.4612
10290WAT     H141866   0.641   1.919   4.564 -0.4352 -0.9248  1.0971
10290WAT     H241867   0.619   2.036   4.631 -1.2728 -0.5803  0.2373
10290WAT    EPW41868   0.652   1.966   4.626  0.0390  0.2422  0.2618
10291WAT      O41869   6.397   0.418   3.538  0.3755 -0.4351 -0.1631
10291WAT     H141870   6.409   0.353   3.595  1.2098 -1.0174 -0.9664
10291WAT     H241871   6.340   0.471   3.578  0.8322 -0.8961  1.1345
10291WAT    EPW41872   6.390   0.416   3.552 -0.0731 -0.8264 -0.1987
10292WAT      O41873   2.279   4.453   4.694  0.3020 -0.0287  0.0426
10292WAT     H141874   2.355   4.438   4.735  0.1295 -0.5593  0.1728
10292WAT     H241875   2.251   4.528   4.728  0.9078  0.3263 -0.2133
10292WAT    EPW41876   2.286   4.462   4.705 -0.0783  0.0537  0.0961
10293WAT      O41877   3.700   5.253   7.012 -0.4066  0.6120  0.2119
10293WAT     H141878   3.671   5.334   6.999 -0.9775  0.5198  0.8218
10293WAT     H241879   3.770   5.264   7.062 -0.1558  0.7631 -0.1741
10293WAT    EPW41880   3.706   5.266   7.018  0.6816 -0.1103 -0.3757
10294WAT      O41881   4.032   4.664   7.977  0.0819  0.0243 -0.2313
10294WAT     H141882   3.974   4.666   7.911  0.3755 -1.0501 -0.5445
10294WAT     H241883   4.108   4.682   7.939  0.1399  0.1863 -0.0425
10294WAT    EPW41884   4.034   4.667   7.962 -0.4706  0.4815  0.2898
10295WAT      O41885   2.706   7.461   3.414 -0.0110 -0.3040 -0.1476
10295WAT     H141886   2.748   7.463   3.338  0.8653  0.3298  0.3389
10295WAT     H241887   2.701   7.376   3.433  0.0143 -0.4488 -0.7721
10295WAT    EPW41888   2.711   7.449   3.406  0.3344  0.2096  0.3145
10296WAT      O41889   2.972   3.615   5.155  0.3225 -0.3828  0.4453
10296WAT     H141890   2.977   3.590   5.072 -0.9937  1.5175 -0.2966
10296WAT     H241891   3.055   3.615   5.182  0.6808 -1.8449 -0.5910
10296WAT    EPW41892   2.985   3.611   5.147 -0.7426  0.0738  0.4659
10297WAT      O41893   2.474   4.572   5.416 -0.1778 -0.0760 -1.0301
10297WAT     H141894   2.509   4.652   5.409  1.5903 -0.7102 -0.0467
10297WAT     H241895   2.528   4.521   5.370  0.2764 -1.0895  0.5406
10297WAT    EPW41896   2.487   4.577   5.408  0.1281 -0.9339  0.5091
10298WAT      O41897   3.822   5.848   4.778 -0.1930 -0.2462 -0.0857
10298WAT     H141898   3.893   5.897   4.789 -0.2128 -0.5058  1.3169
10298WAT     H241899   3.838   5.806   4.703 -0.1171  1.7399 -1.2567
10298WAT    EPW41900   3.834   5.849   4.769  0.1450 -0.3596 -0.5994
10299WAT      O41901   2.084   4.397   4.526  0.2179  0.5677  0.5147
10299WAT     H141902   2.149   4.394   4.584 -0.5353  0.0744  1.3631
10299WAT     H241903   2.058   4.314   4.519 -0.8498  0.8537  0.8322
10299WAT    EPW41904   2.090   4.385   4.534 -0.6093 -0.4985  0.3432
10300WAT      O41905   3.358   1.037   5.639  0.1970  0.0406 -0.8355
10300WAT     H141906   3.315   1.002   5.571 -0.5481 -1.1202  0.1972
10300WAT     H241907   3.298   1.088   5.677 -0.0330 -0.9030  0.1064
10300WAT    EPW41908   3.343   1.039   5.634  0.0192  0.1439 -0.5066
10301WAT      O41909   3.213   3.493   7.398  0.4540  0.3055 -0.7494
10301WAT     H141910   3.258   3.520   7.467  0.0508 -1.4860  0.2988
10301WAT     H241911   3.262   3.517   7.330  1.5240  0.9590  0.2157
10301WAT    EPW41912   3.227   3.500   7.398 -0.3089  0.0683 -0.8055
10302WAT      O41913   5.484   3.825   7.368  0.1303 -0.3557  0.0505
10302WAT     H141914   5.502   3.879   7.434  3.9280 -1.6034  0.2467
10302WAT     H241915   5.481   3.878   7.299  0.3547  0.4720  0.6517
10302WAT    EPW41916   5.486   3.841   7.368  0.1575  0.6642 -0.6964
10303WAT      O41917   1.832   3.883   4.013 -0.0285 -0.8453 -0.1481
10303WAT     H141918   1.793   3.956   3.984 -0.8077 -1.1727  0.0458
10303WAT     H241919   1.899   3.873   3.958  1.9527  1.6315  1.5666
10303WAT    EPW41920   1.836   3.893   4.000 -0.3943  0.0407 -0.3611
10304WAT      O41921   4.173   5.801   5.478  0.6313  0.1918  0.7568
10304WAT     H141922   4.211   5.784   5.401  0.8493  0.0239  0.9010
10304WAT     H241923   4.210   5.744   5.532  1.5059  1.2159  1.2879
10304WAT    EPW41924   4.184   5.790   5.475 -0.3761 -0.4390 -0.2120
10305WAT      O41925   3.552   2.264   3.476 -0.0526  0.4876 -0.0489
10305WAT     H141926   3.631   2.301   3.471  0.2192 -0.2499 -2.1064
10305WAT     H241927   3.556   2.200   3.418 -1.9584 -0.0108  0.3189
10305WAT    EPW41928   3.564   2.260   3.467 -0.0223 -0.9369  0.1699
10306WAT      O41929   3.987   4.419   3.959 -0.6141 -0.5069  0.0372
10306WAT     H141930   4.072   4.435   3.955 -0.5273 -1.0208 -0.3187
10306WAT     H241931   3.978   4.376   4.035 -0.7798  0.7797  0.7658
10306WAT    EPW41932   3.998   4.415   3.970  0.4843  0.3399 -0.1194
10307WAT      O41933   7.004   1.162   3.931 -0.3520  0.3956 -0.3778
10307WAT     H141934   6.963   1.140   3.857 -1.2821  0.8446 -0.0102
10307WAT     H241935   6.988   1.248   3.938 -1.3804  0.1354  0.9907
10307WAT    EPW41936   6.995   1.172   3.921 -0.3773 -0.2429  0.6027
10308WAT      O41937   1.489   6.945   0.935  0.1102 -0.1028  0.4039
10308WAT     H141938   1.559   6.972   0.978  1.2683  0.3400 -1.6041
10308WAT     H241939   1.521   6.889   0.876 -1.6723 -2.4525  1.5070
10308WAT    EPW41940   1.504   6.941   0.933  0.2530  0.0947  0.8351
10309WAT      O41941   0.752   2.821   1.251  0.8100 -0.2881 -0.5592
10309WAT     H141942   0.695   2.857   1.306  2.1811  1.1615 -0.0304
10309WAT     H241943   0.801   2.771   1.302  1.1702 -0.0855 -0.7039
10309WAT    EPW41944   0.750   2.819   1.267 -0.3360 -0.3121  0.5387
10310WAT      O41945   0.134   0.149   3.688 -0.0277 -0.5130  0.0178
10310WAT     H141946   0.179   0.081   3.657 -1.2556 -1.0943 -0.5405
10310WAT     H241947   0.105   0.188   3.616 -0.8063 -0.4138  0.3813
10310WAT    EPW41948   0.136   0.145   3.673  0.0503  0.5659  0.4298
10311WAT      O41949   2.474   3.900   3.054  0.1938  0.3152 -0.2541
10311WAT     H141950   2.551   3.935   3.035  0.0251  0.3309 -0.9524
10311WAT     H241951   2.417   3.964   3.037  0.0114  0.2421  0.0685
10311WAT    EPW41952   2.477   3.915   3.048 -0.0282  0.3856  0.0417
10312WAT      O41953   2.599   2.748   6.557  0.1574  0.2135  0.5098
10312WAT     H141954   2.523   2.770   6.594 -0.6715 -1.5697 -0.0155
10312WAT     H241955   2.603   2.662   6.569  0.4760 -0.2684 -2.3430
10312WAT    EPW41956   2.588   2.738   6.564  0.6153 -0.3024 -0.3804
10313WAT      O41957   0.960   3.687   0.640  0.7618 -0.8380  0.6557
10313WAT     H141958   0.910   3.723   0.579 -0.5594 -0.7618  1.7372
10313WAT     H241959   0.918   3.614   0.662  0.2178 -0.0161  2.6626
10313WAT    EPW41960   0.947   3.681   0.634  0.0563 -0.5726 -0.0619
10314WAT      O41961   1.937   4.807   5.147 -0.1324  0.3705 -0.1146
10314WAT     H141962   1.884   4.864   5.188  0.3665  1.0543 -0.4073
10314WAT     H241963   2.005   4.801   5.201 -0.1818  0.0500 -0.0873
10314WAT    EPW41964   1.939   4.814   5.161 -0.6386 -0.3224  0.5207
10315WAT      O41965   0.465   4.160   3.441 -0.3807  0.0566 -0.0134
10315WAT     H141966   0.384   4.126   3.438  0.2033 -1.3210 -1.5383
10315WAT     H241967   0.513   4.102   3.396  0.7794  2.7288 -2.4972
10315WAT    EPW41968   0.460   4.146   3.434 -0.9584 -0.1675  0.2959
10316WAT      O41969   1.477   6.563   3.532 -0.1222 -0.5605  0.0876
10316WAT     H141970   1.498   6.539   3.451  0.3233  0.6053 -0.1548
10316WAT     H241971   1.392   6.581   3.527  0.3809  2.0336 -0.8141
10316WAT    EPW41972   1.468   6.562   3.519 -0.7486  0.1709  0.4402
10317WAT      O41973   2.473   6.655   6.255 -0.2086  0.0598  0.2148
10317WAT     H141974   2.518   6.711   6.206  0.2067  0.2288  0.7873
10317WAT     H241975   2.400   6.698   6.275 -0.2511  0.0940 -0.0165
10317WAT    EPW41976   2.469   6.669   6.251 -0.4566 -0.2248 -0.1341
10318WAT      O41977   5.928   2.876   0.997 -0.0565 -0.1333  0.2556
10318WAT     H141978   5.928   2.955   0.961  0.3626  0.9613  2.5097
10318WAT     H241979   5.994   2.835   0.956  1.0139  1.3557  0.4305
10318WAT    EPW41980   5.938   2.882   0.985 -0.0853  0.4223  0.2701
10319WAT      O41981   3.547   0.808   2.495 -0.1379 -0.0976  0.2589
10319WAT     H141982   3.462   0.825   2.486 -0.3824 -0.1644  2.0368
10319WAT     H241983   3.548   0.725   2.523  0.5856 -0.3979 -0.5840
10319WAT    EPW41984   3.535   0.798   2.498  0.4352 -0.0060 -0.2326
10320WAT      O41985   1.364   4.694   2.139  0.9921 -1.1284  0.2115
10320WAT     H141986   1.430   4.741   2.170  1.2431 -0.2192 -1.5486
10320WAT     H241987   1.293   4.735   2.167  1.2062 -0.6401  0.0412
10320WAT    EPW41988   1.363   4.707   2.148 -0.3532 -0.4271 -0.2466
10321WAT      O41989   2.722   3.246   5.032  0.1438  0.1675  0.1043
10321WAT     H141990   2.734   3.300   5.100  0.7481 -1.5430  1.4380
10321WAT     H241991   2.773   3.178   5.051 -1.1342 -1.2044 -1.1225
10321WAT    EPW41992   2.731   3.244   5.045 -0.1030 -0.2962  0.1076
10322WAT      O41993   1.022   4.531   1.476  0.2960  0.3893 -0.4998
10322WAT     H141994   1.104   4.502   1.472 -0.0579 -1.2697  1.8399
10322WAT     H241995   0.989   4.513   1.398  1.3402 -1.7812 -0.5089
10322WAT    EPW41996   1.030   4.524   1.464 -0.5522 -0.0153 -0.1859
10323WAT      O41997   0.856   3.359   2.142 -0.2962  0.1237 -0.1551
10323WAT     H141998   0.847   3.342   2.227 -1.3286  2.2342  0.2144
10323WAT     H241999   0.817   3.292   2.103 -0.1124 -0.6932  1.0244
10323WAT    EPW42000   0.849   3.347   2.149  0.1681  0.1926 -0.7008
10324WAT      O42001   4.281   1.992   1.645  0.1829  0.2351  0.1244
10324WAT     H142002   4.343   1.944   1.684  0.5876  0.0702 -0.7162
10324WAT     H242003   4.244   2.035   1.712  0.9477  0.0556  0.6765
10324WAT    EPW42004   4.285   1.991   1.661  0.0442 -0.0205  0.0008
10325WAT      O42005   0.671   0.944   0.819 -0.0270  0.0506 -0.0001
10325WAT     H142006   0.692   0.878   0.872  0.9931 -0.9329 -1.5687
10325WAT     H242007   0.691   0.914   0.739 -0.2601  1.9745 -0.8348
10325WAT    EPW42008   0.677   0.930   0.815  0.1211 -0.0393  0.7417
10326WAT      O42009   1.550   7.696   2.372 -0.5707  0.1757 -0.3382
10326WAT     H142010   1.537   7.744   2.444  1.0920  0.4124 -0.1535
10326WAT     H242011   1.494   7.731   2.315 -1.6806  0.2034  0.7314
10326WAT    EPW42012   1.540   7.708   2.374 -0.3138 -0.0125 -0.0003
10327WAT      O42013   7.869   1.217   4.827 -0.4204  0.4286 -0.3245
10327WAT     H142014   7.840   1.222   4.909 -3.6259  0.3215 -1.3358
10327WAT     H242015   7.902   1.297   4.812 -0.9978  0.8603  0.6450
10327WAT    EPW42016   7.870   1.229   4.837 -0.1220 -0.5235 -0.0372
10328WAT      O42017   1.083   2.618   4.303  0.2440  0.1053 -0.1159
10328WAT     H142018   1.063   2.673   4.239 -0.2817 -1.0249 -0.9624
10328WAT     H242019   1.146   2.660   4.347 -0.8629  1.8119 -0.0747
10328WAT    EPW42020   1.090   2.632   4.300 -0.4517 -0.3353 -1.0740
10329WAT      O42021   2.752   4.697   2.911  0.7680 -0.1468 -0.5076
10329WAT     H142022   2.815   4.740   2.870  1.1118  1.2001  1.3250
10329WAT     H242023   2.682   4.747   2.899  0.5700 -0.4345 -0.5648
10329WAT    EPW42024   2.751   4.711   2.903  0.5338 -0.0807 -0.0410
10330WAT      O42025   2.416   4.184   2.798 -0.2769 -0.4090 -0.0483
10330WAT     H142026   2.397   4.267   2.779  1.7151  0.2901  0.7832
10330WAT     H242027   2.419   4.183   2.886 -1.8898 -1.7913  0.0531
10330WAT    EPW42028   2.413   4.196   2.809 -1.0298  0.0237  0.3912
10331WAT      O42029   1.905   4.441   3.951  0.0827 -0.1163  0.3103
10331WAT     H142030   1.923   4.391   4.020 -1.6857  0.1775  1.0526
10331WAT     H242031   1.981   4.446   3.908  1.0476 -0.9062  1.8417
10331WAT    EPW42032   1.919   4.435   3.955 -0.7784 -0.0617 -0.2477
10332WAT      O42033   1.696   1.191   4.042 -0.2474 -0.5546 -0.3730
10332WAT     H142034   1.626   1.170   4.090 -0.0573  1.6481  1.0051
10332WAT     H242035   1.696   1.278   4.043  1.0895 -0.4572 -2.5242
10332WAT    EPW42036   1.685   1.201   4.049  1.1504 -0.3591  0.1842
10333WAT      O42037   2.206   2.784   7.969  0.5299  0.4157  0.0125
10333WAT     H142038   2.274   2.731   7.980 -0.8105 -1.8314 -1.6758
10333WAT     H242039   2.148   2.756   8.028 -0.2264 -0.1441 -0.9603
10333WAT    EPW42040   2.208   2.772   7.979  0.4643 -0.1202  0.1547
10334WAT      O42041   1.083   5.379   4.473  0.0936 -0.1289  0.0091
10334WAT     H142042   1.170   5.375   4.475  0.0484 -1.3855  0.1067
10334WAT     H242043   1.063   5.349   4.393 -0.1771  2.7743 -1.1497
10334WAT    EPW42044   1.093   5.374   4.462  0.0345 -0.2527  0.2438
10335WAT      O42045   3.200   6.038   4.984 -0.2657  0.4887  0.1600
10335WAT     H142046   3.241   6.008   5.055  1.3011 -0.1000 -0.9439
10335WAT     H242047   3.173   5.965   4.944 -1.6260  0.8373  0.3952
10335WAT    EPW42048   3.202   6.023   4.989  0.3486  0.8794 -0.4607
10336WAT      O42049   0.202   4.402   4.447  0.2017 -0.6708  0.1563
10336WAT     H142050   0.262   4.389   4.509 -2.2278  0.1024  2.8736
10336WAT     H242051   0.146   4.336   4.459 -1.2006  0.4413 -0.0049
10336WAT    EPW42052   0.203   4.390   4.458 -0.2551 -0.1522  0.3670
10337WAT      O42053   1.223   5.041   2.138 -0.0328  0.1981 -0.3002
10337WAT     H142054   1.294   5.029   2.187 -0.2567  2.6442  0.7778
10337WAT     H242055   1.177   5.099   2.184 -1.8828  0.0390 -1.8493
10337WAT    EPW42056   1.227   5.048   2.152  0.1662 -0.8781 -0.1582
10338WAT      O42057   3.797   1.019   3.347 -0.1073 -0.3282  0.4750
10338WAT     H142058   3.844   0.958   3.305 -1.8250 -0.7894 -0.9157
10338WAT     H242059   3.834   1.094   3.322 -0.2797 -0.6597 -0.8588
10338WAT    EPW42060   3.809   1.021   3.337  0.4638 -0.2613 -0.1816
10339WAT      O42061   7.357   7.561   0.522  0.2810  0.5284 -0.6648
10339WAT     H142062   7.361   7.580   0.607 -0.9956 -0.8996 -0.2469
10339WAT     H242063   7.441   7.561   0.497  0.7630 -0.0860  0.8529
10339WAT    EPW42064   7.370   7.564   0.531 -0.4266  0.0277 -0.5095
10340WAT      O42065   4.161   4.652   7.593  0.4346 -0.2146 -0.0064
10340WAT     H142066   4.098   4.680   7.540  0.4115 -0.5774 -0.1761
10340WAT     H242067   4.126   4.581   7.630  0.0027  0.6888  1.3847
10340WAT    EPW42068   4.147   4.646   7.591  0.1992 -0.0060 -0.5202
10341WAT      O42069   7.038   5.751   2.591 -0.0354 -0.4419  0.2050
10341WAT     H142070   6.987   5.807   2.635 -0.7106 -1.0273  0.1858
10341WAT     H242071   7.118   5.767   2.622 -0.4043 -0.3648  1.1525
10341WAT    EPW42072   7.042   5.761   2.602 -0.2197  0.5187  0.1729
10342WAT      O42073   2.155   3.303   3.558  0.0372  0.6229 -0.6262
10342WAT     H142074   2.115   3.256   3.497 -1.5955  2.2388 -0.8895
10342WAT     H242075   2.201   3.362   3.513  2.6872 -1.0178 -0.3248
10342WAT    EPW42076   2.156   3.305   3.543 -0.6296 -0.6632 -0.2830
10343WAT      O42077   8.058   6.395   0.973 -0.0766  0.4487 -0.1600
10343WAT     H142078   8.003   6.364   1.033 -1.7349  2.5802 -0.4666
10343WAT     H242079   8.055   6.335   0.909 -0.9970 -0.1210  0.4019
10343WAT    EPW42080   8.050   6.381   0.972  0.0680  0.0624  0.0480
10344WAT      O42081   7.711   0.092   3.586  0.2076  0.3540  0.5401
10344WAT     H142082   7.631   0.119   3.564  1.0491  2.0735 -0.6527
10344WAT     H242083   7.708   0.085   3.673 -0.6917  2.4694  0.7428
10344WAT    EPW42084   7.699   0.095   3.596  0.1407 -0.1863 -0.2888
10345WAT      O42085   3.096   1.164   3.930  0.0095  0.4766 -0.6370
10345WAT     H142086   3.043   1.098   3.949 -0.4098  0.5261 -1.5493
10345WAT     H242087   3.041   1.227   3.903  0.3805  1.2823  0.4263
10345WAT    EPW42088   3.080   1.164   3.929 -0.1508  0.2116  0.4173
10346WAT      O42089   1.230   5.924   5.152 -0.0276  0.2135  0.8185
10346WAT     H142090   1.292   5.926   5.213  0.8215  2.5861  0.0103
10346WAT     H242091   1.156   5.928   5.198  0.4689 -0.6499  1.7398
10346WAT    EPW42092   1.229   5.925   5.168 -0.2428  0.2509 -0.8822
10347WAT      O42093   7.610   5.033   3.828 -0.0085 -0.1023  0.2497
10347WAT     H142094   7.691   5.062   3.814  0.0294 -0.4227 -0.2176
10347WAT     H242095   7.564   5.067   3.761 -0.0109 -0.9090 -0.1664
10347WAT    EPW42096   7.615   5.043   3.816 -0.5446  0.3463  0.3231
10348WAT      O42097   7.857   2.111   3.658 -0.2220  0.4553  0.8397
10348WAT     H142098   7.824   2.033   3.678  0.3500 -0.2750 -0.9013
10348WAT     H242099   7.938   2.108   3.690  0.4295 -0.4073 -0.8131
10348WAT    EPW42100   7.864   2.099   3.666 -0.4495  1.3513 -0.3023
10349WAT      O42101   2.117   3.253   6.918 -0.0718  0.5485  0.1584
10349WAT     H142102   2.035   3.277   6.898  0.2190  0.3836 -1.3140
10349WAT     H242103   2.110   3.225   7.001 -1.3844  1.0665  0.2526
10349WAT    EPW42104   2.104   3.252   6.928 -0.2295  0.2946 -0.4683
10350WAT      O42105   3.317   4.181   3.682  0.4883  0.5771  0.1032
10350WAT     H142106   3.248   4.145   3.721 -0.3413  1.9756 -0.0373
10350WAT     H242107   3.295   4.183   3.598  1.6125 -0.9413 -0.2646
10350WAT    EPW42108   3.304   4.176   3.676 -0.8009 -0.6203 -0.1037
10351WAT      O42109   1.311   0.953   2.507 -0.0163 -0.3553 -0.2273
10351WAT     H142110   1.373   0.897   2.533  1.1246  1.2229  0.6293
10351WAT     H242111   1.243   0.932   2.557  0.3308 -1.0600 -0.0266
10351WAT    EPW42112   1.310   0.941   2.518 -0.3189 -0.2015  0.1117
10352WAT      O42113   1.715   5.588   7.827  0.3434  0.2234  0.2084
10352WAT     H142114   1.767   5.628   7.884 -0.9926  1.8197  0.3787
10352WAT     H242115   1.693   5.652   7.771 -1.0726 -0.5068 -0.1050
10352WAT    EPW42116   1.719   5.603   7.827 -0.1003 -0.0100 -0.1425
10353WAT      O42117   3.400   1.542   1.984 -0.2012  0.3566  0.4261
10353WAT     H142118   3.471   1.584   2.010 -0.1262 -0.2004  1.1313
10353WAT     H242119   3.335   1.594   2.010 -0.0720  1.0162 -0.4829
10353WAT    EPW42120   3.401   1.556   1.991 -0.8071  0.3763  0.4577
10354WAT      O42121   6.835   4.313   1.377 -0.3874 -0.1008 -0.0317
10354WAT     H142122   6.873   4.235   1.373 -3.0669 -2.0773  4.5537
10354WAT     H242123   6.785   4.315   1.307  0.8327 -1.7979 -1.0366
10354WAT    EPW42124   6.833   4.302   1.366 -0.1210 -0.2664  0.4383
10355WAT      O42125   2.034   5.157   2.495 -0.0241 -0.7104  0.0781
10355WAT     H142126   2.118   5.133   2.504  0.6242  0.9898 -1.0096
10355WAT     H242127   2.014   5.132   2.414 -0.7079 -1.4259  0.4556
10355WAT    EPW42128   2.043   5.150   2.485  0.8441 -0.0728 -0.0880
10356WAT      O42129   2.570   0.771   4.319  0.6610  0.0387  0.2016
10356WAT     H142130   2.606   0.692   4.311  1.4700  0.3404  0.6605
10356WAT     H242131   2.510   0.760   4.381  1.1204 -0.1122  0.6310
10356WAT    EPW42132   2.567   0.758   4.327  0.2853  0.2621  0.0978
10357WAT      O42133   4.556   5.566   2.842 -0.0822  0.1163 -0.2038
10357WAT     H142134   4.483   5.585   2.884  0.5610  0.7453  0.6580
10357WAT     H242135   4.612   5.545   2.906  0.6785  0.2896 -0.7974
10357WAT    EPW42136   4.554   5.566   2.857 -0.2314 -0.3541 -0.1735
10358WAT      O42137   3.190   3.612   1.490 -0.0601  0.1132  0.2298
10358WAT     H142138   3.132   3.605   1.425  0.8471 -0.9683 -0.5030
10358WAT     H242139   3.232   3.536   1.488 -1.4813 -0.9439  3.5655
10358WAT    EPW42140   3.188   3.600   1.480  0.3620 -0.4233 -0.0073
10359WAT      O42141   1.675   4.554   2.334  0.1612 -0.0077  0.4013
10359WAT     H142142   1.747   4.601   2.351  0.5463 -0.3887 -0.1288
10359WAT     H242143   1.682   4.537   2.248 -1.1347  0.9062  0.0923
10359WAT    EPW42144   1.687   4.558   2.324  0.4151 -0.1604  0.6261
10360WAT      O42145   1.484   4.703   3.894 -0.3618 -0.0634  0.0106
10360WAT     H142146   1.490   4.782   3.859  0.8116 -0.0246  0.2300
10360WAT     H242147   1.473   4.719   3.979 -1.9270 -0.1537 -0.1559
10360WAT    EPW42148   1.483   4.717   3.901 -0.2986 -0.2873 -0.6096
10361WAT      O42149   6.883   4.823   1.791  0.2043 -0.3263  0.3830
10361WAT     H142150   6.850   4.842   1.870 -1.2004 -0.5135 -0.1284
10361WAT     H242151   6.928   4.894   1.770  0.8718 -0.3938  1.4732
10361WAT    EPW42152   6.885   4.836   1.800 -0.2149  0.5685 -0.3638
10362WAT      O42153   3.595   7.729   4.497 -0.1522  0.6746 -0.4653
10362WAT     H142154   3.621   7.810   4.519  0.0522  0.3184  0.7170
10362WAT     H242155   3.530   7.713   4.553 -2.2708  1.1126 -2.6430
10362WAT    EPW42156   3.589   7.738   4.509 -0.1191  0.3181 -0.5507
10363WAT      O42157   2.450   4.334   1.275  0.1852  0.3465 -0.6619
10363WAT     H142158   2.525   4.342   1.233  1.0069  1.1062  0.8622
10363WAT     H242159   2.473   4.317   1.357 -1.3264 -0.3482 -0.3380
10363WAT    EPW42160   2.464   4.333   1.281 -0.0076 -0.2818  0.5956
10364WAT      O42161   3.599   6.294   0.305 -0.2444 -0.1639  0.0770
10364WAT     H142162   3.609   6.334   0.381  0.9387  1.1096 -0.7212
10364WAT     H242163   3.609   6.209   0.325 -0.5402  0.0977  1.4132
10364WAT    EPW42164   3.602   6.287   0.319 -0.8037  0.4633 -0.2047
10365WAT      O42165   4.228   6.077   2.704 -0.1311 -0.1072 -0.4360
10365WAT     H142166   4.159   6.113   2.665  0.5518  1.5446 -0.1764
10365WAT     H242167   4.256   6.138   2.759  1.1651 -0.9814 -0.0638
10365WAT    EPW42168   4.222   6.091   2.706  0.2305 -0.4481  0.1406
10366WAT      O42169   0.551   4.528   4.966  0.1883  0.0281  0.0669
10366WAT     H142170   0.613   4.538   4.905 -0.0422  3.6470  0.1822
10366WAT     H242171   0.577   4.580   5.031 -1.1167 -1.3306  1.7915
10366WAT    EPW42172   0.564   4.537   4.967 -0.1888 -0.6444  0.4988
10367WAT      O42173   2.795   3.891   5.222  0.0026  0.4854  0.1080
10367WAT     H142174   2.806   3.867   5.305  1.0741 -0.4740 -0.2915
10367WAT     H242175   2.777   3.976   5.228 -0.7689  0.2676  1.3673
10367WAT    EPW42176   2.794   3.900   5.235 -0.4364  0.6651 -0.0404
10368WAT      O42177   5.223   1.510   6.569 -0.5814  0.6921  0.2496
10368WAT     H142178   5.195   1.590   6.547  1.3770  1.3027 -0.2307
10368WAT     H242179   5.296   1.526   6.614  1.1111 -0.8255 -1.7439
10368WAT    EPW42180   5.230   1.524   6.572  0.0802 -0.0499  0.5274
10369WAT      O42181   8.094   6.153   1.351  0.0226  0.7698  0.0613
10369WAT     H142182   8.043   6.105   1.404  0.7189  0.4755  0.4871
10369WAT     H242183   8.076   6.235   1.374 -0.3948  0.6770  0.0763
10369WAT    EPW42184   8.084   6.158   1.362 -0.6151  0.0959 -0.3571
10370WAT      O42185   6.206   1.576   4.239 -0.1466  0.4313  0.1909
10370WAT     H142186   6.231   1.564   4.156 -0.2290 -0.9591  0.3525
10370WAT     H242187   6.217   1.662   4.251  0.8682  0.4859 -0.9381
10370WAT    EPW42188   6.212   1.587   4.229  0.2731 -0.4548 -0.3993
10371WAT      O42189   6.990   3.833   4.494  0.0074 -0.1095  0.1900
10371WAT     H142190   6.983   3.813   4.409 -0.0611  0.6893 -0.0046
10371WAT     H242191   7.025   3.913   4.493 -3.9259  1.8566  0.7263
10371WAT    EPW42192   6.994   3.842   4.481 -0.2552  0.2252  0.2238
10372WAT      O42193   5.867   0.663   7.216 -0.0091  0.3895 -0.1781
10372WAT     H142194   5.805   0.605   7.197  0.2138  0.9079 -2.8970
10372WAT     H242195   5.849   0.730   7.164  2.6701  0.6672 -0.8996
10372WAT    EPW42196   5.855   0.664   7.206  0.3495 -0.8316 -0.0266
10373WAT      O42197   2.372   3.395   6.156  0.1586 -0.4248 -0.4302
10373WAT     H142198   2.396   3.319   6.121 -2.1029 -1.3907 -0.0732
10373WAT     H242199   2.287   3.399   6.140  0.0864  1.7394  0.1647
10373WAT    EPW42200   2.363   3.385   6.148  0.6971 -0.2523  0.4581
10374WAT      O42201   3.594   4.843   3.890 -0.4626 -0.1522 -0.4908
10374WAT     H142202   3.674   4.857   3.858 -0.5851  0.0599 -0.7107
10374WAT     H242203   3.601   4.863   3.974  0.9402 -4.5902  0.7079
10374WAT    EPW42204   3.607   4.848   3.897  0.2334  0.0104 -0.1605
10375WAT      O42205   1.351   4.151   3.762 -0.5192 -0.7552  0.2831
10375WAT     H142206   1.362   4.102   3.691 -1.9030 -0.5270 -0.1286
10375WAT     H242207   1.423   4.201   3.764 -0.3222 -0.9659 -0.8048
10375WAT    EPW42208   1.363   4.151   3.752  0.2388 -0.2801 -0.4577
10376WAT      O42209   3.132   3.523   5.614 -0.0076 -0.3102  0.0827
10376WAT     H142210   3.188   3.473   5.568  0.8640  1.0023 -0.3558
10376WAT     H242211   3.185   3.571   5.664 -0.6508  1.5954 -0.9736
10376WAT    EPW42212   3.148   3.523   5.614  0.6181 -0.0571 -0.5378
10377WAT      O42213   2.689   4.482   7.744  0.3937  0.2881 -0.4761
10377WAT     H142214   2.766   4.491   7.784  0.2397  0.0447 -0.1225
10377WAT     H242215   2.670   4.563   7.719  1.0067  0.2762 -1.0241
10377WAT    EPW42216   2.698   4.495   7.746  0.0120 -0.3151  0.6340
10378WAT      O42217   6.867   5.619   2.427  0.7047  0.5653  0.6418
10378WAT     H142218   6.803   5.677   2.416  0.5736  0.1401 -1.0914
10378WAT     H242219   6.921   5.659   2.482 -0.2200  1.6149  0.8270
10378WAT    EPW42220   6.866   5.634   2.434  0.2286  0.1789  0.6131
10379WAT      O42221   2.280   0.200   2.253  0.1522  0.3672  0.1306
10379WAT     H142222   2.299   0.137   2.196  0.1988  0.3769  0.1352
10379WAT     H242223   2.193   0.197   2.259  0.2517 -1.7296  2.3838
10379WAT    EPW42224   2.270   0.190   2.246 -0.2763  0.0293  0.0069
10380WAT      O42225   1.489   4.959   5.238 -0.2091 -0.2655  0.2942
10380WAT     H142226   1.435   4.904   5.279 -0.6760  0.2729  0.4118
10380WAT     H242227   1.444   4.982   5.167 -0.7506  1.2776  1.0882
10380WAT    EPW42228   1.474   4.954   5.234 -0.2308  0.0044  0.0426
10381WAT      O42229   4.657   5.839   3.465  0.5730  0.2425  0.0388
10381WAT     H142230   4.723   5.866   3.414  0.1987 -1.4253 -1.4062
10381WAT     H242231   4.690   5.769   3.505 -0.3637 -0.7468 -0.8740
10381WAT    EPW42232   4.672   5.833   3.464  0.6218 -0.1628 -0.6514
10382WAT      O42233   2.752   5.284   0.442  0.3699  0.0557  0.0970
10382WAT     H142234   2.812   5.337   0.407  0.2338  0.0158 -0.1987
10382WAT     H242235   2.798   5.214   0.466  0.5484  0.3006  0.4764
10382WAT    EPW42236   2.768   5.282   0.440  0.3609  0.0019  0.6396
10383WAT      O42237   3.132   2.685   0.670  0.5685  0.0039 -0.3789
10383WAT     H142238   3.051   2.653   0.678  0.9405 -1.2638 -1.3264
10383WAT     H242239   3.119   2.767   0.642 -0.3930 -0.0515 -0.1130
10383WAT    EPW42240   3.118   2.692   0.667  0.1620  0.3734  0.0448
10384WAT      O42241   1.967   1.743   3.848  0.2983 -0.0354  0.5012
10384WAT     H142242   1.884   1.716   3.854  0.4869 -0.7164  0.1318
10384WAT     H242243   2.011   1.671   3.826  0.6803  0.7498 -1.5413
10384WAT    EPW42244   1.961   1.728   3.846  0.1318  0.1722 -0.2846
10385WAT      O42245   2.865   0.293   4.318  0.5900  0.2246  0.0629
10385WAT     H142246   2.873   0.226   4.374 -0.6087  0.4043  0.4781
10385WAT     H242247   2.926   0.349   4.344  0.2856  0.1493  0.9633
10385WAT    EPW42248   2.875   0.291   4.330  0.6842 -0.4744  0.2135
10386WAT      O42249   6.087   3.851   5.040 -0.2731  0.6206  0.5226
10386WAT     H142250   6.041   3.780   5.023  0.5366  0.3763 -0.7678
10386WAT     H242251   6.028   3.915   5.042 -0.5545  0.7087 -3.4135
10386WAT    EPW42252   6.072   3.850   5.038 -0.8244 -0.4287  0.2983
10387WAT      O42253   4.754   5.599   5.185  0.2091  0.3278 -0.4466
10387WAT     H142254   4.769   5.605   5.099  0.4388  0.1013 -0.4224
10387WAT     H242255   4.828   5.566   5.217 -0.6007 -1.5689 -0.4200
10387WAT    EPW42256   4.767   5.595   5.177  0.3792  0.2817  0.1316
10388WAT      O42257   1.457   6.202   4.038 -0.2166  0.4432 -0.2552
10388WAT     H142258   1.443   6.283   4.066 -0.9532  0.3040 -0.2023
10388WAT     H242259   1.508   6.214   3.968  0.8828  0.8464  0.5877
10388WAT    EPW42260   1.463   6.216   4.032  0.2941  0.4616 -0.0926
10389WAT      O42261   1.325   3.544   4.158 -0.1788 -0.2305 -0.1619
10389WAT     H142262   1.273   3.602   4.198  1.1535  0.3876  0.7800
10389WAT     H242263   1.399   3.548   4.206  0.2265 -2.1073 -0.5794
10389WAT    EPW42264   1.328   3.553   4.171  0.8746 -0.2127 -0.3596
10390WAT      O42265   1.554   0.913   5.653 -0.2630  0.2273  0.3468
10390WAT     H142266   1.516   0.896   5.576  0.9183  3.5200 -1.1334
10390WAT     H242267   1.624   0.860   5.653  0.7994  1.4954 -1.8432
10390WAT    EPW42268   1.559   0.902   5.642 -0.2915 -0.2792 -0.2104
10391WAT      O42269   2.249   5.678   2.791 -0.4111 -0.4683  0.2945
10391WAT     H142270   2.312   5.733   2.816  0.3705 -0.3195 -1.7893
10391WAT     H242271   2.197   5.728   2.742 -0.1024 -1.3783 -1.0146
10391WAT    EPW42272   2.251   5.693   2.787 -0.3632  0.1084 -0.1933
10392WAT      O42273   2.736   7.748   5.624  0.2009  0.1975 -0.6806
10392WAT     H142274   2.716   7.680   5.573  0.4295  1.6871 -2.8980
10392WAT     H242275   2.822   7.740   5.636  0.0380 -0.5412  0.1324
10392WAT    EPW42276   2.746   7.737   5.618 -0.0393 -0.0573 -0.1786
10393WAT      O42277   2.014   0.848   4.321  0.7622 -0.2455  0.0436
10393WAT     H142278   1.990   0.919   4.276  0.2054  0.6347  1.6456
10393WAT     H242279   1.966   0.784   4.287  1.4473  0.0570 -1.5935
10393WAT    EPW42280   2.004   0.849   4.310  0.1593 -0.0736 -0.3424
10394WAT      O42281   3.033   7.773   4.168 -0.3756  0.8644  0.8869
10394WAT     H142282   3.091   7.784   4.233  0.1880  1.7079  0.2608
10394WAT     H242283   3.054   7.695   4.135  1.7311  1.9521 -0.5782
10394WAT    EPW42284   3.045   7.763   4.173 -0.5393  1.0202 -0.0620
10395WAT      O42285   2.084   3.790   4.203  0.6241  0.0000 -0.2887
10395WAT     H142286   2.081   3.849   4.268  2.3453  0.9651 -1.0255
10395WAT     H242287   2.121   3.720   4.242  2.3037  0.8063 -0.3231
10395WAT    EPW42288   2.089   3.788   4.219  0.0010  0.2272  0.1716
10396WAT      O42289   5.663   1.839   6.851  0.2833  0.1963  0.0916
10396WAT     H142290   5.629   1.855   6.773 -3.4762 -1.1288  1.1991
10396WAT     H242291   5.659   1.916   6.892 -1.2090  0.1823  0.0338
10396WAT    EPW42292   5.657   1.853   6.846  0.2056  0.0964  0.2147
10397WAT      O42293   4.378   7.666   4.444 -0.4336  0.5372  0.7213
10397WAT     H142294   4.379   7.612   4.512 -0.3551 -1.0983 -0.5255
10397WAT     H242295   4.305   7.713   4.456 -0.6283  0.0012  1.7021
10397WAT    EPW42296   4.367   7.665   4.456 -0.3553 -0.4258 -0.5949
10398WAT      O42297   2.367   3.921   3.573  0.2054  0.1140 -0.1916
10398WAT     H142298   2.422   3.881   3.519  0.5033  0.7995 -0.4125
10398WAT     H242299   2.305   3.861   3.588  1.4549 -1.0063  0.7973
10398WAT    EPW42300   2.366   3.906   3.567 -0.5438  0.3340  0.2761
10399WAT      O42301   1.240   2.845   2.733  0.3818 -0.0036  0.0464
10399WAT     H142302   1.302   2.905   2.717 -0.5422  1.3082  1.0994
10399WAT     H242303   1.240   2.839   2.820 -0.5266 -0.4599  0.0228
10399WAT    EPW42304   1.249   2.853   2.743  0.0406  1.0430  0.0287
10400WAT      O42305   1.488   3.964   5.983 -0.6367  0.5448  0.5703
10400WAT     H142306   1.464   3.881   5.980 -0.0079  0.3708  0.1340
10400WAT     H242307   1.439   3.998   6.046 -0.2469 -0.3742  1.3850
10400WAT    EPW42308   1.477   3.957   5.992 -0.0589  0.1329  0.0332
10401WAT      O42309   3.591   3.787   2.931  0.3176  0.2585 -0.3406
10401WAT     H142310   3.579   3.848   2.992 -0.5171 -0.2334 -0.0052
10401WAT     H242311   3.588   3.712   2.975  1.9564 -0.0269 -0.6549
10401WAT    EPW42312   3.589   3.785   2.947 -0.0008 -0.2248 -0.0674
10402WAT      O42313   6.717   0.549   1.803  0.2949 -0.1783  0.0377
10402WAT     H142314   6.681   0.629   1.801 -1.1855 -0.8370 -0.7641
10402WAT     H242315   6.742   0.541   1.886  1.0358  1.3430  0.0111
10402WAT    EPW42316   6.715   0.560   1.815 -0.1406  0.2575 -0.3189
10403WAT      O42317   3.986   5.837   3.817  0.0109  0.3429 -0.2313
10403WAT     H142318   3.912   5.835   3.865 -0.3619 -0.7099 -0.8042
10403WAT     H242319   4.042   5.791   3.865 -0.1103  0.0164 -0.3956
10403WAT    EPW42320   3.983   5.830   3.831  0.8707 -0.2001 -0.4884
10404WAT      O42321   2.577   3.871   3.373 -0.0881  0.2872  0.3796
10404WAT     H142322   2.632   3.857   3.439 -1.6455  1.3252  1.9925
10404WAT     H242323   2.606   3.817   3.310  1.0843 -1.1956  2.0958
10404WAT    EPW42324   2.590   3.861   3.373  0.0512  0.4391 -0.5134
10405WAT      O42325   3.837   4.941   7.811 -0.2108 -0.4030  0.3644
10405WAT     H142326   3.915   4.971   7.836 -0.7235  0.9725  0.4339
10405WAT     H242327   3.844   4.935   7.724 -0.1402  0.1010  0.3315
10405WAT    EPW42328   3.850   4.945   7.802  0.2028 -0.7734  0.5161
10406WAT      O42329   1.598   6.879   2.134  0.0188 -0.0687 -0.0783
10406WAT     H142330   1.534   6.929   2.103 -2.3234 -1.7869  1.5753
10406WAT     H242331   1.604   6.815   2.075  0.0901  0.0148 -0.1610
10406WAT    EPW42332   1.589   6.877   2.121 -0.0192 -0.2387 -0.0540
10407WAT      O42333   2.435   1.323   4.329  0.4112  0.2097 -0.4199
10407WAT     H142334   2.506   1.280   4.355  0.3544  0.7322  0.6540
10407WAT     H242335   2.428   1.301   4.245  0.2243 -2.0939  0.1309
10407WAT    EPW42336   2.445   1.314   4.321 -0.1914 -0.1414 -0.8682
10408WAT      O42337   8.000   4.065   3.110 -0.0980  0.0794 -0.8615
10408WAT     H142338   7.944   4.132   3.112 -0.7596 -0.4801  0.1165
10408WAT     H242339   7.972   4.013   3.173  0.7339 -0.8747 -1.2521
10408WAT    EPW42340   7.988   4.068   3.119  0.3954  0.2400  0.0219
10409WAT      O42341   2.907   6.314   2.028  0.1410 -0.2936  0.7078
10409WAT     H142342   2.856   6.349   1.967  1.6058 -1.7052 -1.4451
10409WAT     H242343   2.879   6.352   2.102 -0.3205  3.1761 -1.0222
10409WAT    EPW42344   2.896   6.325   2.030  0.6263  0.1460 -0.6411
10410WAT      O42345   7.997   5.008   2.638  0.2861 -0.1055 -0.2635
10410WAT     H142346   8.042   4.970   2.702  0.9637  1.8489  0.5172
10410WAT     H242347   7.921   5.029   2.675 -0.2973 -1.1271 -0.8409
10410WAT    EPW42348   7.993   5.006   2.653  0.4895 -0.1083 -0.4760
10411WAT      O42349   4.226   4.422   0.509  0.0408 -0.3174  0.0563
10411WAT     H142350   4.272   4.389   0.576 -0.2799 -0.5670  0.1621
10411WAT     H242351   4.235   4.508   0.518  0.8931 -0.3765 -0.2248
10411WAT    EPW42352   4.234   4.430   0.521  0.0447 -0.2219  0.3747
10412WAT      O42353   3.125   7.248   2.916  0.0205 -0.1348  0.4463
10412WAT     H142354   3.156   7.273   2.839 -0.3767  0.1220  0.3655
10412WAT     H242355   3.190   7.201   2.951  0.7070  0.8335  0.5029
10412WAT    EPW42356   3.139   7.245   2.910  0.0900  0.7745  0.3315
10413WAT      O42357   2.703   2.931   4.118  0.9120  0.0616  0.4013
10413WAT     H142358   2.701   2.941   4.205 -1.8000  0.5129  0.3610
10413WAT     H242359   2.722   3.011   4.089 -3.1188  1.2799  0.5651
10413WAT    EPW42360   2.706   2.945   4.126  0.5784  0.9498  0.2858
10414WAT      O42361   2.380   4.569   4.454  0.1024 -0.3306  0.2238
10414WAT     H142362   2.458   4.599   4.479  0.6674 -1.6283  0.0837
10414WAT     H242363   2.343   4.543   4.528 -0.5062  0.8909  0.3843
10414WAT    EPW42364   2.386   4.570   4.468 -0.1356  0.4653  0.0136
10415WAT      O42365   2.029   5.181   0.146 -0.1438  0.3059  0.2787
10415WAT     H142366   2.003   5.175   0.229  2.2354  2.2757  1.2874
10415WAT     H242367   2.072   5.106   0.132  0.4319  0.4390  1.2470
10415WAT    EPW42368   2.031   5.169   0.156  0.5623 -0.0217  0.6507
10416WAT      O42369   0.430   2.413   2.751 -0.2414  0.1576 -0.0793
10416WAT     H142370   0.452   2.418   2.667  0.2732 -1.6534 -0.0989
10416WAT     H242371   0.457   2.489   2.784 -0.0860  0.7249 -1.4629
10416WAT    EPW42372   0.438   2.425   2.743 -0.5658 -0.3637 -0.3034
10417WAT      O42373   2.831   5.022   4.368  0.3377 -0.2000 -0.4609
10417WAT     H142374   2.791   4.997   4.295 -0.2933 -1.4229  0.2577
10417WAT     H242375   2.873   4.950   4.394  0.4121  0.1518  0.4531
10417WAT    EPW42376   2.831   5.007   4.361 -0.3672 -1.0899  0.2660
10418WAT      O42377   1.023   4.877   1.893  0.4473  0.8716  0.5039
10418WAT     H142378   1.033   4.962   1.875 -1.6771  1.0013 -0.4432
10418WAT     H242379   1.077   4.838   1.836  0.1192  1.5608 -0.3112
10418WAT    EPW42380   1.033   4.884   1.882  0.4132  0.4943  0.7014
10419WAT      O42381   1.315   7.836   0.843  0.6536  0.0587  0.0394
10419WAT     H142382   1.290   7.816   0.762 -1.4619 -1.1371  0.9008
10419WAT     H242383   1.239   7.844   0.886  1.7285  0.0062  2.0457
10419WAT    EPW42384   1.300   7.834   0.838  0.3039  0.3440 -0.0250
10420WAT      O42385   1.850   4.669   5.643 -0.3479 -0.1953  0.3251
10420WAT     H142386   1.927   4.662   5.603 -0.6818 -0.5450 -0.2670
10420WAT     H242387   1.835   4.589   5.674 -0.9863 -0.4159 -0.5270
10420WAT    EPW42388   1.859   4.656   5.642 -0.2207 -0.7574  0.8465
10421WAT      O42389   3.072   3.484   4.906  0.4816 -1.0351 -0.3859
10421WAT     H142390   3.028   3.472   4.832  0.1629 -1.5667 -0.1132
10421WAT     H242391   3.112   3.407   4.919 -1.0206 -1.6310  1.0055
10421WAT    EPW42392   3.071   3.471   4.897  0.6090  0.4790 -0.1895
10422WAT      O42393   2.652   4.816   0.077  0.2159 -0.1853 -0.3801
10422WAT     H142394   2.681   4.734   0.080 -0.2118 -0.4778 -2.5748
10422WAT     H242395   2.709   4.856   0.025 -2.0478 -0.3172 -3.2331
10422WAT    EPW42396   2.665   4.810   0.069  0.0387 -0.1064 -0.5354
10423WAT      O42397   7.579   5.576   2.629 -0.1630 -0.2565 -0.3779
10423WAT     H142398   7.593   5.529   2.701  1.0845 -0.1497 -0.5403
10423WAT     H242399   7.527   5.524   2.581 -1.3471 -0.1545  0.7421
10423WAT    EPW42400   7.573   5.561   2.633  0.1572  0.1538  0.2217
10424WAT      O42401   1.855   0.335   7.035  0.3739 -0.3254  0.5911
10424WAT     H142402   1.901   0.309   7.104  0.2101  0.7892  1.1342
10424WAT     H242403   1.778   0.295   7.046  0.9240 -1.6055  0.0644
10424WAT    EPW42404   1.851   0.325   7.047  0.6663  0.9703  0.3314
10425WAT      O42405   1.586   3.426   2.834 -0.8409  0.2159 -0.1808
10425WAT     H142406   1.590   3.455   2.752 -1.3853  0.0514 -0.2658
10425WAT     H242407   1.534   3.356   2.829  2.1973 -2.2527 -0.4141
10425WAT    EPW42408   1.579   3.420   2.821  0.8382  0.5049 -0.7331
10426WAT      O42409   4.171   1.013   7.867  0.0572  0.5420  0.1433
10426WAT     H142410   4.123   0.988   7.799  1.5419 -1.1223 -0.3747
10426WAT     H242411   4.252   0.989   7.845  0.9017  1.8052  1.6472
10426WAT    EPW42412   4.176   1.006   7.854  0.1927 -0.3762 -0.6152
10427WAT      O42413   2.549   4.972   4.520 -0.0366 -0.2884 -0.3761
10427WAT     H142414   2.595   5.038   4.487 -0.6385 -0.4794 -1.6301
10427WAT     H242415   2.501   4.944   4.453 -0.6252 -1.2787  0.4268
10427WAT    EPW42416   2.549   4.978   4.505  0.4992 -0.2326 -0.5595
10428WAT      O42417   1.825   6.536   0.271 -0.1541  0.1493  0.1124
10428WAT     H142418   1.808   6.450   0.269 -2.8784  0.5836 -2.6401
10428WAT     H242419   1.876   6.547   0.201  0.4241  0.7729  0.6244
10428WAT    EPW42420   1.830   6.525   0.260  0.8467  0.2246 -0.3079
10429WAT      O42421   3.010   6.046   1.845 -0.1914  0.6077  0.4375
10429WAT     H142422   2.993   6.072   1.927  2.8458  0.8417  1.1119
10429WAT     H242423   3.070   6.103   1.818  1.3761 -1.4524 -0.6801
10429WAT    EPW42424   3.016   6.058   1.853  0.0801  0.0892  0.0703
10430WAT      O42425   1.260   6.217   1.120 -0.0503 -0.2158 -0.0813
10430WAT     H142426   1.331   6.263   1.141  0.0655 -0.4511  0.0403
10430WAT     H242427   1.280   6.181   1.043 -0.2747  0.2209 -0.3467
10430WAT    EPW42428   1.273   6.218   1.112 -0.1717  0.1254 -0.3040
10431WAT      O42429   0.102   1.550   3.525 -0.6755 -0.5512 -0.4135
10431WAT     H142430   0.113   1.576   3.443 -0.5601 -2.3061 -0.9935
10431WAT     H242431   0.041   1.604   3.556  0.3326  1.0889 -1.1561
10431WAT    EPW42432   0.094   1.561   3.518  0.6311  0.7430  0.0919
10432WAT      O42433   7.969   6.724   4.011  0.4861  0.0796  0.0270
10432WAT     H142434   7.934   6.776   4.071  0.0736  0.4653 -0.5302
10432WAT     H242435   7.982   6.649   4.053 -2.9587 -0.8372 -0.1926
10432WAT    EPW42436   7.966   6.721   4.026 -0.2577 -0.6015  0.1356
10433WAT      O42437   7.932   6.183   3.095 -0.8194 -0.1371 -0.1722
10433WAT     H142438   7.962   6.107   3.126 -1.7294 -0.4039  0.0625
10433WAT     H242439   7.933   6.236   3.164  0.2465  0.2079 -0.4360
10433WAT    EPW42440   7.937   6.179   3.110 -0.7583  0.8287  0.3557
10434WAT      O42441   2.144   2.188   2.448 -0.0438  0.4699 -0.4207
10434WAT     H142442   2.118   2.259   2.404 -4.4646  1.3509  2.9658
10434WAT     H242443   2.097   2.124   2.412 -0.8039  0.5217  0.4256
10434WAT    EPW42444   2.133   2.189   2.436  0.1237  0.1771 -0.1148
10435WAT      O42445   2.863   1.731   0.183  0.1215  0.2000  0.7874
10435WAT     H142446   2.909   1.794   0.143  0.3734  0.5462  1.5943
10435WAT     H242447   2.816   1.775   0.241 -4.1012  0.4001 -2.3152
10435WAT    EPW42448   2.863   1.747   0.186 -0.4402  0.1934  0.0956
10436WAT      O42449   4.175   3.673   6.099  0.1962 -0.4211 -0.2323
10436WAT     H142450   4.169   3.754   6.068 -0.2724 -0.9257 -1.5451
10436WAT     H242451   4.146   3.680   6.181  0.2791  0.7474 -0.2840
10436WAT    EPW42452   4.170   3.686   6.107 -0.0030 -0.4021  0.3684
10437WAT      O42453   2.160   2.701   2.340 -0.3237 -0.5485 -0.2685
10437WAT     H142454   2.147   2.701   2.426  0.2314  0.9974 -0.1633
10437WAT     H242455   2.158   2.616   2.319 -0.3181 -0.9544  1.2860
10437WAT    EPW42456   2.158   2.688   2.349 -0.0311 -0.0738  0.2260
10438WAT      O42457   4.276   0.482   4.244 -0.8006  0.4968 -0.1037
10438WAT     H142458   4.312   0.417   4.198  0.5630  1.4721 -0.4762
10438WAT     H242459   4.260   0.543   4.184 -0.4968  1.1574  0.4719
10438WAT    EPW42460   4.279   0.482   4.229 -0.0592  0.1273  0.1907
10439WAT      O42461   2.266   5.402   3.584 -0.1681  0.0339 -0.5853
10439WAT     H142462   2.273   5.316   3.595  0.9457  0.2867  1.1456
10439WAT     H242463   2.206   5.410   3.521 -0.4386 -1.9877 -0.6547
10439WAT    EPW42464   2.258   5.391   3.577 -0.5036 -0.2375 -0.0036
10440WAT      O42465   3.171   3.840   2.563 -0.2367  0.6391  0.1713
10440WAT     H142466   3.242   3.794   2.540 -0.6724 -0.3618  0.7429
10440WAT     H242467   3.182   3.917   2.523  1.1255  0.4713  0.1694
10440WAT    EPW42468   3.183   3.845   2.554  0.4344 -0.5033  0.1566
10441WAT      O42469   6.927   6.562   4.325  0.1530 -0.2510  0.1232
10441WAT     H142470   6.973   6.500   4.366  0.1165 -1.0514 -0.9816
10441WAT     H242471   6.965   6.567   4.246  0.1486  1.1481  0.2005
10441WAT    EPW42472   6.939   6.553   4.319  0.0479  0.2496  1.1828
10442WAT      O42473   4.720   2.947   1.029  0.1867  0.0211 -0.0458
10442WAT     H142474   4.731   2.877   1.080 -1.9086  0.5747  1.2686
10442WAT     H242475   4.726   3.014   1.084  0.2289  0.7864 -0.9555
10442WAT    EPW42476   4.723   2.947   1.044  0.0211  0.3556  0.1427
10443WAT      O42477   7.733   0.026   1.780  0.5394  0.0983  0.3253
10443WAT     H142478   7.765   0.107   1.777 -1.7586  1.2209  2.4182
10443WAT     H242479   7.657   0.032   1.738 -0.5427 -0.3920  2.0606
10443WAT    EPW42480   7.726   0.039   1.774  0.1410 -0.3219 -0.2479
10444WAT      O42481   2.471   3.563   5.931 -0.1286  0.8631 -0.2702
10444WAT     H142482   2.534   3.558   5.991  1.5310 -1.1871 -2.0432
10444WAT     H242483   2.406   3.516   5.967  1.3887 -1.6607 -0.5408
10444WAT    EPW42484   2.471   3.555   5.945 -0.0449 -0.2719 -0.7545
10445WAT      O42485   2.674   0.736   7.340  0.6136 -1.0316  0.3188
10445WAT     H142486   2.756   0.755   7.364  0.8793 -0.3692 -1.0136
10445WAT     H242487   2.676   0.743   7.253 -0.3483 -3.0640  0.0616
10445WAT    EPW42488   2.686   0.740   7.331  0.1078 -0.9297  0.5775
10446WAT      O42489   4.720   4.421   0.480 -0.0706 -0.7264 -0.2132
10446WAT     H142490   4.735   4.339   0.507  0.5600 -1.2135 -1.9073
10446WAT     H242491   4.751   4.470   0.544  1.2348 -1.8134  0.0236
10446WAT    EPW42492   4.727   4.416   0.493  0.0328  0.4391  0.3621
10447WAT      O42493   1.919   4.216   2.509 -0.0494 -0.2480 -0.4332
10447WAT     H142494   2.005   4.207   2.499  0.1546  1.0504 -0.0691
10447WAT     H242495   1.896   4.143   2.550  0.8127 -0.7971 -0.8934
10447WAT    EPW42496   1.928   4.204   2.514 -0.0537 -0.2219  0.0152
10448WAT      O42497   1.446   2.901   4.158  1.1036 -0.1180 -0.2307
10448WAT     H142498   1.380   2.953   4.134  0.7121 -0.1503  0.7353
10448WAT     H242499   1.452   2.844   4.092  0.2238 -0.0571 -0.3707
10448WAT    EPW42500   1.437   2.900   4.145  0.4471 -0.6471 -0.4484
10449WAT      O42501   7.629   4.320   3.185 -0.4426 -0.0778  0.0766
10449WAT     H142502   7.716   4.323   3.174 -0.5031 -0.6420 -0.6569
10449WAT     H242503   7.610   4.236   3.167 -1.3642  0.4546 -1.6243
10449WAT    EPW42504   7.639   4.308   3.181  0.2913 -0.4334 -0.8287
10450WAT      O42505   0.978   1.699   7.828  0.4242 -0.0978 -0.6005
10450WAT     H142506   0.929   1.714   7.757  1.1242 -1.3575 -1.3716
10450WAT     H242507   1.058   1.686   7.795  1.0965  0.9084  0.5660
10450WAT    EPW42508   0.982   1.700   7.812  0.0775 -0.8508 -0.0249
10451WAT      O42509   2.795   7.188   5.117  0.3500  0.2009 -0.3816
10451WAT     H142510   2.846   7.258   5.126 -0.3964  0.7180 -0.1686
10451WAT     H242511   2.741   7.192   5.185  1.0464 -1.2268  0.3009
10451WAT    EPW42512   2.795   7.199   5.128  0.0531  0.3420 -0.3393
10452WAT      O42513   7.224   3.649   4.240  0.3697 -0.2198 -0.3033
10452WAT     H142514   7.298   3.674   4.280 -0.5642  1.4889  0.4799
10452WAT     H242515   7.189   3.593   4.296  0.9082 -0.7911 -0.5297
10452WAT    EPW42516   7.230   3.645   4.254  0.1708  0.0559  0.3593
10453WAT      O42517   0.959   2.904   2.678 -0.2517 -0.3980 -1.1545
10453WAT     H142518   0.976   2.843   2.738 -1.7338 -0.1269 -0.4145
10453WAT     H242519   1.034   2.910   2.633  1.1264 -0.1928  1.0293
10453WAT    EPW42520   0.973   2.896   2.680 -0.0135  0.2438  0.0073
10454WAT      O42521   5.571   4.182   1.674  0.6527  0.4841  0.0461
10454WAT     H142522   5.531   4.246   1.630  1.1356  0.3662 -0.5990
10454WAT     H242523   5.647   4.218   1.698 -0.3389  1.1398  2.4330
10454WAT    EPW42524   5.576   4.197   1.671  0.7247 -0.5935  0.0864
10455WAT      O42525   0.112   4.108   0.639  0.1515 -0.5555  0.2409
10455WAT     H142526   0.064   4.175   0.610  0.9590 -0.1449 -0.1832
10455WAT     H242527   0.117   4.055   0.570  2.4168  0.6110 -0.6124
10455WAT    EPW42528   0.106   4.110   0.624  0.1529  0.4751  0.0220
10456WAT      O42529   2.604   5.052   3.259 -0.5634 -0.5369  0.0043
10456WAT     H142530   2.526   5.024   3.233 -0.3740  0.3735 -1.7340
10456WAT     H242531   2.660   5.001   3.215 -0.2250  0.2528 -0.5281
10456WAT    EPW42532   2.601   5.040   3.249 -0.1732 -0.0445 -0.2952
10457WAT      O42533   3.042   1.555   3.421  0.4473  0.0101 -0.6023
10457WAT     H142534   3.101   1.568   3.358 -2.1462  0.2953 -3.1709
10457WAT     H242535   3.037   1.633   3.460  0.3243  0.6124 -1.7509
10457WAT    EPW42536   3.050   1.568   3.417  0.2748  0.7054 -0.7351
10458WAT      O42537   7.694   5.664   0.569  0.7384 -0.0201 -0.3159
10458WAT     H142538   7.660   5.666   0.650 -0.6897 -0.8288 -0.8560
10458WAT     H242539   7.751   5.730   0.569 -1.2459  1.8167  0.5156
10458WAT    EPW42540   7.697   5.674   0.581 -0.2112  0.2223  0.0332
10459WAT      O42541   3.707   1.163   1.242  0.5733 -0.0918  0.2479
10459WAT     H142542   3.625   1.182   1.220  0.6585  0.7041  0.6070
10459WAT     H242543   3.754   1.224   1.201  0.9613 -0.3112  0.3598
10459WAT    EPW42544   3.702   1.175   1.233  0.3898 -0.1671  0.5088
10460WAT      O42545   2.846   2.769   1.574  0.4246 -0.0037  0.0320
10460WAT     H142546   2.868   2.788   1.492  1.6229 -0.4150  0.2274
10460WAT     H242547   2.896   2.700   1.593  0.6472  0.4727  1.3076
10460WAT    EPW42548   2.857   2.762   1.565  0.4321 -0.0971 -0.0865
10461WAT      O42549   5.804   7.284   1.266  0.8690  0.6036 -0.0711
10461WAT     H142550   5.770   7.242   1.197  0.3440  0.9022 -0.0019
10461WAT     H242551   5.890   7.278   1.253  0.7840  1.7446 -1.4407
10461WAT    EPW42552   5.811   7.277   1.254  0.3369  0.2779  0.8473
10462WAT      O42553   1.477   2.635   1.788 -0.5668 -0.0784  0.2461
10462WAT     H142554   1.405   2.604   1.749 -1.2923  1.6025  0.1779
10462WAT     H242555   1.445   2.675   1.860  0.1133  1.8239 -0.4497
10462WAT    EPW42556   1.461   2.636   1.793  0.1625 -0.4570  0.5745
10463WAT      O42557   3.006   4.339   2.061  0.1193 -0.4075 -0.1139
10463WAT     H142558   3.068   4.294   2.103  1.4326  1.2671 -0.1438
10463WAT     H242559   3.031   4.335   1.977  0.3096  0.4137 -0.1073
10463WAT    EPW42560   3.019   4.332   2.054  0.2742  0.2983 -0.6172
10464WAT      O42561   2.377   6.246   1.946 -0.2649  0.6224 -1.0598
10464WAT     H142562   2.384   6.204   2.022  3.9558  0.7664 -1.1388
10464WAT     H242563   2.398   6.329   1.966  1.2497  0.5944 -2.3641
10464WAT    EPW42564   2.381   6.252   1.960 -0.4238 -0.3398  0.3773
10465WAT      O42565   4.729   7.156   2.370  0.8812  0.3364 -0.0250
10465WAT     H142566   4.812   7.149   2.344  1.1839 -2.0437  1.3536
10465WAT     H242567   4.734   7.149   2.457 -0.8559 -1.7577 -0.0062
10465WAT    EPW42568   4.742   7.154   2.379  0.5497 -0.2671 -1.2063
10466WAT      O42569   1.484   5.201   1.297  0.6474 -0.3906 -0.2661
10466WAT     H142570   1.399   5.189   1.285  0.7818 -0.7880 -0.8592
10466WAT     H242571   1.520   5.130   1.262  1.1916 -0.5534  0.5860
10466WAT    EPW42572   1.477   5.189   1.290  0.3420 -0.1389  0.3302
10467WAT      O42573   2.797   5.142   0.092 -0.0108 -0.0445 -0.1310
10467WAT     H142574   2.760   5.175   0.164 -3.8531 -1.3386 -1.2593
10467WAT     H242575   2.825   5.213   0.049  1.2679  0.8239  1.9878
10467WAT    EPW42576   2.796   5.157   0.096  0.7268  0.0231 -0.5243
10468WAT      O42577   3.488   6.949   5.118 -0.4382  0.0965 -0.0701
10468WAT     H142578   3.495   7.036   5.120  0.8573  0.1506 -2.8671
10468WAT     H242579   3.403   6.936   5.102 -0.8559  0.7572  1.4451
10468WAT    EPW42580   3.476   6.960   5.116  0.2970 -0.5610 -0.1410
10469WAT      O42581   1.909   3.596   1.480 -0.4404  0.2841  0.2678
10469WAT     H142582   1.906   3.680   1.456 -1.3154  0.2704  0.2889
10469WAT     H242583   1.905   3.553   1.405  0.4574  0.2504  0.2259
10469WAT    EPW42584   1.908   3.602   1.465  0.0430 -0.6048  0.6106
10470WAT      O42585   5.228   7.882   6.420  0.2977  0.0862 -0.0704
10470WAT     H142586   5.187   7.806   6.412  0.3206  0.1370 -0.7356
10470WAT     H242587   5.248   7.903   6.338  2.0169 -0.1290  0.2639
10470WAT    EPW42588   5.225   7.874   6.407 -0.0277  0.4868  0.2893
10471WAT      O42589   5.170   0.445   3.608 -0.1428  0.0769 -0.4023
10471WAT     H142590   5.234   0.505   3.610 -2.4640  2.6918  0.6632
10471WAT     H242591   5.147   0.444   3.524  1.8228 -1.6880 -1.0317
10471WAT    EPW42592   5.176   0.453   3.596  0.1310  0.0776  0.0676
10472WAT      O42593   2.529   6.146   0.142  0.5308  0.5422 -0.0576
10472WAT     H142594   2.455   6.191   0.128  0.1842  0.7123  1.9786
10472WAT     H242595   2.502   6.076   0.186  1.5106  0.2448  0.0853
10472WAT    EPW42596   2.514   6.142   0.147  0.1257 -0.3465  0.7403
10473WAT      O42597   7.792   2.489   4.689 -0.1014 -0.0195 -0.1961
10473WAT     H142598   7.724   2.439   4.711  0.2086 -0.6794 -0.7152
10473WAT     H242599   7.756   2.566   4.671 -0.4977  0.2215  1.4551
10473WAT    EPW42600   7.777   2.493   4.690  0.0102 -0.0651 -0.1693
10474WAT      O42601   2.329   5.587   2.490  0.1359  0.3848  1.0145
10474WAT     H142602   2.271   5.610   2.551  1.4042  1.1295  2.0042
10474WAT     H242603   2.336   5.500   2.499 -1.6290  0.1044  0.0891
10474WAT    EPW42604   2.321   5.577   2.500 -0.1885 -0.0594 -0.0833
10475WAT      O42605   1.568   5.280   2.245 -0.2371  0.4482  0.2100
10475WAT     H142606   1.635   5.313   2.200 -0.3424  1.2442  0.6173
10475WAT     H242607   1.592   5.293   2.328 -0.7122  0.3611  0.3592
10475WAT    EPW42608   1.582   5.287   2.251  0.2236  0.3441 -0.1158
10476WAT      O42609   2.526   1.182   5.610 -0.8230  0.1100  0.2690
10476WAT     H142610   2.590   1.140   5.651 -2.4851 -2.1479  0.8015
10476WAT     H242611   2.462   1.185   5.669 -1.6769  1.0404 -0.6536
10476WAT    EPW42612   2.526   1.176   5.624  1.0278  0.2230  0.3189
10477WAT      O42613   3.224   2.685   2.381 -0.2118 -0.3442  0.2353
10477WAT     H142614   3.232   2.772   2.379  0.2976 -0.4000 -0.6688
10477WAT     H242615   3.163   2.669   2.320 -0.0579 -0.6437  0.1598
10477WAT    EPW42616   3.216   2.696   2.372 -0.3432  0.3702  0.0712
10478WAT      O42617   3.166   2.861   1.826 -0.5293  0.4239 -0.2926
10478WAT     H142618   3.156   2.943   1.854  0.0525  1.2053 -2.2272
10478WAT     H242619   3.150   2.867   1.741  1.7598 -1.0345 -0.9025
10478WAT    EPW42620   3.162   2.874   1.818 -0.0640  0.1680 -0.0292
10479WAT      O42621   2.809   7.846   2.521 -0.0732 -0.1062  0.1051
10479WAT     H142622   2.750   7.898   2.482  0.6931  0.7964  0.1041
10479WAT     H242623   2.831   7.790   2.458  0.7005  0.9552 -0.6012
10479WAT    EPW42624   2.803   7.846   2.506 -0.4345  0.1441 -0.3000
10480WAT      O42625   3.794   5.219   7.479 -0.0938 -0.2342  0.2225
10480WAT     H142626   3.823   5.299   7.494  0.0401  0.1169 -1.6803
10480WAT     H242627   3.735   5.206   7.542  1.0950  0.6668  1.5764
10480WAT    EPW42628   3.789   5.229   7.491  0.4606 -0.0460 -0.0489
10481WAT      O42629   4.010   0.492   3.565 -0.1234  0.3520  0.0439
10481WAT     H142630   4.033   0.545   3.629 -2.2893  1.4489  0.0173
10481WAT     H242631   3.940   0.450   3.597 -0.7347  0.3026 -1.2548
10481WAT    EPW42632   4.003   0.493   3.579 -0.3196 -0.2483 -0.2126
10482WAT      O42633   7.093   6.461   2.578 -0.3164 -0.1902 -0.2862
10482WAT     H142634   7.149   6.454   2.512 -0.9979  0.6890 -0.9835
10482WAT     H242635   7.134   6.421   2.644  0.0860 -1.6809 -1.3936
10482WAT    EPW42636   7.107   6.454   2.578  0.2535  0.6006 -0.4221
10483WAT      O42637   4.958   4.770   3.946  0.0881  0.2666 -0.0871
10483WAT     H142638   4.909   4.831   3.986 -0.6626  0.6120 -1.4605
10483WAT     H242639   4.950   4.791   3.861 -0.6698 -2.0604 -0.6607
10483WAT    EPW42640   4.949   4.782   3.939 -0.5543 -0.6693 -0.3256
10484WAT      O42641   0.953   7.052   3.664  0.0268 -0.0027 -0.0555
10484WAT     H142642   0.883   7.029   3.617  0.0914 -0.4803  0.0717
10484WAT     H242643   1.019   7.045   3.607 -0.0603  0.6804 -0.2389
10484WAT    EPW42644   0.953   7.047   3.649  0.0438 -0.2015  0.3773
10485WAT      O42645   4.673   3.947   5.900  0.4653  0.7570 -0.2516
10485WAT     H142646   4.701   3.881   5.950  2.4878  2.7415  1.4543
10485WAT     H242647   4.586   3.937   5.899  0.4309 -0.1016  2.6831
10485WAT    EPW42648   4.664   3.936   5.907 -0.3301 -0.4626 -0.4768
10486WAT      O42649   7.116   2.336   1.948 -0.0344 -0.0847  0.3415
10486WAT     H142650   7.159   2.290   1.887 -0.6454  1.3235 -1.2207
10486WAT     H242651   7.110   2.415   1.913 -0.5038  0.7536  2.2293
10486WAT    EPW42652   7.121   2.341   1.934 -0.1341  0.2962  0.1958
10487WAT      O42653   2.796   4.800   0.883 -0.4289  0.4268 -0.2953
10487WAT     H142654   2.844   4.872   0.871  0.3583  0.1343  0.9432
10487WAT     H242655   2.760   4.786   0.805  0.4118  1.4396 -0.8857
10487WAT    EPW42656   2.797   4.809   0.870  0.6088  0.1516  0.0329
10488WAT      O42657   2.287   3.309   7.877  0.2814  0.0251 -0.0321
10488WAT     H142658   2.361   3.317   7.831  0.1843 -1.0732 -0.4101
10488WAT     H242659   2.300   3.235   7.922  0.0096  0.6080  1.0401
10488WAT    EPW42660   2.300   3.299   7.877  0.0550 -0.2543  0.5342
10489WAT      O42661   4.642   3.474   5.666 -0.7671 -0.0313  0.0394
10489WAT     H142662   4.575   3.506   5.711 -1.3830 -3.3771  1.7970
10489WAT     H242663   4.608   3.459   5.586 -1.2764  0.8566  0.0811
10489WAT    EPW42664   4.627   3.476   5.661  0.2687  0.6298 -0.4086
10490WAT      O42665   3.655   7.911   6.917 -0.4647 -0.2448 -0.2037
10490WAT     H142666   3.690   7.982   6.954 -0.9903 -0.9164  1.6877
10490WAT     H242667   3.571   7.933   6.905 -0.5934 -0.4851  0.2421
10490WAT    EPW42668   3.647   7.925   6.921  0.3220 -0.2098 -0.1118
10491WAT      O42669   2.742   3.130   1.332  1.1244 -0.4310 -0.2713
10491WAT     H142670   2.812   3.150   1.380  0.5462 -1.2393  0.9590
10491WAT     H242671   2.757   3.047   1.308  0.0723 -1.0355  1.0224
10491WAT    EPW42672   2.755   3.120   1.336  0.6975 -0.1257  0.0059
10492WAT      O42673   7.621   2.661   1.601  0.0204 -0.0463 -0.4628
10492WAT     H142674   7.639   2.664   1.686 -0.9309  1.1011 -0.2715
10492WAT     H242675   7.649   2.739   1.572  0.3181 -0.4223 -1.2018
10492WAT    EPW42676   7.628   2.673   1.609  0.6038 -0.3566  0.1089
10493WAT      O42677   1.686   6.379   3.608 -0.0924 -0.1263  0.2956
10493WAT     H142678   1.626   6.438   3.583 -1.2854 -2.5817 -3.6235
10493WAT     H242679   1.725   6.416   3.676 -2.0647  4.2350 -0.6294
10493WAT    EPW42680   1.683   6.393   3.615 -0.5253 -0.9596  0.4112
10494WAT      O42681   1.317   7.017   0.353  0.6971  0.0339  0.2725
10494WAT     H142682   1.328   7.098   0.322  0.2423  0.1645  0.4382
10494WAT     H242683   1.235   6.997   0.328 -0.1484  0.6047  2.3901
10494WAT    EPW42684   1.306   7.026   0.344  0.4551  0.6347  0.0956
10495WAT      O42685   1.909   5.162   5.982  0.0078 -0.4242 -0.4729
10495WAT     H142686   1.838   5.164   6.033  0.7912  0.4813  0.6515
10495WAT     H242687   1.885   5.113   5.915 -2.1137  0.8827 -0.7712
10495WAT    EPW42688   1.895   5.155   5.980  0.1923  0.0708 -0.3784
10496WAT      O42689   7.723   6.026   1.477  0.6146 -0.3434 -0.0248
10496WAT     H142690   7.803   6.026   1.512  0.9319 -0.6855 -0.7342
10496WAT     H242691   7.707   5.942   1.461 -0.1137 -0.3390  0.6020
10496WAT    EPW42692   7.732   6.014   1.480 -0.1819  0.1951 -0.3737
10497WAT      O42693   1.561   7.282   7.157 -0.0415 -0.0168 -0.8150
10497WAT     H142694   1.536   7.248   7.233 -0.5592 -0.0568 -1.0000
10497WAT     H242695   1.532   7.225   7.098 -2.3108  1.4377 -1.2424
10497WAT    EPW42696   1.553   7.269   7.159 -0.3153 -0.5424  0.4966
10498WAT      O42697   2.779   3.985   3.075  0.1623  0.3567 -0.2210
10498WAT     H142698   2.814   4.043   3.021 -0.8250  0.7850 -0.4284
10498WAT     H242699   2.764   4.030   3.148 -0.8630  0.4580 -0.4758
10498WAT    EPW42700   2.782   4.000   3.078 -0.1297  0.2946 -0.2176
10499WAT      O42701   2.319   3.531   3.539  0.3250  0.1738 -0.1412
10499WAT     H142702   2.256   3.591   3.544 -0.7289 -0.8931 -0.1583
10499WAT     H242703   2.389   3.572   3.572 -0.8027  0.7938  1.6445
10499WAT    EPW42704   2.320   3.546   3.544  0.1064  0.5152  0.0748
10500WAT      O42705   5.458   5.482   4.212  0.4032 -0.0305 -0.4136
10500WAT     H142706   5.465   5.559   4.251 -0.0937 -0.5948  0.8345
10500WAT     H242707   5.398   5.496   4.150 -1.5074  0.0547  1.3401
10500WAT    EPW42708   5.450   5.495   4.209 -0.5641 -0.3178  0.0098
10501WAT      O42709   0.905   1.766   3.670 -0.0401 -0.9974  0.0238
10501WAT     H142710   0.902   1.710   3.737 -0.3012  0.2041  1.0707
10501WAT     H242711   0.986   1.755   3.638  0.2017 -1.3999  0.7401
10501WAT    EPW42712   0.917   1.756   3.675  0.1202 -0.1180 -0.5827
10502WAT      O42713   7.978   2.068   1.720 -0.5762 -0.3951  0.5734
10502WAT     H142714   8.009   2.048   1.800  0.3350  0.3860  0.4319
10502WAT     H242715   7.952   2.150   1.728 -0.6161 -0.3598  0.1050
10502WAT    EPW42716   7.979   2.077   1.733 -0.2240  0.2412  0.0046
10503WAT      O42717   1.513   1.437   4.408  0.3534  0.2648  0.2540
10503WAT     H142718   1.497   1.486   4.337 -0.2685 -0.4633 -0.1194
10503WAT     H242719   1.568   1.376   4.379  0.0522 -0.0700  0.3877
10503WAT    EPW42720   1.519   1.435   4.393 -0.6787 -0.7866  0.0270
10504WAT      O42721   2.341   3.615   7.847 -0.4700 -0.3358 -0.0687
10504WAT     H142722   2.314   3.684   7.801 -0.1283  0.2986  0.6826
10504WAT     H242723   2.286   3.552   7.822 -1.5344  0.4988  0.1108
10504WAT    EPW42724   2.329   3.616   7.836  0.2967 -0.0050 -0.5031
10505WAT      O42725   3.144   6.385   1.531 -0.4577  0.5843 -0.0102
10505WAT     H142726   3.062   6.358   1.539 -0.4524  0.5207 -0.1615
10505WAT     H242727   3.146   6.459   1.577  0.1674 -0.9294  2.6292
10505WAT    EPW42728   3.132   6.392   1.539  0.3369 -0.4518  0.4904
10506WAT      O42729   3.374   0.525   2.850 -0.6055  0.6438 -0.2986
10506WAT     H142730   3.323   0.498   2.916 -0.4276  0.1514 -0.3542
10506WAT     H242731   3.455   0.510   2.879 -0.5287  0.3320 -0.6619
10506WAT    EPW42732   3.378   0.519   2.864 -0.1421  0.2499 -0.1399
10507WAT      O42733   1.029   0.326   1.571  0.3628  0.3676  0.3309
10507WAT     H142734   1.011   0.392   1.516  0.4666  0.4424  0.3866
10507WAT     H242735   1.088   0.360   1.626  2.0710 -0.3753 -0.9300
10507WAT    EPW42736   1.035   0.341   1.571  0.7588 -0.3812  0.0159
10508WAT      O42737   5.296   5.436   2.711 -0.3303 -0.0286  0.9952
10508WAT     H142738   5.351   5.406   2.772  0.4176 -1.5113 -0.3512
10508WAT     H242739   5.346   5.486   2.661 -0.6126 -0.0149  0.7248
10508WAT    EPW42740   5.311   5.439   2.713 -0.3900 -0.6478  0.4563
10509WAT      O42741   2.137   7.142   1.045  0.0489  0.1514  0.3436
10509WAT     H142742   2.184   7.069   1.034  1.5762  1.1137  0.1312
10509WAT     H242743   2.160   7.192   0.977 -2.3221  0.1894 -0.5129
10509WAT    EPW42744   2.147   7.139   1.033  0.2782 -0.2746  0.3252
10510WAT      O42745   6.712   4.130   2.195  0.4183 -0.0426  0.2998
10510WAT     H142746   6.757   4.062   2.166 -0.4816  0.4053 -2.4922
10510WAT     H242747   6.673   4.100   2.267  3.4377 -1.0387  1.6543
10510WAT    EPW42748   6.713   4.116   2.201 -0.5524  0.7938 -0.4524
10511WAT      O42749   3.713   7.471   5.209  0.0747  0.5974 -0.3501
10511WAT     H142750   3.727   7.455   5.294  0.5087  1.3268 -0.2777
10511WAT     H242751   3.697   7.392   5.176  1.8618  0.0165  0.0366
10511WAT    EPW42752   3.713   7.457   5.217 -0.0728 -0.3467 -0.3839
10512WAT      O42753   0.130   1.139   4.429 -1.0856 -0.5566 -0.5578
10512WAT     H142754   0.108   1.125   4.513  1.3091  1.2251  0.4640
10512WAT     H242755   0.216   1.151   4.432 -0.7624 -1.4006 -3.4642
10512WAT    EPW42756   0.140   1.138   4.442  0.0101 -0.1506  0.4980
10513WAT      O42757   4.366   4.434   1.052  0.4902  0.5314  0.6208
10513WAT     H142758   4.326   4.452   1.128  0.9366 -0.0429  0.9952
10513WAT     H242759   4.434   4.386   1.076  0.1216 -0.4437 -0.2371
10513WAT    EPW42760   4.370   4.430   1.067 -0.0256  0.3259 -0.2511
10514WAT      O42761   4.452   6.358   2.646  0.3063  0.2292  0.3605
10514WAT     H142762   4.539   6.365   2.648  0.2908  0.7260 -0.2850
10514WAT     H242763   4.426   6.435   2.614 -0.2918 -0.3081 -0.4992
10514WAT    EPW42764   4.461   6.370   2.641  0.4425 -0.2026  0.4787
10515WAT      O42765   3.263   0.655   2.066  0.3731 -0.0338 -0.4413
10515WAT     H142766   3.250   0.635   1.982 -1.0097 -1.1612 -0.0123
10515WAT     H242767   3.201   0.714   2.083  1.5868  1.3080 -0.5587
10515WAT    EPW42768   3.252   0.661   2.056 -0.0965 -0.1321  0.3550
10516WAT      O42769   5.772   5.769   8.018 -0.4895  0.4355  0.1869
10516WAT     H142770   5.762   5.760   7.931 -0.8398 -1.5116  0.3724
10516WAT     H242771   5.782   5.687   8.046 -2.4929  0.7644  2.2240
10516WAT    EPW42772   5.772   5.755   8.009 -0.4180 -0.2768  0.2040
10517WAT      O42773   0.309   7.392   2.464  1.0905 -0.2039 -0.7439
10517WAT     H142774   0.364   7.360   2.405  1.3664  1.5413 -1.5203
10517WAT     H242775   0.236   7.346   2.452  1.7644 -1.2181 -1.0478
10517WAT    EPW42776   0.306   7.381   2.454 -0.4704 -0.0166 -0.3615
10518WAT      O42777   5.662   4.535   0.427 -0.3280  0.9153  0.4732
10518WAT     H142778   5.722   4.523   0.489 -0.9091 -0.8941  0.7642
10518WAT     H242779   5.591   4.559   0.471 -1.1083 -1.6041  0.7719
10518WAT    EPW42780   5.660   4.537   0.443 -0.2190 -0.1890  0.6235
10519WAT      O42781   1.040   4.063   3.865  0.0577 -0.8256  0.9989
10519WAT     H142782   1.099   4.114   3.905  0.1347  0.3242 -0.4877
10519WAT     H242783   1.083   3.988   3.853  1.2918 -0.0056 -0.0782
10519WAT    EPW42784   1.055   4.059   3.869  0.1722  0.0018  0.9970
10520WAT      O42785   0.971   7.865   0.233  0.4673 -0.0016 -0.3373
10520WAT     H142786   1.006   7.931   0.187  1.0174 -1.1228 -1.6044
10520WAT     H242787   0.890   7.893   0.249 -0.2482 -0.0626 -3.2562
10520WAT    EPW42788   0.964   7.879   0.228 -0.1208 -0.0190  0.0255
10521WAT      O42789   6.267   1.691   3.241 -0.3403 -0.0916  0.0109
10521WAT     H142790   6.224   1.754   3.200 -0.3563  0.2434  0.5388
10521WAT     H242791   6.205   1.635   3.264 -0.6999  0.9678  1.8300
10521WAT    EPW42792   6.252   1.692   3.239  0.1040  0.3204  0.2536
10522WAT      O42793   1.197   3.356   3.982 -0.4945  0.0077 -0.0250
10522WAT     H142794   1.238   3.279   3.984  0.1895  0.2891 -1.4652
10522WAT     H242795   1.251   3.410   4.025 -0.1342  0.0191 -0.4748
10522WAT    EPW42796   1.211   3.353   3.988 -0.4966  0.0429 -0.2686
10523WAT      O42797   2.246   5.580   3.194 -0.1499 -0.2768 -0.3789
10523WAT     H142798   2.209   5.658   3.180  1.6034  0.5736 -0.6067
10523WAT     H242799   2.264   5.551   3.114  2.4571  0.8123 -0.2896
10523WAT    EPW42800   2.244   5.587   3.180  0.8043 -0.3280  0.1653
10524WAT      O42801   0.736   2.061   2.103 -0.1272 -0.2167 -1.3270
10524WAT     H142802   0.720   2.086   2.021  0.8109  1.2862 -1.0984
10524WAT     H242803   0.720   1.975   2.102 -0.0642 -0.2468 -3.0912
10524WAT    EPW42804   0.732   2.052   2.091 -0.0939  0.2820  0.8438
10525WAT      O42805   3.707   7.264   2.289 -0.3808  0.2927 -0.1932
10525WAT     H142806   3.765   7.282   2.227  1.4372  0.0334  1.3580
10525WAT     H242807   3.703   7.177   2.290 -0.5109  0.2990 -0.0208
10525WAT    EPW42808   3.715   7.254   2.280  0.2891 -0.5357 -0.1784
10526WAT      O42809   1.180   1.534   0.969 -0.2480 -0.3050  0.0619
10526WAT     H142810   1.255   1.561   0.932 -0.3613 -0.5193 -0.3361
10526WAT     H242811   1.206   1.470   1.022  0.0531  0.7389  1.2143
10526WAT    EPW42812   1.195   1.528   0.971 -0.9599  0.0896  0.6605
10527WAT      O42813   3.038   7.513   1.680 -0.4215  0.0661 -0.0932
10527WAT     H142814   3.000   7.591   1.692  0.9412  0.4861  2.0322
10527WAT     H242815   3.115   7.532   1.644 -1.4093 -0.6569 -2.8400
10527WAT    EPW42816   3.044   7.527   1.676  0.4202  0.0646 -0.2299
10528WAT      O42817   7.529   7.136   0.702  0.5392 -0.5791 -0.4111
10528WAT     H142818   7.577   7.208   0.713 -2.3669  1.3366  0.8595
10528WAT     H242819   7.547   7.088   0.772  0.9262 -0.1081 -0.1796
10528WAT    EPW42820   7.539   7.139   0.714  0.2240 -0.1604  0.0421
10529WAT      O42821   3.006   2.690   0.152  0.1930 -0.6828 -0.3006
10529WAT     H142822   3.077   2.738   0.169 -1.7722  2.3813  0.0141
10529WAT     H242823   2.985   2.713   0.070 -1.0330 -0.6912 -0.0032
10529WAT    EPW42824   3.014   2.701   0.142  0.1775 -0.0233  0.0472
10530WAT      O42825   2.615   1.920   3.268 -0.6386 -0.1311 -0.5064
10530WAT     H142826   2.678   1.933   3.327 -1.5843  1.0035  0.3021
10530WAT     H242827   2.553   1.878   3.314 -2.1787  2.4018 -0.0988
10530WAT    EPW42828   2.615   1.916   3.284  0.0329 -0.1313  0.5210
10531WAT      O42829   2.672   3.954   7.110 -0.1615  0.1282 -0.2899
10531WAT     H142830   2.678   3.867   7.105  0.0257  0.1578 -0.5665
10531WAT     H242831   2.738   3.975   7.163 -0.0017  0.1317 -0.4898
10531WAT    EPW42832   2.682   3.944   7.117  0.4050  0.1032 -0.0518
10532WAT      O42833   1.920   3.852   1.400 -0.0845 -0.0176 -0.2679
10532WAT     H142834   1.868   3.877   1.466 -0.5724  2.5626 -1.4855
10532WAT     H242835   1.980   3.915   1.396  0.9579 -1.0243 -1.2267
10532WAT    EPW42836   1.921   3.865   1.409  0.4717  0.4778 -0.6351
10533WAT      O42837   1.508   2.436   7.461  0.5972 -0.1468  0.1494
10533WAT     H142838   1.549   2.363   7.485 -0.7592 -0.6329  1.1257
10533WAT     H242839   1.449   2.448   7.524  0.0545  1.1949 -0.5665
10533WAT    EPW42840   1.506   2.427   7.474  0.6085 -0.1911 -0.1388
10534WAT      O42841   1.770   4.562   5.304 -0.6677  0.1629  0.4040
10534WAT     H142842   1.816   4.620   5.257 -1.5516 -0.6953 -1.6110
10534WAT     H242843   1.832   4.517   5.346  0.1277  1.2469  0.4522
10534WAT    EPW42844   1.786   4.564   5.304 -0.3214  0.2657  0.5381
10535WAT      O42845   2.269   4.738   0.973  0.2569  0.1350  0.1619
10535WAT     H142846   2.330   4.675   0.975  1.0419  0.8281 -0.8315
10535WAT     H242847   2.206   4.703   0.924  0.8375  0.2206 -0.6704
10535WAT    EPW42848   2.269   4.723   0.966  0.4395  0.8457  0.5513
10536WAT      O42849   2.078   5.791   3.186  0.1304 -0.5044 -0.6259
10536WAT     H142850   2.122   5.865   3.201 -2.2107  0.9045 -0.2043
10536WAT     H242851   2.032   5.808   3.114 -1.0209 -1.2181 -0.1010
10536WAT    EPW42852   2.078   5.804   3.178 -0.3191 -0.3036 -0.2386
10537WAT      O42853   1.252   4.585   3.785 -0.1009  0.0103 -0.3070
10537WAT     H142854   1.316   4.604   3.842 -0.5282 -0.7246  0.4421
10537WAT     H242855   1.282   4.617   3.709  2.2698 -2.4530 -0.5459
10537WAT    EPW42856   1.266   4.593   3.782  0.3124  0.3779 -0.5867
10538WAT      O42857   0.157   4.950   4.367 -0.0862  0.1589 -0.2570
10538WAT     H142858   0.217   4.896   4.399  0.6679  1.6930  1.0466
10538WAT     H242859   0.082   4.919   4.401  0.3957  0.2026  0.9162
10538WAT    EPW42860   0.155   4.937   4.377  0.2240  0.6653  0.0352
10539WAT      O42861   4.912   1.014   1.351 -0.1493 -0.0792 -0.0309
10539WAT     H142862   4.957   0.944   1.324  0.0052  0.3659 -0.9743
10539WAT     H242863   4.863   1.034   1.281 -1.4302 -0.2336  0.7944
10539WAT    EPW42864   4.911   1.007   1.336 -0.1587  0.1363  0.2505
10540WAT      O42865   4.398   1.505   0.256  0.6382 -0.4351 -0.6114
10540WAT     H142866   4.374   1.559   0.192 -0.8860  1.9538  1.7876
10540WAT     H242867   4.425   1.558   0.320 -0.5539 -2.4519  1.7741
10540WAT    EPW42868   4.399   1.521   0.256  0.1199  0.2631 -0.5949
10541WAT      O42869   1.676   1.593   6.438 -0.6096  0.8797  0.1779
10541WAT     H142870   1.654   1.639   6.509 -0.3618  0.2149  0.6916
10541WAT     H242871   1.689   1.513   6.469 -1.3398  0.3850 -0.7600
10541WAT    EPW42872   1.675   1.588   6.453  0.5980 -0.3499 -0.6406
10542WAT      O42873   5.243   3.600   7.198 -0.2656 -0.4239 -0.0914
10542WAT     H142874   5.295   3.658   7.158  0.2469 -2.2459 -2.3048
10542WAT     H242875   5.163   3.633   7.186  0.0936  0.4388 -0.1841
10542WAT    EPW42876   5.239   3.613   7.190 -0.4713  0.4672  0.4326
10543WAT      O42877   0.227   4.983   2.940 -0.1879 -0.0414 -0.4913
10543WAT     H142878   0.211   5.066   2.920  1.0143  0.6645  1.2197
10543WAT     H242879   0.312   4.973   2.921 -0.2588 -0.8126 -0.4413
10543WAT    EPW42880   0.237   4.994   2.934  0.2639 -0.1930 -0.3391
10544WAT      O42881   0.451   6.115   1.729 -0.2214 -0.3035 -0.6894
10544WAT     H142882   0.450   6.086   1.647  0.3024 -0.5089 -0.6256
10544WAT     H242883   0.371   6.096   1.758 -0.8515  0.9122 -1.5360
10544WAT    EPW42884   0.439   6.108   1.721 -0.4403  0.0512 -0.9547
10545WAT      O42885   1.487   6.111   1.937 -0.0573  0.5507 -0.5100
10545WAT     H142886   1.569   6.080   1.931 -0.8280 -1.7000 -0.4586
10545WAT     H242887   1.490   6.185   1.891  2.0688  0.7043 -0.2599
10545WAT    EPW42888   1.500   6.117   1.929 -0.5787 -0.1933 -0.0811
10546WAT      O42889   3.538   4.680   3.594 -0.0631 -0.0635  0.3896
10546WAT     H142890   3.593   4.642   3.538 -1.6796  1.3499 -2.3729
10546WAT     H242891   3.551   4.765   3.582 -1.5627  0.2807  0.9985
10546WAT    EPW42892   3.548   4.687   3.584 -0.1500  0.6993 -0.4331
10547WAT      O42893   7.852   5.379   2.445  0.4748  1.0460 -0.1688
10547WAT     H142894   7.823   5.444   2.396  1.1617  1.1670 -0.4248
10547WAT     H242895   7.910   5.339   2.394 -2.0693 -1.6800 -1.2527
10547WAT    EPW42896   7.856   5.382   2.430  0.5969  0.1432 -0.3000
10548WAT      O42897   2.049   2.842   5.212 -0.5350  0.2514  0.2799
10548WAT     H142898   2.061   2.921   5.176 -2.9066  0.0564 -1.1482
10548WAT     H242899   2.000   2.859   5.282  0.7153  0.2176  1.1871
10548WAT    EPW42900   2.044   2.856   5.217 -0.0369 -1.0314 -0.2457
10549WAT      O42901   7.486   0.028   1.644  0.2074 -0.3276  0.1554
10549WAT     H142902   7.423   0.015   1.703  0.4859 -1.4184  0.2492
10549WAT     H242903   7.468  -0.032   1.583 -0.1119  0.8257 -0.9094
10549WAT    EPW42904   7.474   0.017   1.644 -0.4415 -0.1893  0.4320
10550WAT      O42905   3.019   3.477   3.692 -0.4085  0.0870 -0.6017
10550WAT     H142906   3.096   3.501   3.725 -2.6364  1.7568  4.4092
10550WAT     H242907   3.030   3.392   3.676  2.3561  0.1737  0.2736
10550WAT    EPW42908   3.032   3.468   3.695  0.5688  0.2573  0.3964
10551WAT      O42909   0.169   1.267   4.161 -0.4796 -0.2942 -0.2778
10551WAT     H142910   0.155   1.287   4.077 -0.6950 -1.8125 -0.6405
10551WAT     H242911   0.090   1.273   4.197 -0.4572 -0.0208 -0.2754
10551WAT    EPW42912   0.156   1.271   4.154 -0.3383  0.3791  0.2336
10552WAT      O42913   0.281   5.339   4.647 -0.4168  0.0825 -0.4432
10552WAT     H142914   0.284   5.292   4.720  0.5146 -1.2807 -1.3151
10552WAT     H242915   0.253   5.417   4.674  2.2318  0.4117  1.8119
10552WAT    EPW42916   0.277   5.344   4.661 -0.0611 -0.3219  0.3966
10553WAT      O42917   2.056   2.368   0.288 -0.3603  0.6185 -0.0552
10553WAT     H142918   2.009   2.388   0.359 -1.0674 -0.6101 -0.1485
10553WAT     H242919   1.996   2.351   0.227 -0.1156 -3.7509  0.5411
10553WAT    EPW42920   2.040   2.368   0.290  0.1308 -0.2785 -0.7184
10554WAT      O42921   2.358   7.587   6.216  0.4451 -0.3667  0.5039
10554WAT     H142922   2.394   7.517   6.254 -0.8230 -1.6352 -0.5369
10554WAT     H242923   2.295   7.610   6.272  0.4433 -0.4603  0.5418
10554WAT    EPW42924   2.354   7.580   6.230  0.5225  0.4789 -0.2785
10555WAT      O42925   1.653   7.004   2.540 -0.4927  0.4604  0.3388
10555WAT     H142926   1.674   6.921   2.525 -2.8455 -0.2290  0.3681
10555WAT     H242927   1.727   7.047   2.523  0.6476 -1.5600 -0.2522
10555WAT    EPW42928   1.667   6.998   2.535 -0.3118  0.0677 -0.2145
10556WAT      O42929   7.893   1.694   0.825 -0.0141  0.5779 -0.2695
10556WAT     H142930   7.830   1.753   0.830 -0.3278  0.1479  1.3855
10556WAT     H242931   7.851   1.618   0.836  0.3199 -0.0522 -2.7297
10556WAT    EPW42932   7.878   1.691   0.827  0.3805  0.6428 -0.0863
10557WAT      O42933   1.536   3.718   1.724  0.1809  0.6952 -0.2225
10557WAT     H142934   1.479   3.701   1.660  1.5549  0.3400 -1.3978
10557WAT     H242935   1.600   3.761   1.684  1.2463  0.1580  0.8411
10557WAT    EPW42936   1.537   3.722   1.709  0.1591  0.5731 -0.9816
10558WAT      O42937   7.201   2.061   1.549 -0.2741 -0.3948 -0.2564
10558WAT     H142938   7.257   2.069   1.616  1.0550  0.2814 -1.3995
10558WAT     H242939   7.139   2.121   1.568  0.1646 -0.0962  0.2808
10558WAT    EPW42940   7.200   2.071   1.562 -0.2470  0.5333 -0.2378
10559WAT      O42941   1.500   5.698   1.714 -0.0752 -0.7543 -0.2369
10559WAT     H142942   1.541   5.771   1.737 -0.7950 -0.5292  0.3674
10559WAT     H242943   1.565   5.646   1.688  0.7870 -0.8948  1.9748
10559WAT    EPW42944   1.516   5.701   1.713  0.5805 -0.3284 -0.4988
10560WAT      O42945   5.092   0.152   1.633  0.0574  0.2480  0.7659
10560WAT     H142946   5.014   0.184   1.613 -0.2655 -0.1905  1.2776
10560WAT     H242947   5.121   0.120   1.557 -1.6292 -2.4077  1.0906
10560WAT    EPW42948   5.085   0.152   1.619 -0.1198  0.2389 -0.5542
10561WAT      O42949   2.318   1.743   5.602 -0.0328 -0.2935  0.2096
10561WAT     H142950   2.242   1.740   5.558  0.7352 -0.6132 -1.1584
10561WAT     H242951   2.348   1.662   5.595  0.7870  0.0143  0.0625
10561WAT    EPW42952   2.311   1.731   5.594 -0.2830  0.2406 -0.2803
10562WAT      O42953   6.905   1.398   5.115 -0.6123 -0.2636  0.2071
10562WAT     H142954   6.835   1.441   5.146 -2.6856 -2.9592 -0.2601
10562WAT     H242955   6.964   1.407   5.178 -1.6345  1.5170  0.9892
10562WAT    EPW42956   6.903   1.405   5.129  0.1922  0.2677  0.1038
10563WAT      O42957   3.700   5.676   0.720  0.3346 -0.3119 -0.0476
10563WAT     H142958   3.644   5.692   0.655  1.0067  0.5670 -0.4263
10563WAT     H242959   3.778   5.688   0.683  0.7515 -0.6424  0.7058
10563WAT    EPW42960   3.703   5.680   0.705 -0.9177  0.1328 -0.4097
10564WAT      O42961   4.343   5.109   0.457  0.1109 -0.1053  0.2730
10564WAT     H142962   4.363   5.194   0.469 -2.3364  0.7958 -1.2725
10564WAT     H242963   4.367   5.072   0.532  2.3735  1.7102  0.5420
10564WAT    EPW42964   4.349   5.116   0.470  0.0968 -0.0911 -0.1487
10565WAT      O42965   7.686   0.376   3.940 -0.1844  0.0823  0.0955
10565WAT     H142966   7.689   0.290   3.926 -1.0015  0.1279 -0.4134
10565WAT     H242967   7.769   0.397   3.955 -0.0270 -0.8592  0.6353
10565WAT    EPW42968   7.699   0.366   3.941 -0.4834 -0.0284 -0.3448
10566WAT      O42969   1.854   3.484   3.569  0.2537 -0.5278 -0.0248
10566WAT     H142970   1.869   3.485   3.654 -0.8576 -2.5464  0.2720
10566WAT     H242971   1.934   3.474   3.534  0.6294 -0.5980  0.8333
10566WAT    EPW42972   1.868   3.482   3.576  0.3593 -0.2365 -0.1163
10567WAT      O42973   3.587   2.808   2.652  0.1958  0.3714  0.1330
10567WAT     H142974   3.529   2.856   2.608  0.9191  1.1026 -0.0376
10567WAT     H242975   3.651   2.865   2.671  0.2582 -0.1073  1.4481
10567WAT    EPW42976   3.588   2.824   2.648 -0.6273  0.0010  0.2818
10568WAT      O42977   2.304   5.820   2.050  0.4335 -0.2462 -0.5144
10568WAT     H142978   2.325   5.750   2.098 -0.5785 -0.6186 -0.5831
10568WAT     H242979   2.334   5.800   1.970  1.0286 -0.1593 -0.3185
10568WAT    EPW42980   2.311   5.807   2.045 -0.3289 -0.1052  0.2661
10569WAT      O42981   2.919   3.885   1.421  0.0282  0.1370  0.1997
10569WAT     H142982   3.004   3.887   1.441 -0.3504  2.3174  2.0746
10569WAT     H242983   2.915   3.927   1.345  0.8146 -2.3504 -1.3417
10569WAT    EPW42984   2.931   3.892   1.413  0.4779  0.0463 -0.3286
10570WAT      O42985   1.978   1.806   4.970  0.1418 -0.1702 -0.0357
10570WAT     H142986   1.967   1.753   5.038 -1.7439 -1.0974 -0.9837
10570WAT     H242987   2.052   1.778   4.934  0.2566 -0.7942  0.6646
10570WAT    EPW42988   1.987   1.794   4.975  0.0475 -0.0633  0.0388
10571WAT      O42989   1.765   4.648   3.833 -0.1153  0.3478 -0.2873
10571WAT     H142990   1.680   4.643   3.851 -0.4920  0.2728 -1.9018
10571WAT     H242991   1.796   4.570   3.856 -0.4231  0.4651  0.5454
10571WAT    EPW42992   1.757   4.636   3.839 -0.3834 -0.2404 -0.3272
10572WAT      O42993   2.016   1.490   2.229  0.1632  0.5349  0.1325
10572WAT     H142994   2.059   1.467   2.302 -1.6573  0.5570  1.2903
10572WAT     H242995   1.988   1.414   2.197  1.2438  0.4943 -0.7786
10572WAT    EPW42996   2.018   1.475   2.235  0.6692  0.1032  0.2613
10573WAT      O42997   2.376   4.921   0.499 -0.4311  0.4256 -0.0924
10573WAT     H142998   2.320   4.854   0.497 -1.2283  1.0817 -0.5641
10573WAT     H242999   2.393   4.934   0.414 -0.0911  0.6650  0.0139
10573WAT    EPW43000   2.370   4.913   0.486  0.0978  0.6493 -0.8322
10574WAT      O43001   5.618   2.117   2.399 -0.0536  0.2369  0.3227
10574WAT     H143002   5.679   2.159   2.352 -1.2381  0.3666 -1.1721
10574WAT     H243003   5.665   2.069   2.454  1.6177 -1.8639 -2.6147
10574WAT    EPW43004   5.634   2.116   2.400  0.5733 -0.0439 -0.1297
10575WAT      O43005   3.172   2.355   4.277 -0.3932  0.5396 -0.0622
10575WAT     H143006   3.208   2.356   4.356 -0.3620 -1.0462 -0.0246
10575WAT     H243007   3.234   2.322   4.226 -1.6310 -2.1275 -0.0237
10575WAT    EPW43008   3.186   2.351   4.281 -0.4945  0.7846  0.0315
10576WAT      O43009   1.743   6.545   7.028 -0.0646 -0.7858  0.2187
10576WAT     H143010   1.728   6.598   7.096 -1.1953 -1.3451  0.4336
10576WAT     H243011   1.765   6.469   7.065 -0.1742 -0.9472 -0.0445
10576WAT    EPW43012   1.744   6.542   7.044 -0.6817  0.7081 -0.2197
10577WAT      O43013   2.718   7.934   5.421  0.3362  0.2353  0.0185
10577WAT     H143014   2.731   7.871   5.480  1.1064  1.3976  1.1584
10577WAT     H243015   2.644   7.911   5.381 -2.0787  0.9176  3.5817
10577WAT    EPW43016   2.709   7.922   5.424 -0.0435 -0.3946 -0.5762
10578WAT      O43017   3.513   5.008   7.495 -0.0755  0.2223  0.3083
10578WAT     H143018   3.558   5.055   7.554 -1.3761 -0.9897  2.3814
10578WAT     H243019   3.430   5.029   7.512 -0.5212 -0.8692 -0.4656
10578WAT    EPW43020   3.507   5.018   7.506  0.7553  0.0911  0.8396
10579WAT      O43021   1.616   4.971   1.813 -0.0255 -0.6207 -0.3362
10579WAT     H143022   1.657   4.907   1.854  1.1356  0.4631  0.2682
10579WAT     H243023   1.534   4.965   1.844  0.2079 -1.4257  0.1667
10579WAT    EPW43024   1.610   4.961   1.824 -0.1786 -0.0158  0.2047
10580WAT      O43025   0.563   5.704   0.057  0.4562 -0.6375  0.0559
10580WAT     H143026   0.545   5.736  -0.022 -0.5641 -1.2387  0.0269
10580WAT     H243027   0.649   5.715   0.064  0.5217 -0.3254 -1.0235
10580WAT    EPW43028   0.573   5.710   0.047 -0.4846  0.3109 -0.6064
10581WAT      O43029   4.128   3.837   2.377 -0.2160 -0.2487 -0.1551
10581WAT     H143030   4.202   3.792   2.388 -0.7619 -2.0049 -2.6941
10581WAT     H243031   4.076   3.780   2.335 -1.8820  1.9299 -1.2341
10581WAT    EPW43032   4.132   3.822   2.372 -0.3947  0.2032  0.1636
10582WAT      O43033   0.980  -0.013   3.303 -0.6284  0.2284  0.1743
10582WAT     H143034   1.067  -0.003   3.299 -0.6644  0.3149 -0.8124
10582WAT     H243035   0.958   0.026   3.377 -0.0478  2.0360 -0.5484
10582WAT    EPW43036   0.990  -0.006   3.313 -0.0183 -0.1880  0.1347
10583WAT      O43037   7.942   1.975   1.992 -0.1839  0.2099 -0.3714
10583WAT     H143038   7.953   1.893   1.964 -0.7458  0.0388 -0.1077
10583WAT     H243039   8.006   1.987   2.050 -1.5915 -0.9187  1.5065
10583WAT    EPW43040   7.953   1.965   1.996 -0.5571  0.1320 -0.4388
10584WAT      O43041   5.057   4.616   7.574 -0.2510  0.1235 -0.1594
10584WAT     H143042   5.007   4.551   7.545 -0.5400 -0.5945  1.8076
10584WAT     H243043   5.017   4.688   7.545 -0.3410 -0.5214 -1.7264
10584WAT    EPW43044   5.044   4.617   7.565 -0.1775 -0.4938  0.1658
10585WAT      O43045   1.619   2.656   7.350  0.3972 -0.5495 -0.1502
10585WAT     H143046   1.575   2.722   7.387 -0.5881 -1.3498  0.1618
10585WAT     H243047   1.586   2.585   7.389  0.9799 -1.2657 -0.9218
10585WAT    EPW43048   1.608   2.655   7.361  0.1105 -0.4498  0.4710
10586WAT      O43049   2.774   3.473   1.441  0.3118  0.0022  0.5960
10586WAT     H143050   2.814   3.469   1.519  0.7225  3.7645  0.7408
10586WAT     H243051   2.691   3.488   1.463  0.0341 -0.9870  0.2626
10586WAT    EPW43052   2.768   3.475   1.456  0.3770  0.1319 -0.0634
10587WAT      O43053   2.880   5.655   2.860  0.0176  0.3156  0.1845
10587WAT     H143054   2.869   5.728   2.906 -0.1639 -1.4004  3.1412
10587WAT     H243055   2.799   5.634   2.836 -0.1362  0.3176  0.6809
10587WAT    EPW43056   2.866   5.662   2.863  0.7570 -0.0023 -0.3952
10588WAT      O43057   3.756   1.966   2.253 -0.6712 -0.3545  0.8623
10588WAT     H143058   3.701   2.034   2.252  0.7162  0.8444  1.4355
10588WAT     H243059   3.835   2.004   2.255  0.1773 -1.9990  0.5751
10588WAT    EPW43060   3.760   1.982   2.253  0.5697 -0.0883 -0.2730
10589WAT      O43061   6.323   4.295   3.106  0.2444 -0.5478 -0.1515
10589WAT     H143062   6.273   4.317   3.173 -0.0745 -0.0340 -0.5521
10589WAT     H243063   6.275   4.237   3.062 -1.3825  2.1195 -2.2169
10589WAT    EPW43064   6.309   4.290   3.109 -0.6167  0.0310 -0.4108
10590WAT      O43065   3.241   5.290   3.678 -0.1324 -0.2689  0.3583
10590WAT     H143066   3.247   5.203   3.678 -1.7581 -0.4172  0.3258
10590WAT     H243067   3.184   5.307   3.742  0.1681  0.7855  0.3805
10590WAT    EPW43068   3.234   5.280   3.687 -0.6420  0.7585 -0.3126
10591WAT      O43069   2.701   7.946   1.711  0.2557  0.0266 -0.2669
10591WAT     H143070   2.619   7.951   1.741  0.2981  0.4744 -0.2230
10591WAT     H243071   2.716   8.025   1.677  1.4724  0.7787  1.8230
10591WAT    EPW43072   2.691   7.958   1.711 -0.2357 -0.3715  0.2373
10592WAT      O43073   2.203   1.891   3.654  0.1745  0.2576 -0.2317
10592WAT     H143074   2.197   1.854   3.732 -0.5847  2.6837  0.9362
10592WAT     H243075   2.120   1.901   3.629  0.2488  2.3991  0.1757
10592WAT    EPW43076   2.190   1.887   3.662 -0.2679 -0.2707  0.2880
10593WAT      O43077   2.280   3.017   4.101 -0.0743  0.0260  0.1343
10593WAT     H143078   2.319   3.016   4.023  1.0423  1.7875  0.6041
10593WAT     H243079   2.341   3.049   4.154 -1.2943  0.2696  1.4585
10593WAT    EPW43080   2.295   3.021   4.097 -0.7120  0.3394  0.3540
10594WAT      O43081   0.366   2.799   1.170 -0.1763 -0.2428 -0.5348
10594WAT     H143082   0.338   2.809   1.088  0.4652 -2.3844 -1.0806
10594WAT     H243083   0.307   2.745   1.205 -0.2749  0.4143  0.3325
10594WAT    EPW43084   0.354   2.792   1.163  0.1553  0.0293 -0.0333
10595WAT      O43085   2.821   0.277   7.802 -0.0866 -0.0866 -0.5737
10595WAT     H143086   2.804   0.273   7.887  0.6020 -0.9146 -0.4657
10595WAT     H243087   2.862   0.353   7.793 -0.2360  0.0417 -0.1878
10595WAT    EPW43088   2.824   0.288   7.813 -0.2280 -0.8545  0.3518
10596WAT      O43089   6.482   3.023   3.150 -0.0802  0.1234  0.2027
10596WAT     H143090   6.568   3.007   3.155  0.0028 -0.4908 -1.9915
10596WAT     H243091   6.479   3.109   3.131 -0.1388  0.8351  3.0383
10596WAT    EPW43092   6.494   3.034   3.148 -0.2000 -0.5618  0.0036
10597WAT      O43093   0.309   2.659   1.481  0.0295 -0.1507 -0.3463
10597WAT     H143094   0.266   2.735   1.486 -1.8252 -1.1540 -0.0472
10597WAT     H243095   0.275   2.620   1.411  1.8185 -0.2487 -1.2137
10597WAT    EPW43096   0.297   2.664   1.472  0.9998 -0.1030 -0.1646
10598WAT      O43097   1.411   6.451   4.170 -0.6656 -0.2299  0.2094
10598WAT     H143098   1.427   6.535   4.188 -1.1240  0.0363 -0.5791
10598WAT     H243099   1.329   6.439   4.200 -0.2243 -0.6953  1.2804
10598WAT    EPW43100   1.401   6.461   4.177  0.8732  0.0583 -0.1389
10599WAT      O43101   7.849   5.443   3.905 -0.2484  0.0080 -0.3337
10599WAT     H143102   7.826   5.426   3.987  1.7797 -1.6180 -0.0367
10599WAT     H243103   7.815   5.376   3.860  1.8893 -1.2887 -0.1770
10599WAT    EPW43104   7.840   5.431   3.910 -0.3126  0.0820 -0.1184
10600WAT      O43105   2.179   3.269   3.149 -0.0242  0.8464  0.0786
10600WAT     H143106   2.207   3.318   3.082  1.1680  1.0671  0.7019
10600WAT     H243107   2.112   3.225   3.116  0.3871  1.1349 -1.1931
10600WAT    EPW43108   2.174   3.270   3.134 -0.2188  0.3343 -0.0445
10601WAT      O43109   3.075   4.881   0.075 -0.0211  0.1165  0.3656
10601WAT     H143110   3.120   4.806   0.066  0.2167  0.3947 -0.8386
10601WAT     H243111   3.065   4.909  -0.007  0.7703  1.9212  0.8441
10601WAT    EPW43112   3.080   4.874   0.062  0.0533  0.0292  0.0917
10602WAT      O43113   4.239   1.281   0.216  0.2589  0.1834 -0.1984
10602WAT     H143114   4.265   1.363   0.226  0.7129 -0.1019  1.0501
10602WAT     H243115   4.215   1.278   0.132  1.5942  1.2043 -0.6580
10602WAT    EPW43116   4.240   1.292   0.205 -0.8080 -0.0787 -0.1324
10603WAT      O43117   3.985   4.442   3.153 -0.2899 -0.5847 -0.4914
10603WAT     H143118   3.970   4.403   3.231  1.1170 -1.4782 -0.6356
10603WAT     H243119   4.014   4.376   3.104  1.7361  0.5599 -0.8935
10603WAT    EPW43120   3.987   4.426   3.157  0.5959  0.3675  0.0039
10604WAT      O43121   5.010   7.435   2.747 -0.5396  0.1162 -0.1741
10604WAT     H143122   4.989   7.350   2.752  0.4540 -0.2539 -1.6495
10604WAT     H243123   4.943   7.474   2.786 -1.3708 -1.3081 -0.0790
10604WAT    EPW43124   4.997   7.428   2.753 -0.5303 -0.2658  0.9048
10605WAT      O43125   3.961   6.413   7.868 -0.7334 -0.0806  0.4906
10605WAT     H143126   3.919   6.485   7.895 -1.0535 -1.2071  3.3533
10605WAT     H243127   3.915   6.348   7.904  0.8636 -1.5989 -0.0885
10605WAT    EPW43128   3.948   6.414   7.877  0.3163 -0.1133 -0.2190
10606WAT      O43129   7.120   4.102   4.442 -0.0166 -0.1600 -0.1156
10606WAT     H143130   7.109   4.173   4.493 -1.8225 -0.9927  0.7489
10606WAT     H243131   7.206   4.085   4.449  0.2466  1.2759  0.5512
10606WAT    EPW43132   7.131   4.110   4.451  0.6815 -0.7156 -0.0372
10607WAT      O43133   4.012   2.853   2.483 -0.7429  0.0228 -0.1019
10607WAT     H143134   3.950   2.885   2.535 -0.4466  0.2272  0.1304
10607WAT     H243135   3.985   2.772   2.467 -0.8604 -0.0306  0.3409
10607WAT    EPW43136   3.999   2.846   2.488 -0.4632  0.5269  0.1077
10608WAT      O43137   2.722   3.646   3.252  0.4696 -0.1035 -0.0416
10608WAT     H143138   2.790   3.605   3.288 -0.0192 -1.8596 -1.0208
10608WAT     H243139   2.665   3.583   3.237 -0.6673  1.0690 -0.8805
10608WAT    EPW43140   2.724   3.631   3.255  0.1439 -0.2098 -0.4333
10609WAT      O43141   2.212   0.152   0.063 -0.0336 -0.5822  0.0567
10609WAT     H143142   2.214   0.168  -0.023 -0.8047  2.0056  0.4375
10609WAT     H243143   2.262   0.214   0.096 -0.1660 -1.2372  1.5455
10609WAT    EPW43144   2.219   0.163   0.055 -0.6564  0.1130 -0.3141
10610WAT      O43145   5.753   3.376   1.040 -0.1891  0.1921  0.4298
10610WAT     H143146   5.724   3.426   0.975 -1.5511  0.9138  1.5420
10610WAT     H243147   5.836   3.360   1.018 -0.1036  1.8631 -0.6200
10610WAT    EPW43148   5.761   3.381   1.027  0.5946 -0.2349  0.0365
10611WAT      O43149   4.358   3.713   0.056 -0.1382  0.1923 -0.0484
10611WAT     H143150   4.341   3.657  -0.008  0.6467 -0.4206  0.2605
10611WAT     H243151   4.280   3.729   0.091 -0.1962 -2.2964  1.1647
10611WAT    EPW43152   4.344   3.707   0.052  0.7450  0.8627 -0.2041
10612WAT      O43153   3.795   0.486   5.427 -0.6248 -0.2915 -0.1029
10612WAT     H143154   3.725   0.536   5.411 -1.1835 -0.9357  0.2486
10612WAT     H243155   3.858   0.522   5.379 -1.5891 -0.6516 -1.7205
10612WAT    EPW43156   3.794   0.499   5.418  0.3092  0.5995 -0.1305
10613WAT      O43157   4.317   2.214   1.265 -0.1866  0.3324  0.4235
10613WAT     H143158   4.297   2.133   1.239 -1.1487  0.7518 -0.1917
10613WAT     H243159   4.311   2.210   1.352 -1.7588  0.1173  0.3233
10613WAT    EPW43160   4.313   2.201   1.274  0.2621  0.1655 -0.4050
10614WAT      O43161   7.383   2.990   3.026  0.2348 -0.1878 -0.0034
10614WAT     H143162   7.454   2.956   2.989  0.2721  0.3430 -0.4259
10614WAT     H243163   7.385   3.074   3.003 -0.2547 -0.0524  0.4080
10614WAT    EPW43164   7.394   2.997   3.017 -0.0571  0.1514  0.5059
10615WAT      O43165   7.153   2.320   4.151 -0.3448  0.0806 -0.0839
10615WAT     H143166   7.101   2.277   4.207  2.7460 -0.3304  2.7768
10615WAT     H243167   7.164   2.398   4.188 -0.3947  0.8594 -1.6229
10615WAT    EPW43168   7.147   2.325   4.165  0.5626  0.1595 -0.0203
10616WAT      O43169   0.867   6.517   0.552 -0.1621 -0.2303 -0.3638
10616WAT     H143170   0.892   6.523   0.635  2.1727 -0.0343 -1.0128
10616WAT     H243171   0.786   6.548   0.552  0.7284  2.3747  1.4012
10616WAT    EPW43172   0.859   6.522   0.564  0.2709 -0.9143  0.1584
10617WAT      O43173   0.644   2.896   2.735  0.0903 -0.7290 -0.3034
10617WAT     H143174   0.654   2.949   2.804 -1.2477  0.7896 -1.2013
10617WAT     H243175   0.723   2.895   2.699  1.1347 -2.4484  1.7761
10617WAT    EPW43176   0.657   2.904   2.740  0.0481 -0.0655  0.1528
10618WAT      O43177   3.541   5.934   3.785  0.2075  0.4213 -0.4288
10618WAT     H143178   3.461   5.903   3.797  0.3396  0.3288  0.2714
10618WAT     H243179   3.557   5.919   3.700 -0.0730 -0.5849 -0.3116
10618WAT    EPW43180   3.531   5.927   3.774  0.0571  0.2672 -0.0919
10619WAT      O43181   1.314   4.373   4.213 -0.2805  0.4636  0.4377
10619WAT     H143182   1.255   4.434   4.195 -0.0496  0.6634  0.3518
10619WAT     H243183   1.290   4.343   4.291  1.0694  2.4646  1.7198
10619WAT    EPW43184   1.302   4.377   4.222  0.0477 -0.1297 -0.5134
10620WAT      O43185   6.882   3.462   3.809 -0.1915 -0.1537 -0.0218
10620WAT     H143186   6.796   3.450   3.812 -0.1816 -0.1186  0.7065
10620WAT     H243187   6.892   3.540   3.771 -0.4794 -0.1978 -0.1823
10620WAT    EPW43188   6.871   3.472   3.804 -0.2210 -0.4102 -0.1721
10621WAT      O43189   2.601   1.866   1.800  0.1980  0.1383 -0.2004
10621WAT     H143190   2.529   1.871   1.751  1.4544  0.5574 -2.1011
10621WAT     H243191   2.598   1.940   1.846 -0.5116  0.2154 -0.3499
10621WAT    EPW43192   2.590   1.878   1.800 -0.3061  0.1522 -0.4223
10622WAT      O43193   5.425   5.463   3.706  0.0735  0.7442 -0.1862
10622WAT     H143194   5.418   5.464   3.793 -0.8971  0.4617 -0.2524
10622WAT     H243195   5.363   5.518   3.679 -0.0996  0.2993 -0.7198
10622WAT    EPW43196   5.415   5.471   3.715 -0.3997  0.5787 -0.9648
10623WAT      O43197   0.087   4.592   1.234 -0.2163  0.0369 -0.7679
10623WAT     H143198   0.097   4.572   1.149  1.1055 -1.5396 -0.2921
10623WAT     H243199   0.124   4.670   1.241  0.8612 -0.3844 -1.4349
10623WAT    EPW43200   0.094   4.600   1.222  0.2554  0.2138  0.2229
10624WAT      O43201   2.356   4.221   4.491 -0.3112  0.5909  0.0202
10624WAT     H143202   2.437   4.190   4.483 -0.9243 -0.9719 -0.3702
10624WAT     H243203   2.367   4.307   4.482  1.1611  0.3313 -1.0640
10624WAT    EPW43204   2.370   4.229   4.489 -0.2796 -0.2098  0.5811
10625WAT      O43205   3.288   0.698   3.282 -0.0865 -0.2184  0.5740
10625WAT     H143206   3.208   0.673   3.307  0.3860 -0.7779  1.5797
10625WAT     H243207   3.298   0.658   3.205 -0.5138 -0.7235  0.7706
10625WAT    EPW43208   3.277   0.688   3.274 -0.4614  0.0735 -0.1265
10626WAT      O43209   0.734   0.346   2.781 -0.4870  0.2084 -0.0254
10626WAT     H143210   0.654   0.339   2.817  0.3016 -1.4894  1.5981
10626WAT     H243211   0.758   0.263   2.769  0.8463  0.7003 -0.9469
10626WAT    EPW43212   0.726   0.333   2.785 -0.3176 -0.0167 -0.6407
10627WAT      O43213   3.313   6.040   5.722  0.0800  0.6928  0.2041
10627WAT     H143214   3.332   6.011   5.802  2.0879  1.7980  0.1901
10627WAT     H243215   3.370   5.999   5.671  1.2434  2.6065 -0.1390
10627WAT    EPW43216   3.324   6.030   5.726  0.1954 -0.6672 -0.0335
10628WAT      O43217   1.597   2.227   5.446 -0.9628 -0.4971  0.1895
10628WAT     H143218   1.632   2.277   5.509  2.5387  1.2354 -2.6685
10628WAT     H243219   1.620   2.146   5.469  0.0633  0.0586  1.2767
10628WAT    EPW43220   1.606   2.223   5.459  0.3891 -0.1194 -0.1127
10629WAT      O43221   1.156   6.365   0.758 -0.1400 -0.0606  0.6793
10629WAT     H143222   1.086   6.407   0.787  0.1647  0.2887  0.9265
10629WAT     H243223   1.166   6.394   0.677 -0.1849  0.0208  0.7030
10629WAT    EPW43224   1.147   6.375   0.750  0.1414  0.3768 -0.3978
10630WAT      O43225   0.475   6.525   1.970  0.2504 -0.0118 -0.0813
10630WAT     H143226   0.542   6.580   1.960  0.4505 -0.1006  0.6905
10630WAT     H243227   0.453   6.504   1.888  2.2045 -1.2296 -0.3542
10630WAT    EPW43228   0.482   6.530   1.956 -0.2389  0.1184  1.2761
10631WAT      O43229   7.128   6.252   1.906  0.3064  0.0587  0.7175
10631WAT     H143230   7.191   6.294   1.949  2.0829  0.1927 -1.7892
10631WAT     H243231   7.128   6.172   1.941  1.2183  0.3380  1.3812
10631WAT    EPW43232   7.137   6.246   1.918 -0.4555  0.2293  0.2415
10632WAT      O43233   3.851   5.709   3.158 -0.0937 -0.3590  0.4910
10632WAT     H143234   3.889   5.701   3.236 -1.5299  0.5252  1.3111
10632WAT     H243235   3.916   5.691   3.102  0.8444 -1.4596  1.8727
10632WAT    EPW43236   3.866   5.706   3.161  0.2100 -0.1534 -0.4921
10633WAT      O43237   7.470   4.632   3.387  0.0551 -0.3431 -0.2687
10633WAT     H143238   7.554   4.611   3.373  0.6449  0.8720  1.0931
10633WAT     H243239   7.469   4.718   3.376 -0.7816 -0.2084  0.7138
10633WAT    EPW43240   7.482   4.642   3.383  0.0174  0.3648  0.2408
10634WAT      O43241   4.564   1.394   2.883 -0.1374  0.1857 -0.3075
10634WAT     H143242   4.504   1.360   2.830 -0.8761 -1.6253  1.5721
10634WAT     H243243   4.636   1.395   2.834 -1.0956  0.0083 -1.7962
10634WAT    EPW43244   4.566   1.389   2.868  0.1291  0.1387  0.4371
10635WAT      O43245   7.101   1.489   0.315 -0.1190  0.1570  0.2376
10635WAT     H143246   7.057   1.515   0.386 -0.3088 -1.9213  0.9350
10635WAT     H243247   7.043   1.501   0.250 -0.8443 -0.2570  0.7972
10635WAT    EPW43248   7.086   1.495   0.316  0.0184  0.1632 -0.1874
10636WAT      O43249   5.109   3.935   3.287  0.0509  0.3455  0.2506
10636WAT     H143250   5.053   3.902   3.345 -0.3267  0.9729  0.2401
10636WAT     H243251   5.069   4.006   3.256  0.3356  0.1421 -0.6317
10636WAT    EPW43252   5.095   3.940   3.291  0.2947 -0.0493 -0.2906
10637WAT      O43253   0.209   2.295   3.886 -0.0935  0.3217  0.3475
10637WAT     H143254   0.266   2.337   3.937 -1.1645  1.3176  0.7841
10637WAT     H243255   0.174   2.235   3.940 -0.4662  0.6702  0.5036
10637WAT    EPW43256   0.212   2.292   3.902  0.0719  0.2476  0.4934
10638WAT      O43257   1.654   3.686   4.823 -0.2045  0.8180 -0.5872
10638WAT     H143258   1.656   3.642   4.748  0.6760 -1.6394  0.7553
10638WAT     H243259   1.602   3.638   4.874 -1.0655  2.5979  0.3085
10638WAT    EPW43260   1.647   3.672   4.820 -0.3784  0.7039  0.2349
10639WAT      O43261   1.848   3.827   2.326 -0.1346  0.5180  0.2650
10639WAT     H143262   1.869   3.881   2.261  0.8692  1.1144  1.0629
10639WAT     H243263   1.899   3.852   2.391 -2.5240  1.2819  1.9642
10639WAT    EPW43264   1.858   3.839   2.326  0.0363  0.3065 -0.1431
10640WAT      O43265   5.522   7.571   4.181 -0.2430 -0.2231 -0.2588
10640WAT     H143266   5.486   7.553   4.103 -0.5384 -0.8372  0.0167
10640WAT     H243267   5.578   7.635   4.162  0.8161 -1.3785 -1.2855
10640WAT    EPW43268   5.525   7.578   4.167  0.4957  0.3780 -0.4053
10641WAT      O43269   1.003   6.392   4.470 -0.4366 -0.3477 -0.5701
10641WAT     H143270   0.942   6.330   4.471  0.3505 -1.2114 -1.8954
10641WAT     H243271   1.061   6.365   4.530  0.8341 -1.9893 -2.3956
10641WAT    EPW43272   1.003   6.378   4.479 -0.8275  0.3486  0.0311
10642WAT      O43273   5.378   0.520   3.947 -0.1260  0.4226  0.4111
10642WAT     H143274   5.388   0.515   4.034 -1.5096  0.2553  0.5814
10642WAT     H243275   5.292   0.532   3.937 -0.0456 -0.0095 -0.9581
10642WAT    EPW43276   5.367   0.521   3.959  0.3556  0.1185 -0.5299
10643WAT      O43277   4.887   1.773   7.269  0.5001 -0.2211 -0.1627
10643WAT     H143278   4.901   1.746   7.187  1.5696 -1.4052  0.3826
10643WAT     H243279   4.807   1.807   7.266 -0.7598 -2.9988 -1.0510
10643WAT    EPW43280   4.877   1.774   7.256  0.3966 -0.1208 -0.0308
10644WAT      O43281   2.759   3.329   0.750 -0.3927  0.0897 -0.0252
10644WAT     H143282   2.753   3.245   0.726  0.2421  0.1965 -0.5865
10644WAT     H243283   2.713   3.332   0.824 -0.8647 -0.6411 -0.2764
10644WAT    EPW43284   2.751   3.317   0.757 -0.3406  0.4703 -0.2242
10645WAT      O43285   0.269   2.127   4.695 -0.4106  0.2548  0.1652
10645WAT     H143286   0.205   2.114   4.637 -0.2189  0.7449 -0.1600
10645WAT     H243287   0.332   2.164   4.648 -0.0565  0.1831  0.5794
10645WAT    EPW43288   0.269   2.130   4.679 -0.4226  0.5146  0.1031
10646WAT      O43289   0.942   5.208   2.811  0.5578  0.3294 -0.0787
10646WAT     H143290   0.980   5.283   2.836  2.0357 -0.1136 -0.8775
10646WAT     H243291   0.902   5.229   2.737  0.1044  0.5589  0.2267
10646WAT    EPW43292   0.942   5.222   2.804  0.0998 -0.3017 -0.3053
10647WAT      O43293   7.278   7.239   0.751 -0.6277 -0.2482 -0.1158
10647WAT     H143294   7.355   7.199   0.746  0.4634  1.7275 -0.2712
10647WAT     H243295   7.261   7.259   0.667 -0.0967  1.3856  0.1313
10647WAT    EPW43296   7.287   7.236   0.738 -0.6708 -0.4510  0.0499
10648WAT      O43297   2.739   4.297   1.944 -0.5254 -0.1666  0.0444
10648WAT     H143298   2.691   4.369   1.932 -0.4565 -0.1505 -0.1325
10648WAT     H243299   2.817   4.327   1.969 -0.7237 -0.2048  0.7420
10648WAT    EPW43300   2.743   4.312   1.946  0.0877  0.7778  0.0419
10649WAT      O43301   1.292   5.258   1.525 -0.4033 -0.1108  0.1005
10649WAT     H143302   1.349   5.200   1.493  1.7757 -0.8654  4.5408
10649WAT     H243303   1.230   5.208   1.560 -0.5716  0.4126  0.5589
10649WAT    EPW43304   1.292   5.242   1.525 -0.1845  0.2010  0.1753
10650WAT      O43305   3.082   1.984   7.659  0.0015  0.1314  0.2117
10650WAT     H143306   3.131   2.054   7.677  0.5024 -0.0381 -0.4444
10650WAT     H243307   3.122   1.948   7.590 -0.4784 -0.5760  0.2882
10650WAT    EPW43308   3.095   1.989   7.652  0.4028  0.2360  0.1852
10651WAT      O43309   2.273   5.707   5.445  0.2059  0.0693 -0.2607
10651WAT     H143310   2.293   5.644   5.502 -1.6491 -1.2585 -0.9806
10651WAT     H243311   2.306   5.677   5.370 -0.3170  0.1573 -0.5281
10651WAT    EPW43312   2.281   5.693   5.442  0.0757  0.3920  0.1176
10652WAT      O43313   1.973   4.052   1.102  0.1931  0.5172 -0.3416
10652WAT     H143314   2.047   4.006   1.104  1.6662  2.5294 -2.3489
10652WAT     H243315   1.982   4.109   1.167  0.8908  1.3370 -1.1277
10652WAT    EPW43316   1.985   4.053   1.112 -0.2215  0.6481  0.8986
10653WAT      O43317   1.773   4.526   2.044 -0.2340  0.3573 -0.3556
10653WAT     H143318   1.755   4.442   2.060  0.7218  0.3079  0.5683
10653WAT     H243319   1.860   4.529   2.042 -0.2555  1.3372 -0.3174
10653WAT    EPW43320   1.783   4.514   2.046 -0.6234  0.4407  0.0174
10654WAT      O43321   7.786   3.932   3.304 -1.0610  0.1945  0.4984
10654WAT     H143322   7.731   3.946   3.237 -0.5642  0.3441  0.1206
10654WAT     H243323   7.806   3.848   3.296 -0.7263  0.2956  0.2445
10654WAT    EPW43324   7.781   3.922   3.293  0.0962 -0.1565  0.2138
10655WAT      O43325   2.397   4.651   3.165 -0.4756  0.0541 -0.6000
10655WAT     H143326   2.384   4.616   3.086 -0.0454 -0.6444 -0.3681
10655WAT     H243327   2.321   4.637   3.205 -0.9766  1.1041 -1.1259
10655WAT    EPW43328   2.384   4.644   3.159 -0.3438 -0.2273 -0.0944
10656WAT      O43329   2.075   1.350   7.356  0.1690 -0.0422 -0.7134
10656WAT     H143330   2.136   1.380   7.302 -0.0680  2.0846  0.1038
10656WAT     H243331   2.120   1.316   7.422  0.4458 -0.9259 -1.3394
10656WAT    EPW43332   2.090   1.349   7.358  0.6762 -0.3293 -0.5594
10657WAT      O43333   0.894   4.107   0.387 -0.3190  0.0351 -0.3080
10657WAT     H143334   0.949   4.159   0.343  1.1471  0.5276  1.9199
10657WAT     H243335   0.843   4.164   0.430 -1.4869 -0.4296 -1.0386
10657WAT    EPW43336   0.895   4.123   0.387  0.2679  0.0981 -0.7404
10658WAT      O43337   7.733   6.947   2.486  0.0232  0.2108  0.5121
10658WAT     H143338   7.710   7.028   2.509 -2.8849 -0.4340  0.2785
10658WAT     H243339   7.760   6.911   2.561  1.9026  1.4859  0.5121
10658WAT    EPW43340   7.734   6.953   2.501 -0.3804 -0.3667 -0.1717
10659WAT      O43341   0.917   7.348   0.129 -0.2163  0.1041  0.2474
10659WAT     H143342   0.841   7.391   0.137  0.6752  1.7310  0.4763
10659WAT     H243343   0.952   7.353   0.209  0.1039 -0.6917  0.1624
10659WAT    EPW43344   0.911   7.355   0.142  0.5548 -0.1202 -0.0686
10660WAT      O43345   7.955   6.466   4.133 -0.6422  0.3303  0.0397
10660WAT     H143346   7.981   6.402   4.079 -1.4564 -0.7721  0.9044
10660WAT     H243347   7.869   6.473   4.117 -0.4600  1.6660 -0.4852
10660WAT    EPW43348   7.946   6.457   4.122 -0.1030  0.3838  0.4593
10661WAT      O43349   0.528   2.070   0.443 -0.2487 -0.4919  0.2292
10661WAT     H143350   0.605   2.111   0.449  0.3253 -1.2444 -1.4397
10661WAT     H243351   0.550   1.987   0.426 -1.4299 -0.8123  0.1661
10661WAT    EPW43352   0.543   2.064   0.442 -0.3266 -0.4826 -0.2646
10662WAT      O43353   3.310   5.371   2.261 -0.2551  0.1373 -0.0933
10662WAT     H143354   3.386   5.382   2.302 -1.1270  0.0602  1.6323
10662WAT     H243355   3.251   5.395   2.321 -1.6198 -0.4348 -1.1597
10662WAT    EPW43356   3.312   5.376   2.276  0.6016  0.0742 -0.3328
10663WAT      O43357   7.861   3.707   0.932 -0.3579 -0.2671  0.1233
10663WAT     H143358   7.891   3.627   0.951  0.2354 -0.6891 -2.2943
10663WAT     H243359   7.791   3.691   0.881  0.2432  0.7234 -1.0589
10663WAT    EPW43360   7.855   3.693   0.927 -0.0127 -0.1211 -0.3537
10664WAT      O43361   6.774   3.281   2.804  0.0255 -0.2068  0.1897
10664WAT     H143362   6.778   3.354   2.850  2.7845  0.0942 -0.3584
10664WAT     H243363   6.768   3.218   2.865  0.4803  0.3496  0.8234
10664WAT    EPW43364   6.774   3.282   2.820  0.3005 -0.7842  0.0894
10665WAT      O43365   3.424   3.156   7.641  0.0222 -0.1266  0.7800
10665WAT     H143366   3.380   3.087   7.610  0.3219  0.6227 -1.4863
10665WAT     H243367   3.506   3.127   7.649  0.3259  0.1290 -0.9824
10665WAT    EPW43368   3.429   3.141   7.637  0.7706  0.0615 -0.3152
10666WAT      O43369   3.327   3.381   1.110 -0.1989 -0.0886 -0.3630
10666WAT     H143370   3.340   3.305   1.070  0.6977 -0.3485  0.3963
10666WAT     H243371   3.342   3.364   1.194 -0.2155  0.8720 -0.1448
10666WAT    EPW43372   3.331   3.367   1.117 -0.1490  0.7904  0.7955
10667WAT      O43373   1.775   2.154   2.243  0.2965 -0.0217 -0.8806
10667WAT     H143374   1.781   2.173   2.328  0.0553  0.5203 -0.9845
10667WAT     H243375   1.825   2.214   2.205  0.3177 -0.1982 -1.1300
10667WAT    EPW43376   1.783   2.166   2.250 -0.2567  0.7431  0.0472
10668WAT      O43377   5.726   4.893   2.082  0.0931  0.0701  0.6300
10668WAT     H143378   5.809   4.892   2.055 -0.8132 -0.0621 -2.5685
10668WAT     H243379   5.693   4.821   2.047 -1.4209  0.1676  1.7882
10668WAT    EPW43380   5.734   4.882   2.073 -0.3879  0.0283 -0.5398
10669WAT      O43381   7.146   3.032   3.683  0.2154  0.2993  0.3647
10669WAT     H143382   7.195   3.001   3.748 -0.2124 -0.8624  0.1571
10669WAT     H243383   7.188   3.005   3.611 -0.7749 -0.8703  0.1861
10669WAT    EPW43384   7.159   3.023   3.682 -0.0780  0.0338 -0.3614
10670WAT      O43385   4.367   5.616   7.750  0.3053 -0.5229 -0.5132
10670WAT     H143386   4.380   5.546   7.801 -0.9995 -0.2713  0.2289
10670WAT     H243387   4.439   5.621   7.703  1.3901 -1.0446  1.0028
10670WAT    EPW43388   4.380   5.606   7.751 -0.2631 -0.0137  0.0603
10671WAT      O43389   0.939   2.679   1.034 -0.4192  0.0854 -0.1429
10671WAT     H143390   0.908   2.603   1.003  0.7451 -0.0693 -0.9852
10671WAT     H243391   0.994   2.654   1.097  0.2776  0.1912 -0.6962
10671WAT    EPW43392   0.942   2.664   1.039 -0.1747 -0.1441 -0.5095
10672WAT      O43393   0.569   0.716   1.410 -0.5668  0.0301 -0.4062
10672WAT     H143394   0.621   0.755   1.468 -0.6694 -0.5223  0.0643
10672WAT     H243395   0.615   0.717   1.336 -0.7024  1.3468 -0.4924
10672WAT    EPW43396   0.584   0.722   1.407 -0.1737  0.0249 -0.0843
10673WAT      O43397   2.839   0.120   0.006  0.6536  0.3308  0.4676
10673WAT     H143398   2.810   0.095   0.084  1.4754 -1.9623  0.1102
10673WAT     H243399   2.821   0.052  -0.045  1.9398  0.9593 -0.8896
10673WAT    EPW43400   2.832   0.106   0.010  0.0691 -0.9258 -0.4597
10674WAT      O43401   1.191   3.836   3.839 -0.0787 -0.2024 -0.2435
10674WAT     H143402   1.276   3.848   3.853 -0.1637  0.9946 -0.6195
10674WAT     H243403   1.185   3.751   3.822  1.2101 -0.1232 -1.2818
10674WAT    EPW43404   1.203   3.825   3.839  0.2734  0.0583 -0.2209
10675WAT      O43405   6.110   7.168   0.229  0.2000 -1.1818  0.1344
10675WAT     H143406   6.063   7.226   0.185  1.5167  0.8166  1.2150
10675WAT     H243407   6.067   7.158   0.304 -0.9145 -2.9670 -0.6817
10675WAT    EPW43408   6.097   7.175   0.234 -0.1862 -0.6104 -0.5348
10676WAT      O43409   3.319   6.320   1.319  0.2391  0.0857 -0.1299
10676WAT     H143410   3.311   6.396   1.277  0.7033  0.9118  1.1967
10676WAT     H243411   3.289   6.338   1.399  2.9094 -0.3206  1.0680
10676WAT    EPW43412   3.313   6.334   1.325 -0.2897 -0.2019  0.0159
10677WAT      O43413   2.363   7.748   0.583  0.3238  0.6254  0.4557
10677WAT     H143414   2.290   7.703   0.599  0.7063  0.5868  2.2545
10677WAT     H243415   2.423   7.685   0.571  0.2335  0.6613 -0.2104
10677WAT    EPW43416   2.361   7.732   0.584  0.2302 -0.4358 -0.2152
10678WAT      O43417   2.192   5.355   7.003  0.2562  0.1476 -0.2852
10678WAT     H143418   2.112   5.389   6.996  0.9981  1.6694 -3.0138
10678WAT     H243419   2.189   5.285   6.952  0.8187  0.6750 -1.0777
10678WAT    EPW43420   2.180   5.350   6.994 -0.1913 -0.1283  0.2830
10679WAT      O43421   5.911   3.178   7.854 -0.0184 -0.4373  0.7536
10679WAT     H143422   5.925   3.234   7.919 -0.7745  0.5696  0.0835
10679WAT     H243423   5.915   3.100   7.893  1.0197  0.0709  1.7118
10679WAT    EPW43424   5.913   3.175   7.869  0.0348  0.8544  0.2753
10680WAT      O43425   5.028   3.474   6.444  0.1482 -0.1809  0.4593
10680WAT     H143426   5.012   3.468   6.358 -2.0496 -0.5132  0.8561
10680WAT     H243427   5.005   3.396   6.475  0.9681 -0.0799  1.3699
10680WAT    EPW43428   5.022   3.461   6.436  0.6846 -0.4682 -0.0453
10681WAT      O43429   1.229   2.987   4.571 -0.0947  0.5117  0.0955
10681WAT     H143430   1.248   2.933   4.505  2.5021  0.0025  1.1325
10681WAT     H243431   1.217   3.064   4.531  2.8066  0.5466 -0.9982
10681WAT    EPW43432   1.230   2.990   4.555 -0.1318  0.1468 -0.4992
10682WAT      O43433   4.051   2.828   6.536 -0.4399 -0.4229 -0.6948
10682WAT     H143434   4.017   2.828   6.617  0.0097 -1.9625 -0.4779
10682WAT     H243435   4.136   2.815   6.549  0.2104  2.4011 -1.2939
10682WAT    EPW43436   4.059   2.826   6.550 -0.4846  0.3565  0.3153
10683WAT      O43437   6.964   7.309   3.134  0.1101  0.5009 -0.0757
10683WAT     H143438   6.887   7.290   3.096  0.7400  0.0665 -1.1862
10683WAT     H243439   7.016   7.327   3.066  0.6058  2.3099  0.7379
10683WAT    EPW43440   6.960   7.309   3.118 -0.6340  0.2586  0.3243
10684WAT      O43441   2.048   1.607   1.130  0.2833 -0.5329  0.3724
10684WAT     H143442   1.968   1.572   1.142 -0.1196  1.0044  2.7786
10684WAT     H243443   2.047   1.630   1.046 -2.5645  1.1006  0.7200
10684WAT    EPW43444   2.036   1.605   1.120  0.3303  0.0042  0.4196
10685WAT      O43445   0.825   4.951   4.028  0.2207  0.1023 -0.7049
10685WAT     H143446   0.906   4.975   4.048  0.6476 -2.1819  0.6730
10685WAT     H243447   0.831   4.920   3.947  0.5551  0.6430 -0.8874
10685WAT    EPW43448   0.838   4.950   4.019  0.2991 -0.6582 -0.4553
10686WAT      O43449   0.066   2.129   1.141  0.5143 -0.3881 -0.0437
10686WAT     H143450   0.108   2.054   1.126  0.0170 -0.3756 -1.6731
10686WAT     H243451   0.029   2.116   1.219  0.6127 -1.7722 -0.2000
10686WAT    EPW43452   0.066   2.116   1.150  0.4044  0.1762  0.5247
10687WAT      O43453   3.378   4.035   1.289  0.1329  0.1294 -0.2189
10687WAT     H143454   3.380   4.112   1.247  1.4103  0.8477  1.0534
10687WAT     H243455   3.434   4.047   1.355 -1.1845 -1.2146  1.2137
10687WAT    EPW43456   3.387   4.048   1.293 -0.2120 -0.2535 -0.0712
10688WAT      O43457   1.163   0.755   1.365  0.0772  0.0227  0.6121
10688WAT     H143458   1.209   0.829   1.359 -1.5598  0.9723 -3.1503
10688WAT     H243459   1.090   0.779   1.406 -0.7563  0.8034 -1.2118
10688WAT    EPW43460   1.159   0.769   1.370  0.5731 -0.1825 -0.4940
10689WAT      O43461   2.961   4.533   0.339 -0.0419  0.1392 -0.1097
10689WAT     H143462   2.938   4.455   0.307  0.3958 -0.2646  0.5379
10689WAT     H243463   2.885   4.575   0.347 -0.7168 -1.3250  2.4559
10689WAT    EPW43464   2.947   4.528   0.335  0.1348 -0.3518 -0.8679
10690WAT      O43465   3.302   3.665   5.778  0.0016 -0.6449 -0.1631
10690WAT     H143466   3.316   3.742   5.817 -1.3618 -0.4722  0.0112
10690WAT     H243467   3.373   3.619   5.801  0.5951  0.3750  0.1551
10690WAT    EPW43468   3.315   3.670   5.787  0.4619 -0.2874  0.1085
10691WAT      O43469   4.253   6.772   6.384  0.2492 -0.2815 -0.0636
10691WAT     H143470   4.306   6.705   6.364  0.7831 -0.2522  1.1525
10691WAT     H243471   4.306   6.841   6.383  0.0493 -0.1202  0.3185
10691WAT    EPW43472   4.269   6.773   6.381  0.0252 -0.0568  0.7485
10692WAT      O43473   0.165   1.350   0.067 -0.3708 -0.4132  0.1648
10692WAT     H143474   0.195   1.271   0.043 -1.2557 -1.3630  2.0037
10692WAT     H243475   0.226   1.380   0.121 -0.4507 -0.1986  0.1354
10692WAT    EPW43476   0.178   1.343   0.071 -0.1393  0.4033 -0.2003
10693WAT      O43477   1.298   4.605   3.241 -0.3778 -0.2916 -0.1386
10693WAT     H143478   1.381   4.581   3.244 -0.3454 -0.5155 -1.7356
10693WAT     H243479   1.255   4.530   3.231 -0.4707 -0.0197 -2.5705
10693WAT    EPW43480   1.304   4.591   3.240  0.3553 -0.0068  0.0010
10694WAT      O43481   1.186   4.138   1.157 -0.7257 -0.7288 -0.0394
10694WAT     H143482   1.144   4.122   1.082 -0.4480 -0.9791 -0.1440
10694WAT     H243483   1.209   4.058   1.184 -1.0688 -0.6635  0.4525
10694WAT    EPW43484   1.183   4.124   1.150 -0.6898  0.4394  0.6019
10695WAT      O43485   0.841   4.438   1.282  0.2191 -0.2610 -0.5572
10695WAT     H143486   0.778   4.476   1.327 -0.2750 -0.8250 -0.7470
10695WAT     H243487   0.810   4.438   1.200  0.2633 -0.9266 -0.5822
10695WAT    EPW43488   0.827   4.443   1.276 -0.2013 -0.1413  0.5500
10696WAT      O43489   2.855   1.293   5.590  0.0810 -0.3567 -0.3948
10696WAT     H143490   2.847   1.275   5.505  0.4593 -1.9329 -0.1149
10696WAT     H243491   2.934   1.329   5.596  0.8923 -2.0492 -0.4540
10696WAT    EPW43492   2.865   1.296   5.578 -0.8419 -0.3231 -0.8882
10697WAT      O43493   5.935   1.509   7.777 -0.1716  0.0465 -0.2240
10697WAT     H143494   6.014   1.518   7.813 -0.9021 -0.2447  1.6157
10697WAT     H243495   5.896   1.585   7.794  0.1591  0.7939 -2.4944
10697WAT    EPW43496   5.941   1.522   7.785 -0.2283  0.0320  0.3302
10698WAT      O43497   2.994   0.077   7.663  0.0542  0.3343 -0.8944
10698WAT     H143498   2.933   0.118   7.710  0.6219  1.6262 -1.2453
10698WAT     H243499   3.045   0.142   7.635  2.4121 -0.8065  0.5156
10698WAT    EPW43500   2.992   0.093   7.666  0.2434 -0.4728  0.3252
10699WAT      O43501   2.504   7.062   0.460  0.0687  0.1786  0.1573
10699WAT     H143502   2.527   7.090   0.540  1.1679 -1.6227  0.5305
10699WAT     H243503   2.568   7.093   0.409 -1.1011  2.0995 -0.2458
10699WAT    EPW43504   2.517   7.071   0.464  0.1698 -0.0334  0.2639
10700WAT      O43505   7.514   0.334   0.432 -0.1497 -0.1359  0.7373
10700WAT     H143506   7.585   0.289   0.455 -0.2093 -1.2280 -1.0331
10700WAT     H243507   7.543   0.416   0.423  0.6819 -0.4040  0.9411
10700WAT    EPW43508   7.529   0.339   0.434 -0.2290 -0.2729 -0.3162
10701WAT      O43509   0.987   1.296   3.094  0.1901 -0.0558  0.0978
10701WAT     H143510   0.903   1.300   3.116 -0.7139  0.2380 -2.9358
10701WAT     H243511   1.003   1.375   3.060  1.8329  0.0243  0.9885
10701WAT    EPW43512   0.977   1.308   3.092  0.0045  0.0417  0.3489
10702WAT      O43513   0.217   4.964   0.235  0.3660  0.1018  0.0408
10702WAT     H143514   0.194   4.948   0.153  0.3654 -0.3878  0.1330
10702WAT     H243515   0.302   4.983   0.230  0.4357 -0.2286 -0.0370
10702WAT    EPW43516   0.226   4.965   0.222 -0.1154  0.2825  0.1722
10703WAT      O43517   2.130   1.031   3.793 -0.3930  0.4304 -0.0574
10703WAT     H143518   2.145   1.054   3.710  1.8866 -2.9452 -0.7714
10703WAT     H243519   2.210   1.034   3.830 -0.6050 -2.1898  0.7830
10703WAT    EPW43520   2.144   1.035   3.787  0.1884  0.2792 -0.0098
10704WAT      O43521   5.781   6.464   2.643  0.2465 -0.2335  0.2514
10704WAT     H143522   5.694   6.458   2.633  0.4106 -0.8929 -0.8976
10704WAT     H243523   5.807   6.381   2.647  0.7503 -0.0410  1.4861
10704WAT    EPW43524   5.772   6.451   2.642 -0.8303 -0.4259  0.2063
10705WAT      O43525   5.396   0.502   2.883  0.4629  0.2837  0.0831
10705WAT     H143526   5.356   0.439   2.837 -0.0536  0.8165 -0.2023
10705WAT     H243527   5.432   0.553   2.822  1.4402 -0.0746  0.3287
10705WAT    EPW43528   5.396   0.500   2.867 -0.4367 -0.7443  0.5623
10706WAT      O43529   3.602   7.114   8.023  0.1038  0.3800  0.1786
10706WAT     H143530   3.572   7.072   7.953 -1.2335  0.4979  0.6518
10706WAT     H243531   3.619   7.194   7.992 -0.1561  0.3378 -0.0803
10706WAT    EPW43532   3.600   7.120   8.008 -0.0049  0.2084 -0.1102
10707WAT      O43533   0.612   4.000   4.375 -0.5728 -0.2076  0.3296
10707WAT     H143534   0.660   4.072   4.381  1.1296 -1.2764  0.1760
10707WAT     H243535   0.617   3.978   4.291 -0.9368 -0.5950  0.4034
10707WAT    EPW43536   0.620   4.007   4.364  0.5879  0.1275 -0.0325
10708WAT      O43537   1.078   3.560   0.434 -0.2163  0.0787  0.2329
10708WAT     H143538   1.038   3.594   0.503 -0.5037  0.3181 -0.0473
10708WAT     H243539   1.028   3.492   0.411 -1.3821  1.3185 -1.0846
10708WAT    EPW43540   1.065   3.555   0.441 -0.3647  0.1234 -0.0176
10709WAT      O43541   2.568   1.655   4.127  0.1608 -0.2588  0.2993
10709WAT     H143542   2.483   1.666   4.142  0.1574 -0.6539  0.5982
10709WAT     H243543   2.603   1.732   4.152 -0.3384  0.8379 -2.0898
10709WAT    EPW43544   2.561   1.668   4.133 -0.0305 -0.4670 -0.0085
10710WAT      O43545   4.464   7.134   5.949 -0.1197  0.1528 -0.2479
10710WAT     H143546   4.511   7.203   5.923  1.4756 -0.8355 -0.0915
10710WAT     H243547   4.383   7.155   5.926  0.1466  2.5176  0.6938
10710WAT    EPW43548   4.459   7.147   5.942  0.2142 -0.4889 -0.2202
10711WAT      O43549   3.873   2.949   1.733  0.2853  0.4811 -0.2968
10711WAT     H143550   3.828   3.016   1.765  1.3424  0.9335  0.2758
10711WAT     H243551   3.885   2.897   1.801 -1.0402 -0.6148 -0.8590
10711WAT    EPW43552   3.868   2.951   1.748  0.3293 -0.1515 -0.3923
10712WAT      O43553   5.376   6.969   1.680  0.0665  0.4049  0.5029
10712WAT     H143554   5.355   7.047   1.714  0.3517  0.0397  1.5565
10712WAT     H243555   5.452   6.950   1.717 -0.9559 -1.2916  1.9046
10712WAT    EPW43556   5.384   6.978   1.691 -0.6408  0.0117  0.2688
10713WAT      O43557   4.742   2.306   2.943 -0.4879  0.0042  0.8657
10713WAT     H143558   4.709   2.323   3.021 -1.6330  1.3110  0.1343
10713WAT     H243559   4.719   2.375   2.895  2.0240  0.2719 -0.1044
10713WAT    EPW43560   4.734   2.318   2.947  0.1328  0.1658 -0.5471
10714WAT      O43561   2.854   2.858   5.722  0.0103 -0.2549  0.4363
10714WAT     H143562   2.810   2.838   5.649  0.1139  0.2328  0.2390
10714WAT     H243563   2.891   2.934   5.704  1.8561 -1.1672  0.2013
10714WAT    EPW43564   2.853   2.866   5.709  0.2546 -0.3180 -0.2038
10715WAT      O43565   4.978   5.022   0.474  0.4281  0.0557 -0.2248
10715WAT     H143566   4.932   5.074   0.421  1.1831  0.5736 -0.3827
10715WAT     H243567   5.024   4.972   0.420  0.6127  0.0474 -0.0619
10715WAT    EPW43568   4.978   5.023   0.458 -0.1692 -0.0879  0.4474
10716WAT      O43569   2.328   3.134   1.889  0.3900  0.1043 -0.2875
10716WAT     H143570   2.251   3.143   1.851 -0.9829 -0.1838  2.2213
10716WAT     H243571   2.331   3.200   1.946  1.9821  0.0914 -0.3100
10716WAT    EPW43572   2.317   3.145   1.892  0.1471 -0.0317  0.6250
10717WAT      O43573   5.288   6.980   4.146  0.1184  0.4408  0.3203
10717WAT     H143574   5.313   6.974   4.230  0.7959  0.5020  0.1311
10717WAT     H243575   5.201   6.979   4.150  0.1216 -1.3354  0.9037
10717WAT    EPW43576   5.279   6.979   4.159 -0.0925  0.1148 -0.6356
10718WAT      O43577   3.700   3.796   0.372  0.2593 -0.2646 -0.0336
10718WAT     H143578   3.680   3.873   0.336 -1.3505  1.2449  3.6764
10718WAT     H243579   3.667   3.738   0.315  0.2951  1.7165 -2.2506
10718WAT    EPW43580   3.692   3.799   0.358 -0.1831  0.1359  0.3341
10719WAT      O43581   5.205   4.217   0.113 -0.2617 -0.1455  0.6407
10719WAT     H143582   5.120   4.203   0.100 -0.5110  0.9828  0.9112
10719WAT     H243583   5.207   4.255   0.192  0.3712  0.9337  0.1181
10719WAT    EPW43584   5.193   4.220   0.123  0.5670 -0.0586 -0.3886
10720WAT      O43585   2.162   2.785   7.145 -0.4472 -0.9550 -0.6390
10720WAT     H143586   2.135   2.787   7.227  0.5159 -1.9213 -0.2615
10720WAT     H243587   2.107   2.837   7.103 -0.8924 -0.3713  0.6353
10720WAT    EPW43588   2.150   2.793   7.151 -0.3115 -0.2712 -0.2782
10721WAT      O43589   7.247   7.820   2.788  0.1176  0.0192 -0.0758
10721WAT     H143590   7.162   7.831   2.806 -0.0016 -0.3548 -0.3893
10721WAT     H243591   7.287   7.856   2.857 -0.3070 -0.3483  0.3793
10721WAT    EPW43592   7.241   7.827   2.801 -0.2847 -0.3005  0.3194
10722WAT      O43593   3.126   2.692   3.714 -0.0106 -0.0920 -0.0555
10722WAT     H143594   3.102   2.654   3.789  1.7061  2.8285  2.2070
10722WAT     H243595   3.203   2.654   3.696 -0.4076 -0.7717 -0.3426
10722WAT    EPW43596   3.134   2.681   3.722  0.1678 -0.1642 -0.0977
10723WAT      O43597   3.963   3.987   2.145 -0.1671 -0.3599  0.5214
10723WAT     H143598   4.010   4.038   2.198 -0.2617  1.6683 -1.1872
10723WAT     H243599   3.902   3.953   2.198 -0.0839  1.3196  1.7893
10723WAT    EPW43600   3.961   3.990   2.161 -0.1992  0.1036 -0.0496
10724WAT      O43601   1.412   5.777   0.448  0.2394  0.0619 -0.2113
10724WAT     H143602   1.351   5.715   0.452 -1.5567  1.6970 -0.6685
10724WAT     H243603   1.405   5.807   0.366 -0.3769  2.1604  0.5462
10724WAT    EPW43604   1.402   5.772   0.436  0.1569 -0.0692  0.3071
10725WAT      O43605   0.890   1.887   0.737  0.0526 -0.0737 -0.0996
10725WAT     H143606   0.943   1.916   0.674 -0.4223  1.2371  0.0728
10725WAT     H243607   0.945   1.857   0.798  0.5292 -0.7028 -0.8142
10725WAT    EPW43608   0.906   1.887   0.736 -0.2767 -0.5561  0.2253
10726WAT      O43609   0.199   5.052   1.508  0.1395 -0.2543 -0.8096
10726WAT     H143610   0.168   5.110   1.452 -0.1486  0.9456  0.5416
10726WAT     H243611   0.132   4.996   1.519 -0.4967  0.5848 -0.2481
10726WAT    EPW43612   0.185   5.052   1.502 -1.3004  0.1201 -0.1932
10727WAT      O43613   1.790   0.886   5.876  0.0738 -0.1498 -0.4397
10727WAT     H143614   1.801   0.912   5.958 -0.1792  0.8033 -0.6922
10727WAT     H243615   1.818   0.954   5.829 -1.1522 -0.0767 -1.1198
10727WAT    EPW43616   1.796   0.900   5.881  0.2491 -0.3502 -0.2641
10728WAT      O43617   0.268   5.172   0.929 -0.4143 -0.2927  0.3439
10728WAT     H143618   0.351   5.160   0.952 -0.5929  1.7866  2.5531
10728WAT     H243619   0.272   5.211   0.852  0.7037  0.3941  0.7391
10728WAT    EPW43620   0.281   5.176   0.921 -0.8463  0.1340 -0.5991
10729WAT      O43621   0.682   0.855   4.437  0.0943  0.0545  0.1006
10729WAT     H143622   0.751   0.862   4.489  0.3703 -1.2467 -0.0639
10729WAT     H243623   0.709   0.889   4.361  0.6713 -0.7129 -0.0522
10729WAT    EPW43624   0.696   0.861   4.433 -0.2885 -0.2136 -0.4139
10730WAT      O43625   5.147   4.241   1.790  0.2907 -0.4231 -0.1317
10730WAT     H143626   5.160   4.323   1.815  2.1395 -0.4343 -0.8943
10730WAT     H243627   5.210   4.197   1.831  0.0835 -1.2637 -0.6921
10730WAT    EPW43628   5.158   4.246   1.800 -0.4767 -0.3056  0.3290
10731WAT      O43629   1.613   0.888   8.062  0.4260  0.4075 -0.1341
10731WAT     H143630   1.648   0.948   8.115  0.6322  1.1188 -1.0642
10731WAT     H243631   1.613   0.926   7.984  1.1619 -1.0381 -0.8816
10731WAT    EPW43632   1.619   0.902   8.058 -0.1891  0.4368 -0.2467
10732WAT      O43633   6.109   6.942   7.648  0.6207  0.0098  0.5737
10732WAT     H143634   6.155   6.936   7.574  1.2957  1.2262  0.8834
10732WAT     H243635   6.130   6.869   7.691 -1.0663 -1.5866 -1.1060
10732WAT    EPW43636   6.119   6.930   7.643 -0.2530  0.0230 -0.2273
10733WAT      O43637   1.800   3.988   3.130  0.4936 -0.1093 -0.5944
10733WAT     H143638   1.871   3.982   3.180  0.4929 -1.3319 -0.7201
10733WAT     H243639   1.786   3.906   3.104 -0.7345  0.1784 -0.8934
10733WAT    EPW43640   1.809   3.975   3.134 -0.2775 -0.2086 -0.4291
10734WAT      O43641   3.085   5.855   3.419  0.0324 -0.2226  0.3673
10734WAT     H143642   3.138   5.849   3.350  1.2906 -0.6639  1.3274
10734WAT     H243643   3.010   5.820   3.390  1.6315 -4.0361  0.2660
10734WAT    EPW43644   3.082   5.849   3.404 -0.5283  0.3582  0.5176
10735WAT      O43645   0.477   7.022   2.764  0.4954 -0.2911 -0.3318
10735WAT     H143646   0.452   7.038   2.845  2.6850 -0.7580  0.5284
10735WAT     H243647   0.563   7.041   2.765  0.5179  0.0246 -2.6255
10735WAT    EPW43648   0.486   7.027   2.776  0.8234 -0.2571 -0.1772
10736WAT      O43649   6.869   2.287   2.898 -0.4295  0.0331  0.2679
10736WAT     H143650   6.798   2.320   2.935  0.2501 -1.0150  2.7248
10736WAT     H243651   6.933   2.309   2.953  0.7192 -1.3209 -0.4416
10736WAT    EPW43652   6.868   2.295   2.912 -0.6543 -0.2208 -0.8239
10737WAT      O43653   5.149   5.719   2.697  0.1628  0.3679  0.3185
10737WAT     H143654   5.098   5.652   2.723 -0.9559  1.3364  0.7307
10737WAT     H243655   5.215   5.718   2.755 -0.3106  0.1566  0.8676
10737WAT    EPW43656   5.151   5.709   2.710 -0.5654 -0.1096 -0.2592
10738WAT      O43657   3.075   2.717   0.966  0.5414  0.3027 -0.6094
10738WAT     H143658   3.098   2.635   0.983  1.2420  0.2738 -1.6033
10738WAT     H243659   3.055   2.716   0.881 -0.4376  0.9548 -0.4073
10738WAT    EPW43660   3.075   2.705   0.956 -0.1055 -0.5342  0.0363
10739WAT      O43661   0.573   0.270   3.678 -0.6403 -0.6021 -0.6490
10739WAT     H143662   0.532   0.277   3.602 -1.6701  1.0822  0.0158
10739WAT     H243663   0.509   0.259   3.736 -0.2082  1.4408  0.3297
10739WAT    EPW43664   0.558   0.269   3.675  0.1212  0.3173  0.1111
10740WAT      O43665   6.244   4.661   3.755 -0.5838  0.4034  0.6384
10740WAT     H143666   6.238   4.660   3.668 -0.0703 -0.1667  0.6056
10740WAT     H243667   6.323   4.695   3.770 -1.2655  1.9668  0.9297
10740WAT    EPW43668   6.254   4.666   3.744 -1.0773  0.5618 -0.3638
10741WAT      O43669   7.474   2.711   3.492 -0.3318 -0.3166 -0.3549
10741WAT     H143670   7.440   2.723   3.571 -1.1666 -0.2541 -0.7130
10741WAT     H243671   7.467   2.790   3.455 -0.0080 -0.3640 -0.5209
10741WAT    EPW43672   7.468   2.724   3.498  0.0297  0.6393  0.8775
10742WAT      O43673   5.747   0.213   4.772 -0.6055 -0.2367 -0.0306
10742WAT     H143674   5.719   0.295   4.785 -0.3989 -0.4692  2.5069
10742WAT     H243675   5.720   0.171   4.844  2.8487 -1.3769  0.8132
10742WAT    EPW43676   5.739   0.219   4.785  0.4026 -0.3852  0.1526
10743WAT      O43677   4.283   0.900   1.510 -0.0043  0.1625  0.5353
10743WAT     H143678   4.367   0.877   1.512 -0.0706 -0.0466  0.8823
10743WAT     H243679   4.286   0.986   1.492  0.2702  0.0873  0.2108
10743WAT    EPW43680   4.296   0.910   1.507 -0.1368  0.6108  0.7011
10744WAT      O43681   5.177   2.143   2.643  0.7072 -0.1831  0.0823
10744WAT     H143682   5.210   2.085   2.587 -1.0219 -1.3351  0.1658
10744WAT     H243683   5.158   2.096   2.713  0.1383  0.6678  0.5233
10744WAT    EPW43684   5.179   2.128   2.645 -0.4217 -0.6618  0.2483
10745WAT      O43685   1.300   1.370   1.196 -0.2276 -0.1081  0.0464
10745WAT     H143686   1.263   1.404   1.268  0.7896 -0.3925  0.7321
10745WAT     H243687   1.258   1.294   1.186 -0.4180 -0.0393  0.3100
10745WAT    EPW43688   1.288   1.364   1.205  1.0828  0.5205 -0.4103
10746WAT      O43689   2.377   4.524   0.274 -0.4972 -0.0371  0.4713
10746WAT     H143690   2.355   4.446   0.306 -1.1033  0.1932  0.6316
10746WAT     H243691   2.339   4.526   0.196  0.2608 -0.2524  0.0865
10746WAT    EPW43692   2.368   4.513   0.267  0.1757  0.4977 -0.4874
10747WAT      O43693   3.653   4.547   0.167 -0.5714  0.0343  0.4050
10747WAT     H143694   3.729   4.570   0.203 -0.5307 -2.5333  2.2963
10747WAT     H243695   3.675   4.518   0.088  0.7732 -2.1169  1.4797
10747WAT    EPW43696   3.667   4.546   0.161 -0.3199  0.4526  0.0697
10748WAT      O43697   1.543   1.456   0.272 -0.0493 -0.0523 -0.3661
10748WAT     H143698   1.551   1.543   0.266  1.1246  0.1027  2.3491
10748WAT     H243699   1.606   1.433   0.327  0.3003 -2.8101 -1.7499
10748WAT    EPW43700   1.553   1.466   0.279 -0.1064 -0.0567  0.4140
10749WAT      O43701   8.070   2.948   1.312 -0.4175  0.0331 -0.5836
10749WAT     H143702   8.066   2.891   1.245 -0.4498  0.7796 -1.2256
10749WAT     H243703   8.057   3.025   1.274  0.4540  0.5587  0.1515
10749WAT    EPW43704   8.068   2.951   1.296 -0.6624  0.0157 -0.6307
10750WAT      O43705   6.919   3.502   0.645 -0.1236 -0.0388  0.5554
10750WAT     H143706   6.970   3.573   0.640  1.6073 -1.1126  1.6852
10750WAT     H243707   6.856   3.517   0.587  0.7830  1.9381  0.0067
10750WAT    EPW43708   6.917   3.515   0.636 -0.2011 -0.3910  0.0235
10751WAT      O43709   2.061   3.966   2.781 -0.0524 -0.1594  0.0123
10751WAT     H143710   2.091   3.980   2.862  0.0465 -0.6790  0.0652
10751WAT     H243711   2.132   3.980   2.731  0.2868 -1.3496  0.1346
10751WAT    EPW43712   2.076   3.970   2.786 -0.3599 -0.8495  0.2022
10752WAT      O43713   3.641   7.092   4.283 -0.6358  0.2538  0.1839
10752WAT     H143714   3.700   7.120   4.225 -1.6417  0.2672 -0.8663
10752WAT     H243715   3.686   7.036   4.332  0.4565  0.8890 -0.0596
10752WAT    EPW43716   3.657   7.088   4.282 -0.0816  0.0825 -0.0916
10753WAT      O43717   5.017   6.373   6.068 -0.0033  0.4336 -0.1014
10753WAT     H143718   5.086   6.319   6.064  0.1235  0.5188  0.7507
10753WAT     H243719   5.006   6.386   6.154 -0.5951  1.0468 -0.2616
10753WAT    EPW43720   5.026   6.367   6.080 -0.3428 -0.0272 -0.6159
10754WAT      O43721   0.573   2.363   1.068  0.4818  0.3677  0.0471
10754WAT     H143722   0.552   2.445   1.044 -1.0897 -0.0055  0.0573
10754WAT     H243723   0.623   2.375   1.139 -0.1607  1.3159  0.3675
10754WAT    EPW43724   0.577   2.377   1.075 -0.2048 -0.1041 -0.0023
10755WAT      O43725   4.394   7.529   5.593  0.4000  0.3790 -0.1360
10755WAT     H143726   4.325   7.547   5.643 -0.1017  2.6274 -1.5050
10755WAT     H243727   4.392   7.591   5.531  1.9161 -1.3000 -2.0053
10755WAT    EPW43728   4.384   7.541   5.591 -0.4292  0.5659  0.3834
10756WAT      O43729   2.246   2.163   5.124  0.0958 -0.0870 -0.0760
10756WAT     H143730   2.257   2.246   5.100  0.6975 -0.0737  0.2243
10756WAT     H243731   2.163   2.147   5.104 -0.1788  0.7496  0.3335
10756WAT    EPW43732   2.235   2.173   5.118  0.6940  0.6085  0.5125
10757WAT      O43733   1.875   2.884   7.835 -0.2410 -0.4201 -0.3979
10757WAT     H143734   1.891   2.934   7.905  0.2956  0.3942 -1.0769
10757WAT     H243735   1.944   2.899   7.783  0.5121 -2.7255 -0.1735
10757WAT    EPW43736   1.888   2.894   7.838 -0.9049  0.1161  0.3074
10758WAT      O43737   0.446   7.247   2.218  0.2256  0.4741 -0.4048
10758WAT     H143738   0.510   7.209   2.263  0.0246  0.4198 -0.1610
10758WAT     H243739   0.439   7.198   2.146 -0.4019 -0.2937  0.1593
10758WAT    EPW43740   0.454   7.234   2.214  0.2938 -0.6652  0.2193
10759WAT      O43741   1.785   2.200   2.533 -0.4343  0.5374  0.0180
10759WAT     H143742   1.733   2.130   2.539  0.8546 -0.3190  1.8367
10759WAT     H243743   1.861   2.173   2.566  0.5862  2.3599 -0.6807
10759WAT    EPW43744   1.788   2.186   2.539  0.5357  0.4551 -0.1576
10760WAT      O43745   1.810   3.280   4.727 -0.0896  0.1409 -0.7055
10760WAT     H143746   1.828   3.342   4.668 -1.4004 -0.0598 -1.3453
10760WAT     H243747   1.786   3.326   4.798 -1.1211  0.3833 -1.1981
10760WAT    EPW43748   1.809   3.296   4.729 -0.2523 -0.1272  0.0602
10761WAT      O43749   6.096   5.718   4.647  0.7382  0.3942  0.0657
10761WAT     H143750   6.096   5.659   4.583  0.4619 -1.2414  1.5052
10761WAT     H243751   6.105   5.794   4.604  0.3537 -0.5964 -1.9045
10761WAT    EPW43752   6.098   5.720   4.631 -0.1020 -0.1003  0.1272
10762WAT      O43753   4.875   0.466   3.809  0.0495  0.1900  0.4167
10762WAT     H143754   4.828   0.482   3.737 -0.8615 -1.6148  0.5544
10762WAT     H243755   4.816   0.474   3.873  0.0288 -1.4321  0.6515
10762WAT    EPW43756   4.859   0.470   3.808 -0.2246 -0.0284  0.3067
10763WAT      O43757   3.096   3.281   2.610  0.5534  0.3352 -0.0087
10763WAT     H143758   3.151   3.287   2.543 -0.3929  1.3627 -0.7359
10763WAT     H243759   3.021   3.311   2.578  0.1200  1.0505  1.5610
10763WAT    EPW43760   3.093   3.286   2.596  0.0051 -0.0544 -0.0113
10764WAT      O43761   7.972   4.702   4.233  0.5511 -0.4396 -0.0432
10764WAT     H143762   8.021   4.665   4.172  0.8786 -0.0399 -0.0189
10764WAT     H243763   7.891   4.677   4.212  0.1883  2.4248 -2.6666
10764WAT    EPW43764   7.967   4.693   4.221  0.3562  0.1275 -0.2512
10765WAT      O43765   2.468   2.283   5.582 -0.7606 -0.3879  0.2871
10765WAT     H143766   2.394   2.326   5.562 -1.6954 -2.1806 -0.2933
10765WAT     H243767   2.482   2.232   5.513  2.0397  1.1179 -0.4133
10765WAT    EPW43768   2.459   2.282   5.569 -0.0100  0.0631 -0.2126
10766WAT      O43769   1.835   1.225   3.386 -0.0874  0.3781  0.8931
10766WAT     H143770   1.775   1.162   3.383 -1.4983  1.7035 -1.6143
10766WAT     H243771   1.903   1.190   3.343 -0.8128  0.4686 -0.3734
10766WAT    EPW43772   1.836   1.210   3.379 -0.3584 -0.1514 -0.6025
10767WAT      O43773   0.519   5.995   2.424  0.4317 -0.4824 -0.0305
10767WAT     H143774   0.582   5.952   2.382 -0.9023 -2.3324 -0.2730
10767WAT     H243775   0.494   6.056   2.367  0.9335 -0.7483 -0.5434
10767WAT    EPW43776   0.525   5.998   2.410  0.1733  0.7782  0.0181
10768WAT      O43777   0.577   2.471   0.614  0.2095 -0.0223  0.3996
10768WAT     H143778   0.581   2.460   0.528 -1.0180 -0.1053  0.3310
10768WAT     H243779   0.583   2.389   0.645 -0.5268 -0.1182  0.3170
10768WAT    EPW43780   0.578   2.457   0.606 -0.5256 -0.4668 -0.3290
10769WAT      O43781   3.086   5.785   3.695 -0.2157  0.6133  0.1928
10769WAT     H143782   3.168   5.792   3.723 -0.3180 -0.7097  0.9540
10769WAT     H243783   3.093   5.783   3.609  0.7219 -0.8165  0.2666
10769WAT    EPW43784   3.099   5.786   3.687 -0.1044  0.1820  0.2395
10770WAT      O43785   2.958   3.677   2.554  0.4936  0.3037 -0.2107
10770WAT     H143786   3.039   3.709   2.559  0.6613  0.4318 -2.5649
10770WAT     H243787   2.944   3.670   2.468 -1.3066 -1.4723  0.1479
10770WAT    EPW43788   2.968   3.681   2.542  0.2751 -0.2938  0.3476
10771WAT      O43789   1.154   2.519   0.770  0.0965 -0.4807  0.7489
10771WAT     H143790   1.175   2.550   0.849  0.9745  2.5335 -0.5079
10771WAT     H243791   1.070   2.540   0.761  0.0660 -0.5837  0.7980
10771WAT    EPW43792   1.145   2.527   0.780 -0.5447  0.3978 -0.6772
10772WAT      O43793   2.211   0.274   3.654 -0.2804 -0.3962 -0.1920
10772WAT     H143794   2.183   0.321   3.722 -2.7978  0.5346 -1.7448
10772WAT     H243795   2.151   0.211   3.645  0.5009 -1.0591 -0.9928
10772WAT    EPW43796   2.198   0.272   3.662 -0.4991  0.6085 -0.1057
10773WAT      O43797   2.236   2.292   1.153  0.6102  0.2517 -0.2048
10773WAT     H143798   2.167   2.301   1.205  1.2099 -0.3094  0.7031
10773WAT     H243799   2.208   2.325   1.077 -0.9243 -0.6804 -0.0884
10773WAT    EPW43800   2.222   2.299   1.149  0.4904  0.2698  0.0656
10774WAT      O43801   3.130   1.956   3.102 -0.3436  0.5662  0.1194
10774WAT     H143802   3.065   2.014   3.108 -0.4139  0.4072  1.0697
10774WAT     H243803   3.184   1.979   3.167  0.2389  0.3131 -0.2625
10774WAT    EPW43804   3.128   1.968   3.112 -0.8074  0.0814 -0.4512
10775WAT      O43805   0.504   0.657   1.759 -0.1776 -0.1677 -0.3691
10775WAT     H143806   0.434   0.679   1.713 -0.2682  0.2246 -0.0551
10775WAT     H243807   0.491   0.696   1.836 -0.1525 -1.0214  0.0819
10775WAT    EPW43808   0.492   0.666   1.764  0.7884 -0.3164 -0.0005
10776WAT      O43809   4.587   6.813   5.455  0.1294  0.2477  0.3377
10776WAT     H143810   4.562   6.877   5.509 -1.6042 -0.3512  0.3329
10776WAT     H243811   4.512   6.791   5.415  0.9672 -0.7989 -0.7094
10776WAT    EPW43812   4.572   6.819   5.457  0.0590  0.3379 -0.2391
10777WAT      O43813   0.977   4.638   4.371  0.1196  0.1550 -0.2663
10777WAT     H143814   0.997   4.612   4.452  0.5886  1.5615  0.0982
10777WAT     H243815   0.896   4.671   4.380  0.6374  1.4256 -0.0834
10777WAT    EPW43816   0.968   4.639   4.385  0.1957  0.0176  0.1588
10778WAT      O43817   4.705   2.390   7.642 -0.5723 -0.0250  0.0642
10778WAT     H143818   4.671   2.468   7.661 -1.7180 -0.7721  1.2671
10778WAT     H243819   4.734   2.400   7.560 -2.4842  1.1021 -0.5592
10778WAT    EPW43820   4.704   2.403   7.632 -0.1951 -0.2188 -0.1358
10779WAT      O43821   7.966   2.510   3.145 -0.5009 -0.1339 -0.7495
10779WAT     H143822   8.010   2.584   3.156  0.5951 -0.7973 -0.5832
10779WAT     H243823   8.013   2.451   3.189 -2.8865 -0.4141  1.6989
10779WAT    EPW43824   7.979   2.512   3.153 -0.4616  0.2821 -0.1324
10780WAT      O43825   2.481   0.547   4.050 -0.4140 -0.0036 -0.3125
10780WAT     H143826   2.476   0.466   4.081  1.4370  0.3090  0.9622
10780WAT     H243827   2.564   0.554   4.024 -0.2854  1.7578  0.4218
10780WAT    EPW43828   2.493   0.536   4.050 -0.1622  0.1332  0.0241
10781WAT      O43829   1.362   3.221   3.073 -0.2091  0.3206 -0.3523
10781WAT     H143830   1.362   3.281   3.137 -0.8579  0.3334 -0.3538
10781WAT     H243831   1.421   3.163   3.099 -0.3350  0.4221  0.1760
10781WAT    EPW43832   1.371   3.222   3.086 -0.0849  0.6212 -0.6334
10782WAT      O43833   6.377   0.558   0.531  0.6100  0.3698  0.2169
10782WAT     H143834   6.423   0.614   0.483 -0.8061  1.1134 -0.3425
10782WAT     H243835   6.294   0.585   0.520 -0.0572 -1.4955  0.3903
10782WAT    EPW43836   6.371   0.570   0.522 -0.1560 -0.4174 -0.2634
10783WAT      O43837   4.100   0.909   5.553  0.3511 -0.1873 -0.1571
10783WAT     H143838   4.091   0.975   5.496 -1.6299 -0.5656 -0.3386
10783WAT     H243839   4.098   0.949   5.630 -0.7519 -0.0047 -0.2676
10783WAT    EPW43840   4.099   0.925   5.556  0.4652 -0.3847  0.1199
10784WAT      O43841   3.977   2.603   4.781 -0.6725  0.0878  0.0827
10784WAT     H143842   3.982   2.684   4.748 -1.5202 -0.3402 -1.1686
10784WAT     H243843   4.049   2.596   4.830 -0.1587  1.2960 -0.4569
10784WAT    EPW43844   3.988   2.614   4.784  0.1173 -0.0518 -0.0569
10785WAT      O43845   1.313   1.175   2.968 -0.4341  0.0968  0.1935
10785WAT     H143846   1.337   1.095   2.942 -1.7862 -0.5139  0.7690
10785WAT     H243847   1.238   1.162   3.010 -0.8269  1.7102  0.0634
10785WAT    EPW43848   1.306   1.161   2.971 -0.0755  0.6639 -0.1305
10786WAT      O43849   2.048   0.642   1.256 -0.1586 -0.5050 -0.0771
10786WAT     H143850   2.061   0.563   1.290  1.5607 -0.3085 -0.2165
10786WAT     H243851   2.093   0.695   1.309 -0.0852  0.2073 -0.8291
10786WAT    EPW43852   2.056   0.638   1.269  0.0346  0.3810 -0.3024
10787WAT      O43853   1.388   5.974   7.870  0.1697  0.3324  0.1706
10787WAT     H143854   1.369   5.967   7.785  0.5734 -0.2877  0.1254
10787WAT     H243855   1.434   6.047   7.875 -1.3856  1.3535  0.1375
10787WAT    EPW43856   1.392   5.983   7.858  0.4496  0.4373  0.0416
10788WAT      O43857   7.721   5.465   1.355 -0.3674  0.1809 -0.2657
10788WAT     H143858   7.796   5.464   1.400 -0.4370  1.7114 -0.0713
10788WAT     H243859   7.661   5.440   1.413 -0.4645  2.1720  0.5813
10788WAT    EPW43860   7.723   5.461   1.370  0.2109 -0.7456 -0.1261
10789WAT      O43861   0.828   3.795   2.004 -0.6257  0.2090 -0.0364
10789WAT     H143862   0.761   3.775   1.952 -0.6646  0.0920  0.0576
10789WAT     H243863   0.863   3.717   2.023 -0.6668  0.2438  0.1861
10789WAT    EPW43864   0.823   3.780   1.999  0.3379 -0.0680 -0.0907
10790WAT      O43865   0.351   3.023   0.035 -0.0379 -0.1054  0.2184
10790WAT     H143866   0.393   3.058   0.103 -0.8389 -0.0079  0.6747
10790WAT     H243867   0.390   2.946   0.024  0.1075 -0.1132  0.7757
10790WAT    EPW43868   0.363   3.017   0.043 -0.7032 -0.4450 -0.3915
10791WAT      O43869   3.245   1.063   1.489  0.1807 -0.0711  0.5477
10791WAT     H143870   3.210   1.016   1.554  1.2648  0.1357  1.3112
10791WAT     H243871   3.285   1.129   1.531 -1.5459  1.7722 -0.4831
10791WAT    EPW43872   3.246   1.066   1.505 -0.2829  0.3413 -0.6374
10792WAT      O43873   8.085   1.667   1.014 -0.0757 -0.4342 -0.3220
10792WAT     H143874   8.071   1.612   1.081  0.5669  1.5614  1.5667
10792WAT     H243875   8.007   1.677   0.979 -0.3023 -2.1049 -0.3678
10792WAT    EPW43876   8.072   1.660   1.019 -0.0502 -0.3123 -0.3032
10793WAT      O43877   5.780   2.810   5.856 -0.5333 -0.2511  0.3647
10793WAT     H143878   5.734   2.825   5.929  0.4610  1.9846  0.6288
10793WAT     H243879   5.763   2.880   5.807  1.7523  0.1622  0.0757
10793WAT    EPW43880   5.771   2.823   5.860  0.0693 -0.1121 -0.0569
10794WAT      O43881   3.889   3.249   6.542 -0.2906 -0.0707  0.5421
10794WAT     H143882   3.941   3.199   6.493 -0.6601 -0.9821  1.0610
10794WAT     H243883   3.861   3.195   6.604  0.0275  1.0120  1.6669
10794WAT    EPW43884   3.893   3.234   6.544 -0.5246  0.1118  0.0426
10795WAT      O43885   3.852   1.916   3.876 -0.2808 -0.1210  0.6386
10795WAT     H143886   3.844   1.929   3.791 -0.2074 -0.2220  0.6162
10795WAT     H243887   3.865   1.830   3.883 -3.0584 -0.5886  0.9529
10795WAT    EPW43888   3.853   1.905   3.865  0.1815 -0.3963 -0.2980
10796WAT      O43889   3.050   2.280   1.940  0.2934  0.3930 -0.4769
10796WAT     H143890   2.979   2.322   1.967  1.3581  1.9605 -0.0040
10796WAT     H243891   3.071   2.229   2.007 -0.1632  0.2055 -0.4750
10796WAT    EPW43892   3.042   2.278   1.954  1.1322  0.3848  0.2129
10797WAT      O43893   5.956   3.094   0.117  0.1287  0.0144 -0.1412
10797WAT     H143894   5.872   3.073   0.122 -0.4077  0.9099 -3.3301
10797WAT     H243895   5.991   3.027   0.074  0.0441  1.5461 -2.8405
10797WAT    EPW43896   5.949   3.081   0.111 -0.1534  0.6666 -0.3336
10798WAT      O43897   2.644   5.287   4.944 -0.1591 -0.0291  0.1509
10798WAT     H143898   2.597   5.308   4.874 -2.1096 -0.6592  1.2099
10798WAT     H243899   2.665   5.204   4.931  1.2813  0.4220 -0.6162
10798WAT    EPW43900   2.640   5.278   4.932 -0.2415  0.1933  0.4405
10799WAT      O43901   7.757   3.940   2.692 -0.5441  0.2956 -0.1313
10799WAT     H143902   7.708   3.904   2.630 -0.3156  1.7158 -1.1682
10799WAT     H243903   7.822   3.882   2.703 -0.7373 -0.0957 -1.0280
10799WAT    EPW43904   7.760   3.926   2.685  0.2990  0.1747  0.8117
10800WAT      O43905   1.927   2.864   0.460 -0.3649 -0.4169 -0.7241
10800WAT     H143906   1.847   2.860   0.494 -0.2380 -0.1592 -0.3862
10800WAT     H243907   1.969   2.798   0.498 -0.1241  0.0800 -0.1006
10800WAT    EPW43908   1.922   2.854   0.470 -0.2971  0.0659 -0.7825
10801WAT      O43909   3.406   0.959   5.198  0.4475 -0.0523 -0.0734
10801WAT     H143910   3.432   1.037   5.169 -1.6101  0.0949 -1.7099
10801WAT     H243911   3.460   0.903   5.157  0.6348  0.4089 -0.4654
10801WAT    EPW43912   3.418   0.962   5.188  0.2891 -0.3228 -0.7749
10802WAT      O43913   0.566   3.558   4.326  0.0736  0.4248  0.1084
10802WAT     H143914   0.562   3.601   4.402 -1.2831  0.1889  0.1964
10802WAT     H243915   0.585   3.476   4.351  0.7716  0.5727  0.0880
10802WAT    EPW43916   0.568   3.552   4.341  0.0295 -0.4205 -0.2572
10803WAT      O43917   4.899   6.920   6.839 -0.6595  0.0524 -0.0759
10803WAT     H143918   4.927   6.997   6.868 -1.8056  0.1636  0.8057
10803WAT     H243919   4.964   6.865   6.860  0.2840  0.8056 -0.9683
10803WAT    EPW43920   4.913   6.923   6.846  0.2096  0.3152  0.0078
10804WAT      O43921   1.315   3.845   6.779  0.1979  0.0038 -0.5285
10804WAT     H143922   1.349   3.892   6.714 -0.0842  0.1971 -0.5387
10804WAT     H243923   1.335   3.763   6.758 -0.8531 -0.0444 -1.4416
10804WAT    EPW43924   1.323   3.840   6.767 -0.2330  0.3206  0.9871
10805WAT      O43925   1.796   2.040   6.758 -0.3649  0.1487 -0.3656
10805WAT     H143926   1.815   2.061   6.675  0.8673 -0.4133 -0.2407
10805WAT     H243927   1.710   2.056   6.764 -0.2147  1.5472 -1.3441
10805WAT    EPW43928   1.786   2.046   6.747  0.1562 -0.1895 -0.0047
10806WAT      O43929   3.037   6.167   6.123  0.0020 -0.1590  0.1116
10806WAT     H143930   3.096   6.116   6.161  1.0738  1.7515  1.1420
10806WAT     H243931   3.085   6.227   6.083 -1.2318  0.5732 -0.3057
10806WAT    EPW43932   3.053   6.168   6.123 -0.0271 -0.1227 -0.3385
10807WAT      O43933   7.729   7.811   2.862 -0.0189  0.2961  0.4617
10807WAT     H143934   7.786   7.793   2.926  0.5569  0.3345 -0.0295
10807WAT     H243935   7.774   7.865   2.809 -0.3172 -0.1136 -0.2233
10807WAT    EPW43936   7.744   7.816   2.863  0.3563  0.3408  0.3093
10808WAT      O43937   3.363   1.612   1.436  0.3462  0.2725 -0.7678
10808WAT     H143938   3.426   1.554   1.422 -1.9935 -2.1578 -2.1507
10808WAT     H243939   3.366   1.625   1.522  0.1188 -3.1449 -0.0999
10808WAT    EPW43940   3.373   1.606   1.447 -0.2353 -0.7050 -0.4069
10809WAT      O43941   1.333   7.799   2.234 -0.4223  0.0781 -0.5238
10809WAT     H143942   1.325   7.879   2.268  0.3646 -0.7152  1.7040
10809WAT     H243943   1.279   7.751   2.283 -1.4989 -0.6855 -2.3423
10809WAT    EPW43944   1.324   7.804   2.246 -0.1926  0.4268  0.5485
10810WAT      O43945   0.856   2.562   0.658  0.1502 -0.3636 -0.5270
10810WAT     H143946   0.850   2.639   0.698  0.3876 -1.7448  2.3950
10810WAT     H243947   0.773   2.536   0.651  0.1620 -0.4923 -0.1725
10810WAT    EPW43948   0.843   2.569   0.663  0.2014 -0.3445 -0.1151
10811WAT      O43949   2.061   0.977   0.962  0.3408  0.0132  0.4862
10811WAT     H143950   2.127   0.920   0.969 -0.7864 -1.5461 -0.9543
10811WAT     H243951   1.993   0.934   0.997 -0.6148  0.2948 -0.9478
10811WAT    EPW43952   2.061   0.962   0.968  0.1894  0.1441 -0.1560
10812WAT      O43953   3.675   2.480   7.791  0.3425  0.2186 -0.0652
10812WAT     H143954   3.755   2.465   7.824  1.3356  0.6153 -2.1628
10812WAT     H243955   3.663   2.565   7.805  0.4880  0.2552 -0.1566
10812WAT    EPW43956   3.685   2.490   7.798  0.2382  0.0461 -0.2055
10813WAT      O43957   3.183   6.815   6.097  0.0157  0.2976  0.3579
10813WAT     H143958   3.246   6.871   6.120 -0.0668  0.0745  1.1506
10813WAT     H243959   3.154   6.785   6.173 -1.3325  0.6854  0.0153
10813WAT    EPW43960   3.188   6.819   6.112  0.2863  0.2280 -0.0026
10814WAT      O43961   7.601   0.653   1.176 -0.3286 -0.4708  0.3068
10814WAT     H143962   7.655   0.617   1.234 -2.0624 -2.8671  0.5643
10814WAT     H243963   7.600   0.737   1.199  1.0124 -0.8907  2.1223
10814WAT    EPW43964   7.609   0.660   1.188 -0.2454  0.0713 -0.3627
10815WAT      O43965   2.180   4.171   2.449  0.0224  0.2660 -0.2572
10815WAT     H143966   2.248   4.133   2.488  1.6985 -0.1783 -3.3255
10815WAT     H243967   2.158   4.113   2.387 -2.5849  0.8427  0.0209
10815WAT    EPW43968   2.187   4.157   2.446 -0.1542 -0.7694  0.2909
10816WAT      O43969   6.451   7.949   0.503  0.6852  0.2477  0.1889
10816WAT     H143970   6.373   7.951   0.542  0.7869 -0.9449  0.5021
10816WAT     H243971   6.433   7.970   0.420  0.3142  1.7841  0.6183
10816WAT    EPW43972   6.437   7.952   0.497 -0.0455  0.0719  0.0859
10817WAT      O43973   2.398   4.552   6.411 -0.6096  0.6142  0.2228
10817WAT     H143974   2.480   4.579   6.420 -0.2106  0.0970 -1.4705
10817WAT     H243975   2.361   4.614   6.361 -0.5451 -0.3428 -1.0607
10817WAT    EPW43976   2.404   4.565   6.405 -0.2090  0.3649  0.0709
10818WAT      O43977   5.883   7.880   3.997 -0.2061 -0.2183  0.2034
10818WAT     H143978   5.948   7.939   4.004  0.1061 -0.5229 -0.1082
10818WAT     H243979   5.914   7.822   3.940 -0.1333 -1.1729  1.1706
10818WAT    EPW43980   5.897   7.880   3.990  0.2535  0.0573  0.0893
10819WAT      O43981   2.382   5.317   2.482 -0.6963 -0.1793  0.2391
10819WAT     H143982   2.379   5.233   2.505 -0.0291 -0.1684  0.3963
10819WAT     H243983   2.448   5.321   2.425 -1.1067  0.1387 -0.2231
10819WAT    EPW43984   2.392   5.306   2.477 -0.0561 -0.9620 -0.2619
10820WAT      O43985   0.873   6.636   1.812 -0.6160  0.3221 -0.5168
10820WAT     H143986   0.917   6.611   1.741 -1.6133  0.5594 -1.2258
10820WAT     H243987   0.866   6.562   1.859 -0.5829  0.0124 -0.9977
10820WAT    EPW43988   0.879   6.621   1.809  0.0306  0.0183  0.3662
10821WAT      O43989   2.448   7.678   6.822 -0.0765  0.1539 -0.4089
10821WAT     H143990   2.472   7.727   6.890 -0.7014  1.5131 -1.1270
10821WAT     H243991   2.504   7.612   6.824  1.6740  1.5669 -0.1821
10821WAT    EPW43992   2.460   7.676   6.833  0.2058  0.1817 -0.0924
10822WAT      O43993   0.693   3.155   0.367  0.1272 -0.4006  0.1983
10822WAT     H143994   0.737   3.085   0.340 -2.4411 -2.3754  0.7307
10822WAT     H243995   0.613   3.144   0.334 -0.4167  2.3134  0.3422
10822WAT    EPW43996   0.688   3.143   0.358 -0.5229  0.3659  0.0129
10823WAT      O43997   2.505   1.052   2.245 -0.1223  0.0686  0.7603
10823WAT     H143998   2.523   1.137   2.239  0.5553 -0.1798 -1.3326
10823WAT     H243999   2.584   1.015   2.249 -0.3757 -0.5359  0.3239
10823WAT    EPW44000   2.520   1.059   2.245 -0.5274 -0.6625  0.3046
10824WAT      O44001   5.993   6.673   0.119  0.2110 -0.1757  0.6874
10824WAT     H144002   5.910   6.647   0.124 -0.0144  0.3824 -0.0130
10824WAT     H244003   6.006   6.715   0.194 -1.0525  2.2632 -0.3156
10824WAT    EPW44004   5.983   6.675   0.131  0.0026  0.0761  0.5382
10825WAT      O44005   1.711   1.213   4.395 -0.5429 -0.4095 -0.2034
10825WAT     H144006   1.794   1.238   4.390 -1.1812  1.9858  0.2305
10825WAT     H244007   1.695   1.210   4.480 -1.4419  1.2397 -0.2772
10825WAT    EPW44008   1.721   1.216   4.407 -0.7419  0.0724  0.0859
10826WAT      O44009   4.243   2.965   7.601 -0.5972  0.1940  0.2236
10826WAT     H144010   4.296   2.918   7.652 -1.7834 -0.7092  0.6813
10826WAT     H244011   4.278   3.045   7.603  2.0480 -0.7985 -1.3876
10826WAT    EPW44012   4.256   2.970   7.609  0.1618  0.6318 -0.0588
10827WAT      O44013   1.599   4.196   6.373  0.3312  0.0574  0.1840
10827WAT     H144014   1.668   4.186   6.426  2.1150  1.3797 -1.7465
10827WAT     H244015   1.555   4.261   6.411  1.3699  0.7269  0.3005
10827WAT    EPW44016   1.603   4.204   6.387  0.0357 -0.0299 -0.1490
10828WAT      O44017   1.241   2.826   0.234 -0.4383  0.5439 -0.2377
10828WAT     H144018   1.261   2.847   0.316  1.3835 -3.1814  0.4573
10828WAT     H244019   1.155   2.839   0.230 -0.4708  1.5274  2.0044
10828WAT    EPW44020   1.231   2.831   0.245  0.0704 -0.7967 -0.5114
10829WAT      O44021   1.784   1.151   1.653  0.3266 -0.7988 -0.2544
10829WAT     H144022   1.793   1.145   1.567 -0.4412 -0.5833 -0.3556
10829WAT     H244023   1.866   1.143   1.683  0.8349  0.7773 -1.0918
10829WAT    EPW44024   1.798   1.149   1.645 -0.4207  0.1867 -0.1117
10830WAT      O44025   2.951   2.066   6.738  0.6146  0.4845  0.0290
10830WAT     H144026   2.869   2.038   6.749  1.2593 -1.2885  0.7992
10830WAT     H244027   2.975   2.029   6.662  0.0478  2.8416 -1.4041
10830WAT    EPW44028   2.942   2.056   6.728 -0.2134 -0.4572  0.3702
10831WAT      O44029   4.031   7.175   1.229  0.1593  0.2214  0.0090
10831WAT     H144030   4.080   7.160   1.299 -0.6393  0.8501  0.7179
10831WAT     H244031   4.035   7.099   1.185  1.3997  0.1156  0.2508
10831WAT    EPW44032   4.039   7.161   1.233 -0.0758  0.0125 -0.1507
10832WAT      O44033   2.741   3.213   7.599 -0.0936  0.2280  0.2519
10832WAT     H144034   2.744   3.179   7.518 -1.8488  0.8324 -0.0938
10832WAT     H244035   2.798   3.279   7.594  2.8681 -2.0493  0.7436
10832WAT    EPW44036   2.750   3.218   7.586 -0.1853  0.0241  0.1420
10833WAT      O44037   3.963   0.357   2.911  0.0935 -0.0061 -0.6123
10833WAT     H144038   3.961   0.424   2.967  1.3702 -0.2138 -0.2913
10833WAT     H244039   3.983   0.394   2.835 -0.2188  0.0915 -0.6511
10833WAT    EPW44040   3.965   0.372   2.908 -0.2183  0.0402 -0.4603
10834WAT      O44041   2.660   4.126   6.833  0.7810 -0.6599  0.0027
10834WAT     H144042   2.579   4.105   6.858  0.4815 -0.2630 -0.6378
10834WAT     H244043   2.657   4.212   6.821  0.6237 -0.9481 -2.4105
10834WAT    EPW44044   2.648   4.135   6.835 -0.2492  0.3169 -0.0995
10835WAT      O44045   3.903   0.594   1.530  0.5526 -0.1645  0.0363
10835WAT     H144046   3.957   0.530   1.555 -0.0526 -0.6646  0.0961
10835WAT     H244047   3.927   0.662   1.578 -0.7039 -1.1473  2.2063
10835WAT    EPW44048   3.914   0.595   1.541  0.2077 -0.4325  0.2288
10836WAT      O44049   4.073   0.400   2.673 -0.6516  0.0791  0.2442
10836WAT     H144050   4.030   0.409   2.597  1.1095  0.0430 -0.8266
10836WAT     H244051   4.117   0.475   2.680  0.8894 -0.7638  0.0636
10836WAT    EPW44052   4.073   0.412   2.663  0.2109  0.2793  0.5124
10837WAT      O44053   1.704   0.976   3.865  0.2603  0.3566  0.4634
10837WAT     H144054   1.694   1.044   3.919 -1.5952 -0.0479  0.7103
10837WAT     H244055   1.645   0.992   3.802 -1.5218 -1.8506  1.4462
10837WAT    EPW44056   1.693   0.989   3.864 -0.0303 -0.2420  0.4433
10838WAT      O44057   2.243   3.996   5.850 -0.3012  0.1163 -0.3462
10838WAT     H144058   2.173   4.000   5.799 -0.6517  0.3229  0.1449
10838WAT     H244059   2.232   4.062   5.906  0.7650  0.7730 -0.8654
10838WAT    EPW44060   2.231   4.006   5.851  0.0217 -0.0137  0.4992
10839WAT      O44061   1.319   2.772   4.412 -0.2889  0.1252  0.4842
10839WAT     H144062   1.365   2.787   4.339 -0.9500  1.9092  0.3812
10839WAT     H244063   1.375   2.728   4.462  0.3429 -0.7503 -0.9094
10839WAT    EPW44064   1.334   2.768   4.408 -0.1488  0.0949  0.2660
10840WAT      O44065   2.079   6.726   7.319  0.2736 -0.1781 -0.1524
10840WAT     H144066   2.029   6.768   7.377 -0.8596  0.3624 -1.4527
10840WAT     H244067   2.044   6.646   7.316  2.4618 -1.4173  2.3597
10840WAT    EPW44068   2.067   6.720   7.327 -0.4807 -0.2329 -0.1727
10841WAT      O44069   5.538   4.776   5.990 -0.8060 -0.5746 -0.0032
10841WAT     H144070   5.588   4.833   5.947 -1.7828 -0.2592 -0.7785
10841WAT     H244071   5.498   4.825   6.050  0.2577 -0.9412  1.0227
10841WAT    EPW44072   5.539   4.792   5.992 -0.3547  0.3117  0.2094
10842WAT      O44073   6.469   2.585   0.870 -0.2640 -0.2681 -0.0130
10842WAT     H144074   6.445   2.534   0.804 -1.3629  0.0783  0.1026
10842WAT     H244075   6.449   2.665   0.844 -1.2787 -0.1768  0.9529
10842WAT    EPW44076   6.462   2.589   0.857  0.0729  0.0162 -0.4958
10843WAT      O44077   2.095   3.111   0.154  0.3874 -0.0514  0.3933
10843WAT     H144078   2.021   3.072   0.130 -1.3546  1.3859  3.0127
10843WAT     H244079   2.126   3.059   0.217  1.5721 -0.5129 -0.5140
10843WAT    EPW44080   2.089   3.098   0.159 -0.1075 -0.3055  0.0459
10844WAT      O44081   2.786   0.477   0.713  0.8618  0.3923 -0.7601
10844WAT     H144082   2.812   0.401   0.680 -0.5340  0.2958 -1.7100
10844WAT     H244083   2.758   0.455   0.793 -0.4299 -0.2831 -1.3778
10844WAT    EPW44084   2.786   0.462   0.720 -0.0963 -0.1091 -0.2487
10845WAT      O44085   1.889   1.123   5.058  0.6648  0.5111 -0.0021
10845WAT     H144086   1.902   1.037   5.055 -1.3657  0.0128  2.0248
10845WAT     H244087   1.954   1.152   5.109  0.8675  0.0251  0.0159
10845WAT    EPW44088   1.901   1.115   5.065 -0.3451 -0.1582  0.7183
10846WAT      O44089   2.083   2.634   0.643 -0.1400 -0.7598 -0.5103
10846WAT     H144090   2.131   2.573   0.603  1.1455  0.8621 -1.5843
10846WAT     H244091   2.143   2.685   0.681 -1.2683 -1.5571  2.6427
10846WAT    EPW44092   2.099   2.632   0.643  0.2274 -0.4075 -0.0272
10847WAT      O44093   5.750   0.025   6.131  0.1008  0.1678 -0.4338
10847WAT     H144094   5.689   0.084   6.111  0.0045 -0.3039 -1.6068
10847WAT     H244095   5.808   0.070   6.179  0.0423  1.2084 -1.3189
10847WAT    EPW44096   5.750   0.040   6.135  0.3614  0.6677 -0.2743
10848WAT      O44097   1.857   6.878   7.441  0.0051  0.4269 -0.2514
10848WAT     H144098   1.857   6.963   7.420  0.5423  0.1516 -1.4256
10848WAT     H244099   1.823   6.839   7.371  2.8788 -0.6159 -1.2077
10848WAT    EPW44100   1.852   6.885   7.428 -0.1502  0.5705  0.1531
10849WAT      O44101   4.205   5.493   0.959  0.1667 -0.0902  0.0852
10849WAT     H144102   4.153   5.448   0.906  0.7710 -0.0590 -0.5480
10849WAT     H244103   4.280   5.450   0.957  0.5904  0.6364 -0.1094
10849WAT    EPW44104   4.208   5.480   0.951 -0.5640 -0.7130  0.3157
10850WAT      O44105   6.534   7.571   1.066  0.1488 -0.0488 -0.0134
10850WAT     H144106   6.505   7.490   1.073 -2.4338  0.8836  1.1834
10850WAT     H244107   6.616   7.561   1.036 -0.5313 -2.9762 -1.2139
10850WAT    EPW44108   6.542   7.558   1.063  0.4436  0.1200 -0.2319
10851WAT      O44109   0.619   0.452   1.084  0.6734 -0.0513  0.0326
10851WAT     H144110   0.623   0.523   1.032 -1.0958  0.2008  0.1822
10851WAT     H244111   0.559   0.474   1.143  0.3177 -1.5800  0.2601
10851WAT    EPW44112   0.611   0.466   1.085 -0.6983 -0.4041 -0.4318
10852WAT      O44113   0.497   5.001   1.264 -0.7112 -0.3425  0.6314
10852WAT     H144114   0.501   5.070   1.318 -0.6639 -0.8828  1.3325
10852WAT     H244115   0.506   5.037   1.185 -0.4283  0.4305  0.9992
10852WAT    EPW44116   0.499   5.016   1.260  0.1372 -0.1097 -0.2534
10853WAT      O44117   0.328   0.857   7.954  0.4062 -0.6483 -0.3293
10853WAT     H144118   0.244   0.837   7.969  0.2126 -0.5177 -1.2085
10853WAT     H244119   0.333   0.941   7.975  1.0135 -1.2883  2.5078
10853WAT    EPW44120   0.316   0.866   7.960 -0.1733  0.2958  0.0565
10854WAT      O44121   4.922   0.117   1.954 -0.2441 -0.3831 -0.3694
10854WAT     H144122   4.935   0.052   1.897  0.4386  0.0025 -0.6752
10854WAT     H244123   4.908   0.186   1.903 -2.9074 -0.6102 -0.0474
10854WAT    EPW44124   4.922   0.117   1.938  0.1437 -0.4191 -0.0663
10855WAT      O44125   2.779   2.810   1.046 -0.1732  1.0856 -0.5779
10855WAT     H144126   2.843   2.788   0.991 -1.6226  2.4276 -2.9874
10855WAT     H244127   2.707   2.785   1.004 -1.3880  2.4727  0.5784
10855WAT    EPW44128   2.778   2.803   1.032  0.0544 -0.0449  0.2358
10856WAT      O44129   4.283   2.955   5.758 -0.7195 -0.1287  0.2107
10856WAT     H144130   4.216   2.985   5.712  0.0107 -1.1435 -1.6323
10856WAT     H244131   4.344   3.018   5.750 -1.3947  0.8039  1.9048
10856WAT    EPW44132   4.282   2.969   5.750 -0.1613 -0.2308  0.3874
10857WAT      O44133   4.294   2.116   7.670  0.2201 -0.4503 -0.2062
10857WAT     H144134   4.231   2.118   7.731 -2.5947 -0.3782 -2.8364
10857WAT     H244135   4.250   2.130   7.596  3.2434 -1.6423 -2.4054
10857WAT    EPW44136   4.278   2.119   7.668  0.0788 -0.7289 -0.2313
10858WAT      O44137   2.232   0.103   1.164 -0.2896  0.1794  0.3645
10858WAT     H144138   2.252   0.019   1.175  1.8501  0.7970  1.9859
10858WAT     H244139   2.149   0.101   1.137  0.2170 -2.4707 -1.3431
10858WAT    EPW44140   2.222   0.090   1.162 -0.3303 -0.0659  0.3885
10859WAT      O44141   3.586   2.939   1.913 -0.0064  0.0850 -0.0822
10859WAT     H144142   3.664   2.956   1.949 -0.7971 -1.5024  2.6789
10859WAT     H244143   3.569   2.857   1.938 -2.1022 -0.0300 -1.5683
10859WAT    EPW44144   3.595   2.929   1.922 -1.6870 -0.1009  0.0230
10860WAT      O44145   3.932   7.355   4.364  0.2643 -0.1965 -0.8490
10860WAT     H144146   3.939   7.355   4.451  0.0537  0.2773 -0.8295
10860WAT     H244147   3.982   7.423   4.339  3.2452 -2.3436 -1.3642
10860WAT    EPW44148   3.941   7.365   4.373 -0.1910 -0.2648  0.0715
10861WAT      O44149   1.291   5.320   0.451  0.4491  0.8532 -0.5795
10861WAT     H144150   1.343   5.303   0.384  0.2429 -2.5303 -0.0150
10861WAT     H244151   1.211   5.302   0.421  0.0795  1.5630 -0.0747
10861WAT    EPW44152   1.287   5.315   0.437 -0.2327 -1.0400  0.2638
10862WAT      O44153   4.751   4.776   8.028 -0.2003  0.5548  0.0880
10862WAT     H144154   4.671   4.808   8.045 -1.1978  0.2413 -3.1767
10862WAT     H244155   4.734   4.697   7.995  1.5852 -0.0589  0.5755
10862WAT    EPW44156   4.736   4.769   8.025  0.6027  0.1710 -0.2599
10863WAT      O44157   1.403   3.311   1.819 -0.0892 -0.4927  0.0347
10863WAT     H144158   1.448   3.278   1.751  2.8857 -0.4934  1.8010
10863WAT     H244159   1.349   3.368   1.782  1.7196 -0.1597 -2.3607
10863WAT    EPW44160   1.402   3.315   1.804 -0.1982 -0.1064  0.6377
10864WAT      O44161   7.976   0.642   1.880 -0.5353  0.1063  0.0652
10864WAT     H144162   8.058   0.672   1.876  0.0804 -0.7598  3.3594
10864WAT     H244163   7.981   0.577   1.939 -3.5601 -0.0423  0.2889
10864WAT    EPW44164   7.989   0.637   1.888  0.0670  0.0025  0.1304
10865WAT      O44165   0.306   1.051   3.151  0.3600  0.1283 -0.0578
10865WAT     H144166   0.280   0.985   3.101 -1.1703 -0.2709  1.1775
10865WAT     H244167   0.263   1.038   3.226  2.8578  0.4275  1.5708
10865WAT    EPW44168   0.296   1.039   3.155 -0.2417  0.6502 -0.3102
10866WAT      O44169   4.896   5.822   6.979  0.2586 -0.4182 -0.1949
10866WAT     H144170   4.952   5.824   6.913  0.6787 -0.7462  0.1432
10866WAT     H244171   4.872   5.738   6.984 -0.5609 -0.2117 -0.5810
10866WAT    EPW44172   4.901   5.810   6.970 -0.1326 -0.2684 -1.0028
10867WAT      O44173   4.895   6.353   6.336  0.3519 -0.3221 -0.2906
10867WAT     H144174   4.810   6.345   6.320  0.0831  0.5814  0.6260
10867WAT     H244175   4.900   6.420   6.392  1.5966 -0.8750  0.2996
10867WAT    EPW44176   4.883   6.362   6.342  0.0092  0.0622  0.3316
10868WAT      O44177   3.500   6.246   6.341  0.9145  0.0334 -0.2997
10868WAT     H144178   3.421   6.237   6.377  0.3912  0.9527 -1.1645
10868WAT     H244179   3.555   6.232   6.408  0.0394 -0.8250  0.2676
10868WAT    EPW44180   3.496   6.242   6.357  0.3231 -0.6394 -0.0032
10869WAT      O44181   3.249   7.654   3.863 -0.1360  0.1575 -0.0459
10869WAT     H144182   3.221   7.637   3.782 -2.3177 -0.2454  0.7193
10869WAT     H244183   3.236   7.739   3.872 -0.2750  0.1334 -0.0072
10869WAT    EPW44184   3.243   7.664   3.852 -0.1632 -0.0244 -0.1353
10870WAT      O44185   2.292   1.700   6.564 -0.1803  0.0276  0.0499
10870WAT     H144186   2.379   1.690   6.563 -0.1037  0.6997 -0.0589
10870WAT     H244187   2.281   1.782   6.590 -0.7306  0.6817 -2.1282
10870WAT    EPW44188   2.304   1.710   6.568 -0.8940  0.3639  0.8316
10871WAT      O44189   0.463   5.436   0.136 -0.5035 -0.5131  0.3199
10871WAT     H144190   0.481   5.515   0.104  0.7617 -1.0003 -0.2283
10871WAT     H244191   0.508   5.434   0.211 -1.7936 -0.1545  1.1369
10871WAT    EPW44192   0.472   5.448   0.142 -0.5024 -0.1295 -0.5135
10872WAT      O44193   4.609   1.043   6.615  0.0901  0.5083 -0.0397
10872WAT     H144194   4.555   1.059   6.681 -1.8468 -0.4050 -1.3384
10872WAT     H244195   4.565   0.987   6.565  1.7745  0.6393 -1.7719
10872WAT    EPW44196   4.595   1.037   6.617  0.0388  0.1152 -0.2231
10873WAT      O44197   3.649   7.932   5.996  0.1670 -0.1879  0.4179
10873WAT     H144198   3.650   8.016   5.972 -2.1345 -0.2798 -0.2218
10873WAT     H244199   3.569   7.905   5.974  0.8434 -2.5708  0.5961
10873WAT    EPW44200   3.637   7.940   5.989 -0.2068 -0.1155  0.1368
10874WAT      O44201   2.246   0.717   2.208 -0.0011 -0.3086 -0.0982
10874WAT     H144202   2.250   0.767   2.279 -1.8598 -1.5435  0.9670
10874WAT     H244203   2.311   0.661   2.219  0.6684  0.4294 -0.1631
10874WAT    EPW44204   2.256   0.716   2.220 -0.0234 -0.5534  0.5673
10875WAT      O44205   2.108   0.478   7.941  0.1483  0.1743 -0.1478
10875WAT     H144206   2.031   0.502   7.975  0.8707  0.7517  1.1164
10875WAT     H244207   2.112   0.393   7.960  1.1125  0.7217  2.4929
10875WAT    EPW44208   2.097   0.469   7.949  0.0151 -0.4801 -0.0084
10876WAT      O44209   1.444   3.336   4.655  0.0513 -0.2462 -0.0723
10876WAT     H144210   1.375   3.342   4.602  0.2220 -0.0370 -0.2731
10876WAT     H244211   1.487   3.266   4.625 -0.2563 -0.5819  0.2703
10876WAT    EPW44212   1.440   3.326   4.642 -0.3783  0.7145  0.1935
10877WAT      O44213   5.948   7.167   7.692  0.0092  0.3653 -0.1991
10877WAT     H144214   5.991   7.241   7.702  1.6859 -0.3635 -1.4835
10877WAT     H244215   6.009   7.111   7.663 -1.3139 -1.3434  0.1192
10877WAT    EPW44216   5.963   7.169   7.689 -0.6610  0.2235  1.1073
10878WAT      O44217   0.256   7.464   0.171 -0.8957 -0.5102 -0.2914
10878WAT     H144218   0.315   7.476   0.108  1.1390 -0.6511  1.4939
10878WAT     H244219   0.228   7.545   0.188  0.5912 -0.1141  0.4528
10878WAT    EPW44220   0.261   7.478   0.164  0.1008 -0.9313  0.0396
10879WAT      O44221   3.216   2.036   0.971  0.3428 -0.1689 -0.0407
10879WAT     H144222   3.203   1.955   0.940 -0.7154  0.1294 -0.4156
10879WAT     H244223   3.170   2.037   1.045 -0.6784  0.4704 -0.6717
10879WAT    EPW44224   3.207   2.024   0.977 -1.0502 -0.1348 -0.2139
10880WAT      O44225   2.912   1.632   4.720  0.0049  0.0820 -0.4015
10880WAT     H144226   2.967   1.672   4.664  1.1654 -0.9643 -0.0627
10880WAT     H244227   2.892   1.694   4.777  0.0240  0.7627 -1.1260
10880WAT    EPW44228   2.917   1.647   4.720  0.4700 -0.5664 -0.0698
10881WAT      O44229   1.182   4.600   7.879  0.3820  0.4578  0.4045
10881WAT     H144230   1.208   4.536   7.932  1.6588 -0.1400 -0.8868
10881WAT     H244231   1.246   4.659   7.887 -0.3041  1.1696  0.8399
10881WAT    EPW44232   1.195   4.599   7.888  0.3016  0.2183  0.0061
10882WAT      O44233   5.381   3.023   3.757 -0.1252  0.3777 -0.2948
10882WAT     H144234   5.442   3.027   3.695 -0.4474  0.8129 -0.5777
10882WAT     H244235   5.307   3.008   3.714 -0.1752 -0.5814  0.0801
10882WAT    EPW44236   5.379   3.021   3.742 -0.2908 -0.1665 -0.6805
10883WAT      O44237   3.812   1.615   5.005  0.1224  0.3307  0.2116
10883WAT     H144238   3.744   1.639   4.957 -0.0358  0.3515  0.4442
10883WAT     H244239   3.871   1.590   4.946 -0.6312 -1.1727  0.0510
10883WAT    EPW44240   3.811   1.615   4.989 -1.1544  0.7988  0.1566
10884WAT      O44241   3.259   2.379   4.551  0.5736 -0.2649  0.4991
10884WAT     H144242   3.295   2.308   4.586 -0.7290 -1.0108  0.3668
10884WAT     H244243   3.328   2.429   4.532  1.6278 -2.0190 -0.5639
10884WAT    EPW44244   3.275   2.376   4.553 -0.0953  0.3639  0.2270
10885WAT      O44245   0.359   0.857   4.630 -0.3837  0.1480  0.0781
10885WAT     H144246   0.420   0.803   4.661 -0.3265 -0.7436 -1.4991
10885WAT     H244247   0.286   0.810   4.637 -0.8220  0.9730  1.3539
10885WAT    EPW44248   0.357   0.842   4.636 -0.1260  0.1737  0.3118
10886WAT      O44249   1.270   5.509   3.188 -0.7711  0.5313  0.1476
10886WAT     H144250   1.357   5.498   3.183 -0.5763  1.5505  0.9426
10886WAT     H244251   1.242   5.491   3.107  0.4572  2.3826 -0.7474
10886WAT    EPW44252   1.279   5.505   3.175  0.4900  0.6927  0.1202
10887WAT      O44253   2.330   0.161   6.175 -0.0148  0.0896  0.4108
10887WAT     H144254   2.266   0.143   6.119  0.1399 -0.3770  0.3819
10887WAT     H244255   2.343   0.247   6.164 -0.4946  0.1489  0.2746
10887WAT    EPW44256   2.323   0.171   6.165  0.8284 -0.2297  0.1084
10888WAT      O44257   3.135   1.299   1.307 -0.4858 -0.1076 -0.3010
10888WAT     H144258   3.151   1.214   1.309  0.4231  0.0618  0.5181
10888WAT     H244259   3.062   1.305   1.261 -0.4511 -1.3096 -0.5456
10888WAT    EPW44260   3.127   1.288   1.301  0.0619 -0.1007 -0.8799
10889WAT      O44261   1.774   1.234   6.786  0.1792  0.2691  0.1528
10889WAT     H144262   1.846   1.282   6.781 -0.4170  1.2065  0.2396
10889WAT     H244263   1.792   1.164   6.737  0.7871  0.9608 -0.6353
10889WAT    EPW44264   1.787   1.231   6.778  0.1547 -0.1208 -0.4291
10890WAT      O44265   5.696   3.087   2.746 -0.3591 -0.4385 -0.2780
10890WAT     H144266   5.639   3.090   2.812 -0.4726  0.3052 -0.3998
10890WAT     H244267   5.765   3.130   2.778 -0.7229  0.6590 -0.9220
10890WAT    EPW44268   5.698   3.093   2.761  0.3730 -0.3702 -0.0588
10891WAT      O44269   4.516   4.855   6.392 -0.1385  0.3959 -0.7695
10891WAT     H144270   4.521   4.925   6.341  0.7031  1.0809  0.2115
10891WAT     H244271   4.549   4.883   6.468  2.6071 -1.7243 -1.0431
10891WAT    EPW44272   4.521   4.869   6.396  0.5814 -0.0425 -0.8401
10892WAT      O44273   2.038   6.733   6.069 -0.1453 -0.1910  0.2622
10892WAT     H144274   2.125   6.742   6.066  0.0877 -1.9500  0.8346
10892WAT     H244275   2.017   6.758   6.150 -0.0460 -0.6246  0.4249
10892WAT    EPW44276   2.048   6.738   6.080  0.1690  1.2002 -0.1321
10893WAT      O44277   0.934   0.698   2.072 -0.1872 -0.3893 -0.3708
10893WAT     H144278   1.007   0.691   2.119 -0.5416 -0.2104  0.2188
10893WAT     H244279   0.962   0.689   1.989  0.5712  0.2095 -0.1922
10893WAT    EPW44280   0.949   0.696   2.067 -0.6330  0.5903 -0.8445
10894WAT      O44281   1.861   0.915   2.735  0.0799 -0.3215  0.1092
10894WAT     H144282   1.917   0.978   2.712  0.5157 -0.2919  1.1740
10894WAT     H244283   1.783   0.946   2.711  0.4787 -0.2190 -1.0886
10894WAT    EPW44284   1.858   0.929   2.728 -0.2274 -0.3960  0.0017
10895WAT      O44285   1.453   0.298   2.687 -1.1494 -0.1117  0.0822
10895WAT     H144286   1.515   0.300   2.748 -1.1119  1.7715  0.0317
10895WAT     H244287   1.464   0.220   2.649 -1.1716 -1.3266  2.4207
10895WAT    EPW44288   1.464   0.287   2.690 -1.1769  0.0623  0.4298
10896WAT      O44289   3.601   7.226   3.215  0.2936 -0.0287 -0.1613
10896WAT     H144290   3.602   7.159   3.271  1.9694 -0.6731 -0.8975
10896WAT     H244291   3.631   7.293   3.263 -1.3750  0.2452  0.5708
10896WAT    EPW44292   3.606   7.226   3.231  0.4155 -0.2963  0.3007
10897WAT      O44293   2.614   4.285   7.548 -0.3458 -0.1628 -0.1746
10897WAT     H144294   2.685   4.240   7.569 -0.1650  0.5227  0.7827
10897WAT     H244295   2.625   4.361   7.589 -1.1316  0.3605 -0.8877
10897WAT    EPW44296   2.626   4.289   7.557  0.5392  0.6700  0.3311
10898WAT      O44297   3.852   7.124   2.519 -0.5697 -0.3265  0.0164
10898WAT     H144298   3.901   7.146   2.450  1.0038 -1.2941  0.7830
10898WAT     H244299   3.783   7.177   2.512  0.9737  1.7429 -0.6360
10898WAT    EPW44300   3.849   7.135   2.508 -0.0191  0.3325 -0.1912
10899WAT      O44301   2.021   0.214   6.665 -0.0590 -0.0378 -0.0280
10899WAT     H144302   2.031   0.203   6.579 -1.2186 -1.6229 -0.0015
10899WAT     H244303   2.095   0.183   6.699  1.7148  3.2250 -0.4922
10899WAT    EPW44304   2.034   0.208   6.658 -0.0603  0.0015 -0.1362
10900WAT      O44305   2.310   6.688   6.018 -0.1194  0.2606  0.5455
10900WAT     H144306   2.378   6.677   6.071  0.5501 -0.5333 -0.4234
10900WAT     H244307   2.341   6.661   5.940 -2.1994 -2.3688  0.5000
10900WAT    EPW44308   2.325   6.682   6.014  0.4435  0.1600 -0.6936
10901WAT      O44309   4.638   7.086   6.577 -0.1557  0.1674  0.6190
10901WAT     H144310   4.633   7.101   6.492 -1.5694 -2.1209  0.2175
10901WAT     H244311   4.724   7.086   6.593  0.2106 -0.6635 -1.0926
10901WAT    EPW44312   4.650   7.088   6.567  0.1820 -0.0800  0.1612
10902WAT      O44313   0.840   5.116   0.305  0.5989 -0.0917  0.1901
10902WAT     H144314   0.862   5.060   0.369 -0.0907  2.3407  2.7458
10902WAT     H244315   0.759   5.140   0.326 -0.2549 -0.2695 -2.5319
10902WAT    EPW44316   0.832   5.111   0.318  0.6207  0.6631 -0.0825
10903WAT      O44317   5.408   2.377   5.542 -0.0833 -0.4208  0.3786
10903WAT     H144318   5.468   2.440   5.533  0.5332 -0.8390  1.3472
10903WAT     H244319   5.425   2.322   5.476  0.1079 -0.1503  0.2032
10903WAT    EPW44320   5.420   2.378   5.531 -0.6524  0.3305  0.2155
10904WAT      O44321   2.995   0.297   3.527  0.5006  0.4144  0.1838
10904WAT     H144322   3.012   0.212   3.513  2.3114  0.7106  0.3426
10904WAT     H244323   3.004   0.332   3.447  0.4109  0.5495  0.2340
10904WAT    EPW44324   2.999   0.290   3.513 -0.1668 -0.2819 -0.1105
10905WAT      O44325   2.382   4.056   6.888 -0.6582  0.0330 -0.1018
10905WAT     H144326   2.401   3.979   6.926 -0.1581 -0.1449 -0.6916
10905WAT     H244327   2.317   4.087   6.936  0.5484  0.2405  1.4751
10905WAT    EPW44328   2.375   4.049   6.901 -0.2027 -0.4453  0.2249
10906WAT      O44329   7.527   0.706   2.824 -0.0378 -0.2322 -0.2109
10906WAT     H144330   7.569   0.742   2.892  0.1999  0.4932 -0.7257
10906WAT     H244331   7.489   0.635   2.858  0.3702 -0.0726  0.5976
10906WAT    EPW44332   7.528   0.701   2.839 -0.3360 -0.4114 -0.1778
10907WAT      O44333   5.388   0.203   6.869  0.0197  0.2968 -0.3762
10907WAT     H144334   5.360   0.171   6.945 -0.0850 -2.2657 -1.3863
10907WAT     H244335   5.328   0.174   6.812  1.6661 -0.4408 -1.8104
10907WAT    EPW44336   5.375   0.194   6.871 -0.6069  0.4188  0.0367
10908WAT      O44337   2.797   0.205   4.796  0.3277  0.0029 -0.4231
10908WAT     H144338   2.767   0.268   4.848  0.9744 -0.1472  0.1543
10908WAT     H244339   2.866   0.241   4.757  0.0778 -0.0127 -0.8884
10908WAT    EPW44340   2.803   0.219   4.798 -0.4861  0.1366 -0.2101
10909WAT      O44341   4.870   1.062   7.772 -0.2094  0.1078  0.1648
10909WAT     H144342   4.843   0.996   7.823 -0.2654 -1.5702 -1.9207
10909WAT     H244343   4.800   1.114   7.768 -1.2914 -1.3342 -0.6421
10909WAT    EPW44344   4.856   1.060   7.779  0.2819 -1.1739 -0.5394
10910WAT      O44345   6.236   2.171   5.674 -0.1353  0.4259 -0.2238
10910WAT     H144346   6.233   2.108   5.735  2.0587  0.1715 -0.2959
10910WAT     H244347   6.208   2.130   5.602 -1.2148  0.2915  0.2477
10910WAT    EPW44348   6.231   2.155   5.672 -0.5144 -0.2360 -0.2939
10911WAT      O44349   5.239   1.371   6.957 -0.5079 -0.6910 -0.0735
10911WAT     H144350   5.288   1.443   6.953 -1.6372  0.0617 -1.0637
10911WAT     H244351   5.177   1.391   7.015 -0.4216 -1.1364  0.1785
10911WAT    EPW44352   5.237   1.384   6.965 -0.3712  0.1957  0.1661
10912WAT      O44353   3.003   1.768   7.820 -0.2116  0.1631  0.3578
10912WAT     H144354   3.074   1.721   7.801  0.3585  1.0187  0.2910
10912WAT     H244355   3.020   1.846   7.784 -1.6461  0.0759 -0.5852
10912WAT    EPW44356   3.016   1.773   7.812 -0.3126 -0.8162  0.8072
10913WAT      O44357   0.256   0.937   2.706  0.2508 -0.3291 -0.0277
10913WAT     H144358   0.303   0.920   2.635 -0.1302  2.6172 -1.1149
10913WAT     H244359   0.315   0.960   2.765  0.4118  0.2494 -0.4016
10913WAT    EPW44360   0.271   0.938   2.704  0.1157 -0.1979 -0.1689
10914WAT      O44361   2.908   3.791   5.757  0.0100 -0.3784 -0.3191
10914WAT     H144362   2.904   3.852   5.819  0.3778 -0.5805 -0.0901
10914WAT     H244363   2.958   3.729   5.793 -0.7632 -1.0352 -0.3558
10914WAT    EPW44364   2.915   3.791   5.771  0.1916  0.0928  0.4868
10915WAT      O44365   3.642   4.907   6.379 -0.0586  0.2386 -0.1706
10915WAT     H144366   3.576   4.940   6.426  0.6224  0.5000  0.6560
10915WAT     H244367   3.698   4.975   6.373  0.4406 -0.1705 -0.2405
10915WAT    EPW44368   3.641   4.922   6.385 -0.3687 -0.3908 -0.4611
10916WAT      O44369   3.215   0.837   6.181  0.0929 -0.1734 -0.3496
10916WAT     H144370   3.252   0.763   6.153  2.9227  1.0160 -0.1414
10916WAT     H244371   3.194   0.819   6.264  3.8683  0.0311  0.8805
10916WAT    EPW44372   3.217   0.823   6.189 -0.2578  0.0678 -0.3765
10917WAT      O44373   5.212   2.573   6.860 -0.0795 -0.0840  0.3185
10917WAT     H144374   5.191   2.632   6.921 -2.6271  0.3593 -0.8511
10917WAT     H244375   5.155   2.508   6.873  3.2589 -3.0241  2.2305
10917WAT    EPW44376   5.201   2.572   6.871  0.0380  0.2428 -0.2247
10918WAT      O44377   7.155   1.749   4.970 -0.0204  0.1588  0.1396
10918WAT     H144378   7.233   1.788   4.965  0.5090 -0.8268  0.3041
10918WAT     H244379   7.138   1.749   5.056 -1.3880  2.5431 -0.0503
10918WAT    EPW44380   7.164   1.754   4.982  0.2342 -0.5305 -0.0200
10919WAT      O44381   2.136   4.666   6.044  0.6548 -0.0141  0.6248
10919WAT     H144382   2.094   4.589   6.039  2.2771 -0.9193  0.4091
10919WAT     H244383   2.071   4.724   6.047 -0.6708 -1.1330 -2.6115
10919WAT    EPW44384   2.120   4.663   6.044 -0.1221 -0.4447  0.2389
10920WAT      O44385   3.022   3.892   2.140  0.3332 -0.2256  0.5796
10920WAT     H144386   3.027   3.862   2.058  1.4963 -1.3015  1.0178
10920WAT     H244387   2.965   3.958   2.134 -0.5517 -1.0861 -0.8478
10920WAT    EPW44388   3.015   3.898   2.127  0.6852 -0.3828 -0.0739
10921WAT      O44389   2.274   2.184   7.394 -0.0198 -0.6308  0.3182
10921WAT     H144390   2.355   2.212   7.376 -0.2637 -0.1046  0.0318
10921WAT     H244391   2.240   2.167   7.316  0.0987 -1.7098  0.4737
10921WAT    EPW44392   2.281   2.185   7.380  0.4594  0.0306 -0.0275
10922WAT      O44393   0.340   4.562   3.627 -0.5311 -0.0086 -0.0151
10922WAT     H144394   0.257   4.585   3.623 -0.1753  1.5403  0.9428
10922WAT     H244395   0.340   4.491   3.679 -1.2724 -0.2428 -0.3322
10922WAT    EPW44396   0.328   4.555   3.634  0.2221  0.0462 -0.0064
10923WAT      O44397   4.203   6.665   5.152  0.8101 -0.6767 -0.0271
10923WAT     H144398   4.124   6.680   5.185  0.9852 -0.8300  0.4817
10923WAT     H244399   4.190   6.603   5.093  0.4475 -0.2084 -0.4446
10923WAT    EPW44400   4.190   6.658   5.148  0.1440  0.2639  0.5506
10924WAT      O44401   3.926   7.178   3.523 -0.6356  0.2057  0.3953
10924WAT     H144402   3.887   7.252   3.497 -1.2386 -0.3267 -0.2557
10924WAT     H244403   3.875   7.150   3.588  0.1747  0.8809  1.3641
10924WAT    EPW44404   3.913   7.185   3.529 -0.5556  0.0006  0.1898
10925WAT      O44405   4.769   7.905   0.366  0.5249 -0.6834 -0.2108
10925WAT     H144406   4.835   7.880   0.417 -0.3394 -0.6811  0.9476
10925WAT     H244407   4.809   7.943   0.298  1.6859  1.4845  1.5600
10925WAT    EPW44408   4.785   7.907   0.364 -0.6811 -0.1208 -0.1459
10926WAT      O44409   2.631   5.645   2.750 -0.7963 -0.1266 -0.1234
10926WAT     H144410   2.581   5.664   2.819 -0.5364  0.2929 -0.0466
10926WAT     H244411   2.602   5.698   2.688  1.1316  1.9343  0.6045
10926WAT    EPW44412   2.619   5.655   2.751 -0.1929  0.0143  0.1533
10927WAT      O44413   2.971   1.037   2.399 -0.0163 -0.1039  0.4300
10927WAT     H144414   2.891   1.038   2.364  0.3649  2.0051 -0.5627
10927WAT     H244415   2.965   1.093   2.465  0.1686 -1.4616  1.6512
10927WAT    EPW44416   2.958   1.046   2.403  0.2293 -0.5121 -0.2577
10928WAT      O44417   2.375   2.405   7.038  0.4190 -0.4680 -0.0310
10928WAT     H144418   2.296   2.402   7.000  0.6444  2.3040 -0.9526
10928WAT     H244419   2.356   2.426   7.121  0.1647 -1.3182  0.1416
10928WAT    EPW44420   2.360   2.408   7.045 -0.0236  0.0618 -0.1114
10929WAT      O44421   5.658   1.044   4.047 -0.6764  0.3195 -0.5943
10929WAT     H144422   5.618   1.116   4.019  1.2176  1.5987 -0.2201
10929WAT     H244423   5.690   1.067   4.125 -0.5901 -1.1470 -0.1707
10929WAT    EPW44424   5.657   1.058   4.054  0.3568  0.6088 -0.0595
10930WAT      O44425   2.527   1.309   5.330 -0.2036 -0.2511  0.4105
10930WAT     H144426   2.552   1.248   5.274  1.0298  0.3109  0.3209
10930WAT     H244427   2.562   1.283   5.406 -1.0715 -0.5132  0.7348
10930WAT    EPW44428   2.536   1.297   5.333 -0.2853  0.4037  0.1708
10931WAT      O44429   1.489   1.381   2.636  0.3388 -0.1167  0.0955
10931WAT     H144430   1.540   1.411   2.572  1.1292  0.4630  0.9597
10931WAT     H244431   1.429   1.334   2.595  1.3227 -0.4545 -1.0039
10931WAT    EPW44432   1.488   1.379   2.621  0.3406 -0.2141 -0.2327
10932WAT      O44433   2.471   4.251   3.069 -0.2957  0.0524 -0.1218
10932WAT     H144434   2.510   4.195   3.123 -2.2315 -1.1025  0.1923
10932WAT     H244435   2.524   4.320   3.068  0.1790 -0.1512  2.7573
10932WAT    EPW44436   2.484   4.253   3.077  1.1711  0.0532 -0.0013
10933WAT      O44437   6.847   7.889   1.551  0.3463 -0.3132 -0.0885
10933WAT     H144438   6.932   7.902   1.569 -0.3469  1.6832  2.2642
10933WAT     H244439   6.831   7.947   1.487  0.2939  1.0907  1.1335
10933WAT    EPW44440   6.858   7.900   1.544 -0.0039 -0.1615  0.1240
10934WAT      O44441   5.221   0.163   2.013  0.3479 -0.1447 -0.1349
10934WAT     H144442   5.137   0.151   1.996  0.1187  1.4501 -0.2810
10934WAT     H244443   5.253   0.081   2.019 -1.6612 -0.8586  2.3498
10934WAT    EPW44444   5.214   0.149   2.011  0.2765  0.4869 -0.7028
10935WAT      O44445   2.523   2.377   1.116  0.0283  0.1213 -0.5683
10935WAT     H144446   2.546   2.374   1.200 -0.0650  0.0928 -0.5440
10935WAT     H244447   2.459   2.319   1.110  0.1568 -0.0082 -0.6973
10935WAT    EPW44448   2.517   2.368   1.128  0.2004  0.1875 -0.0183
10936WAT      O44449   5.222   3.560   7.854 -0.4174  0.0858 -0.3729
10936WAT     H144450   5.229   3.519   7.931 -0.6216  0.1153 -0.3399
10936WAT     H244451   5.210   3.643   7.876  1.4062  0.4162 -0.4368
10936WAT    EPW44452   5.221   3.566   7.869 -0.2627 -1.0833 -0.1079
10937WAT      O44453   2.872   2.156   0.176 -0.1310  0.0975  0.0869
10937WAT     H144454   2.857   2.127   0.095  1.0049 -0.1513 -0.0434
10937WAT     H244455   2.812   2.218   0.187  0.5827  1.1129 -1.4662
10937WAT    EPW44456   2.861   2.161   0.166  0.3076 -0.4831 -0.0012
10938WAT      O44457   1.149   5.169   5.371 -0.1396  0.0838  0.0213
10938WAT     H144458   1.117   5.244   5.341 -2.8037 -0.7988  0.4579
10938WAT     H244459   1.229   5.191   5.398 -1.4759  3.2582  2.0111
10938WAT    EPW44460   1.156   5.183   5.370  0.1741 -0.1259 -0.1681
10939WAT      O44461   3.464   6.161   8.042 -0.0516  0.4206 -0.6818
10939WAT     H144462   3.525   6.099   8.044 -0.3121  0.1691  0.7543
10939WAT     H244463   3.407   6.132   7.983  0.3221 -0.2134 -0.7378
10939WAT    EPW44464   3.464   6.148   8.033  0.0285 -0.6390 -0.0138
10940WAT      O44465   7.712   6.178   3.448  0.1349 -0.4309  0.0091
10940WAT     H144466   7.652   6.240   3.441  0.3672 -0.2865 -0.8152
10940WAT     H244467   7.678   6.111   3.404  1.2223  0.1719 -1.8838
10940WAT    EPW44468   7.698   6.177   3.440 -0.3176  0.2166 -0.2182
10941WAT      O44469   3.107   2.098   4.784  0.0411  0.5657 -0.5178
10941WAT     H144470   3.131   2.070   4.705 -0.6686  1.6344 -1.1323
10941WAT     H244471   3.023   2.116   4.775 -0.1905  0.1693  0.6608
10941WAT    EPW44472   3.098   2.096   4.771 -0.2647  0.1208  0.0987
10942WAT      O44473   5.273   6.260   4.501 -0.5234  0.2568  0.2113
10942WAT     H144474   5.238   6.297   4.430 -0.0205  3.8605  1.6480
10942WAT     H244475   5.204   6.237   4.549 -0.8431 -0.4048 -0.5348
10942WAT    EPW44476   5.258   6.262   4.498 -0.1899  0.5470 -0.4038
10943WAT      O44477   2.764   1.047   5.705 -0.2209  0.5990 -0.2077
10943WAT     H144478   2.799   0.996   5.645  1.0508  0.6750  0.4318
10943WAT     H244479   2.798   1.126   5.689  1.0589  0.3993  1.2678
10943WAT    EPW44480   2.774   1.051   5.694  0.4877 -0.2672  0.5491
10944WAT      O44481   4.977   0.741   3.375  0.1697  0.4057 -0.0902
10944WAT     H144482   5.012   0.661   3.377 -1.5039 -0.3571 -0.0184
10944WAT     H244483   4.936   0.745   3.298  0.5678  1.3564 -0.2725
10944WAT    EPW44484   4.976   0.730   3.364 -0.1457 -0.0742 -0.1603
10945WAT      O44485   2.225   5.358   0.042  0.0594  0.3562 -0.4945
10945WAT     H144486   2.257   5.404   0.109 -2.3467  2.9259 -0.9030
10945WAT     H244487   2.179   5.295   0.080  0.2199  0.6606  0.2133
10945WAT    EPW44488   2.223   5.356   0.058  0.3983 -0.0559  0.7951
10946WAT      O44489   3.296   6.943   4.566 -0.4207 -0.7166 -0.2744
10946WAT     H144490   3.231   6.908   4.520 -0.0423 -0.7766 -0.7620
10946WAT     H244491   3.359   6.882   4.563 -0.2920 -0.6045  0.0848
10946WAT    EPW44492   3.296   6.929   4.559  0.0762 -1.2861 -0.1490
10947WAT      O44493   2.326   1.569   8.046  0.0145 -0.0463  0.1946
10947WAT     H144494   2.357   1.589   7.967  0.7356 -0.7116  0.2903
10947WAT     H244495   2.240   1.578   8.038  0.0723 -0.2417 -0.7025
10947WAT    EPW44496   2.318   1.573   8.033 -0.2637 -0.5174 -0.3975
10948WAT      O44497   4.749   2.859   5.608  0.1943  0.3112  0.5332
10948WAT     H144498   4.666   2.837   5.618  0.3920  0.1162  1.9255
10948WAT     H244499   4.751   2.943   5.633  0.6533 -0.0990  1.9649
10948WAT    EPW44500   4.737   2.868   5.613 -0.0388  0.1898 -0.3088
10949WAT      O44501   3.622   7.201   5.463 -0.0227  0.1320 -0.0299
10949WAT     H144502   3.582   7.142   5.513 -0.4876 -1.5342 -2.2375
10949WAT     H244503   3.571   7.208   5.393  1.3414  1.2230 -0.9845
10949WAT    EPW44504   3.609   7.193   5.460  0.3764 -0.0895 -0.1462
10950WAT      O44505   3.663   0.269   2.300  0.4015  0.1610 -0.3986
10950WAT     H144506   3.591   0.279   2.349  1.0801  0.9722  0.4843
10950WAT     H244507   3.675   0.348   2.265  1.2741  0.2440  0.0675
10950WAT    EPW44508   3.654   0.282   2.302  0.2928 -0.7011 -0.0761
10951WAT      O44509   4.554   3.191   5.981  0.5493  0.6809 -0.4302
10951WAT     H144510   4.481   3.176   6.026  0.7018  1.4579  0.0887
10951WAT     H244511   4.577   3.111   5.954 -0.2287  0.3646 -0.1958
10951WAT    EPW44512   4.547   3.177   5.984  0.2459  0.0478 -0.3561
10952WAT      O44513   2.599   2.438   2.525  0.0282 -0.2258  0.1437
10952WAT     H144514   2.580   2.358   2.497 -2.2844  0.8873 -1.7817
10952WAT     H244515   2.639   2.475   2.457 -1.5219  1.0922 -0.1253
10952WAT    EPW44516   2.602   2.432   2.511  0.7396  0.4978  0.2841
10953WAT      O44517   2.906   3.995   7.282  0.2103 -0.2890  0.4077
10953WAT     H144518   2.906   3.980   7.368  2.6362 -1.3590  0.2912
10953WAT     H244519   2.906   4.082   7.277 -1.3026 -0.1891  1.4313
10953WAT    EPW44520   2.906   4.006   7.294 -0.3078 -0.0693 -0.7214
10954WAT      O44521   4.157   1.872   0.408  0.1130 -0.1475 -0.0328
10954WAT     H144522   4.117   1.912   0.342 -0.0676  0.2743  0.3269
10954WAT     H244523   4.142   1.788   0.393 -2.1466  0.0406  0.8357
10954WAT    EPW44524   4.149   1.866   0.396  0.5841  0.1992 -0.8654
10955WAT      O44525   3.272   0.074   3.231 -0.5367  0.0659  0.6856
10955WAT     H144526   3.232   0.050   3.158  0.4980 -0.9370  0.4267
10955WAT     H244527   3.306   0.152   3.211  0.2616 -0.4780 -0.1144
10955WAT    EPW44528   3.271   0.082   3.217 -0.5783 -0.3792 -0.4717
10956WAT      O44529   3.843   5.708   6.319 -0.1513  0.5794  0.4666
10956WAT     H144530   3.852   5.622   6.307  1.5536  0.7139  0.6551
10956WAT     H244531   3.828   5.738   6.238  0.8563  0.2797  0.1605
10956WAT    EPW44532   3.842   5.700   6.305  0.0420  0.4978  0.0756
10957WAT      O44533   4.093   4.218   6.376 -0.1319 -0.5714  0.3078
10957WAT     H144534   4.057   4.214   6.455  0.5396 -1.4531  0.5959
10957WAT     H244535   4.178   4.229   6.394 -0.0714  0.0018 -0.3132
10957WAT    EPW44536   4.101   4.219   6.391 -0.2255  0.4042 -0.1507
10958WAT      O44537   0.957   0.876   1.504 -0.1394  0.6298  0.2855
10958WAT     H144538   0.962   0.963   1.508 -2.5281  0.8439  0.5176
10958WAT     H244539   0.875   0.860   1.531 -0.0070 -1.6404 -0.4748
10958WAT    EPW44540   0.946   0.887   1.509 -0.4445  0.3489 -0.5024
10959WAT      O44541   3.539   1.514   5.356  0.3978 -0.4898 -0.5316
10959WAT     H144542   3.541   1.447   5.412  1.1367  0.3910  0.5559
10959WAT     H244543   3.564   1.582   5.405 -0.5471  0.6299 -1.5319
10959WAT    EPW44544   3.543   1.514   5.372  0.3275  0.3503  0.2416
10960WAT      O44545   2.812   1.330   6.757  0.4313 -0.2750  0.0017
10960WAT     H144546   2.839   1.255   6.791  0.2400 -0.4617 -0.2599
10960WAT     H244547   2.745   1.307   6.706 -0.6779  0.2495  1.1588
10960WAT    EPW44548   2.806   1.316   6.754 -0.2413 -0.7796  0.5580
10961WAT      O44549   0.744   3.510   4.003  0.3826  0.1843  0.3033
10961WAT     H144550   0.793   3.447   4.039  0.9157  0.6294  0.3823
10961WAT     H244551   0.762   3.580   4.052 -1.0461  0.1637  0.8979
10961WAT    EPW44552   0.754   3.511   4.016 -0.3457  0.2801 -0.3160
10962WAT      O44553   2.648   2.418   1.847  0.1448  0.4772  0.3523
10962WAT     H144554   2.620   2.351   1.797  2.0903  0.4092 -0.7488
10962WAT     H244555   2.586   2.478   1.836 -1.4547 -0.9380  1.0363
10962WAT    EPW44556   2.635   2.417   1.838  0.1501 -0.4071  0.4210
10963WAT      O44557   1.907   6.504   4.672 -0.6761 -0.0605  0.0187
10963WAT     H144558   1.842   6.498   4.615  0.1305  2.4772 -1.3138
10963WAT     H244559   1.881   6.565   4.729 -0.3435 -0.6129  0.7948
10963WAT    EPW44560   1.894   6.512   4.672  0.0843  0.0677  0.1661
10964WAT      O44561   1.323   1.893   2.792  0.1479  0.5466  0.1251
10964WAT     H144562   1.351   1.850   2.722 -0.1613  1.5143 -0.6090
10964WAT     H244563   1.312   1.830   2.852  0.3762 -0.2926 -0.6994
10964WAT    EPW44564   1.325   1.878   2.791  0.2763  0.7575 -0.0685
10965WAT      O44565   3.659   0.781   7.168 -0.8665  0.3570  0.2023
10965WAT     H144566   3.651   0.848   7.113  1.4762  0.9246  0.4489
10965WAT     H244567   3.577   0.756   7.182 -1.6474  1.0888 -2.4257
10965WAT    EPW44568   3.646   0.787   7.162 -0.1554  0.0298  0.0546
10966WAT      O44569   6.028   1.898   3.872 -0.5925  1.0158  0.0068
10966WAT     H144570   5.977   1.854   3.928 -0.3504  2.0259  1.0702
10966WAT     H244571   6.014   1.858   3.796  0.5644 -1.6918  1.0851
10966WAT    EPW44572   6.018   1.886   3.869 -0.9000 -0.3603  0.2888
10967WAT      O44573   1.956   3.535   2.835 -0.5962  0.1359 -0.0165
10967WAT     H144574   1.923   3.470   2.882 -0.8321 -0.6878 -1.2905
10967WAT     H244575   2.039   3.541   2.863 -0.4228 -1.0595 -0.2465
10967WAT    EPW44576   1.963   3.526   2.846  0.0644 -0.1555  0.2922
10968WAT      O44577   2.559   4.641   3.381  0.2601 -0.0913 -0.1842
10968WAT     H144578   2.508   4.630   3.312 -0.6843  0.0957  0.4737
10968WAT     H244579   2.507   4.676   3.441  1.1767  0.1986  0.4790
10968WAT    EPW44580   2.544   4.645   3.380 -0.3276 -0.2233 -0.1166
10969WAT      O44581   0.387   2.809   2.200  0.0817 -0.7984  0.1306
10969WAT     H144582   0.339   2.863   2.150  0.2397 -0.4511  0.3493
10969WAT     H244583   0.412   2.746   2.145  1.3244  0.2489 -0.5340
10969WAT    EPW44584   0.383   2.808   2.185  0.1683 -0.1641  0.4794
10970WAT      O44585   4.963   6.447   7.766  0.2969  0.1352  0.2880
10970WAT     H144586   5.023   6.456   7.703  0.3753 -1.2011  0.1341
10970WAT     H244587   4.902   6.397   7.729 -0.8055  1.2631  0.5360
10970WAT    EPW44588   4.963   6.441   7.752 -0.3881 -0.0028  0.9591
10971WAT      O44589   1.079   7.704   4.232 -0.2590  0.0201  0.5591
10971WAT     H144590   1.111   7.741   4.304 -1.1997 -1.1076  1.5927
10971WAT     H244591   1.041   7.631   4.261 -1.2238 -0.1467 -0.9998
10971WAT    EPW44592   1.078   7.699   4.247  0.4791 -0.6746 -0.1599
10972WAT      O44593   3.602   0.777   5.107  0.3424 -0.2797 -0.0299
10972WAT     H144594   3.651   0.845   5.082  0.6863 -0.2325  0.7328
10972WAT     H244595   3.611   0.720   5.042 -0.5766  0.7001 -1.0560
10972WAT    EPW44596   3.611   0.779   5.094 -0.2071 -0.3301 -0.2016
10973WAT      O44597   4.558   2.434   5.646 -0.2291  0.0077  0.1645
10973WAT     H144598   4.580   2.511   5.611  0.2472  0.6303  1.7659
10973WAT     H244599   4.623   2.381   5.623 -0.2130  0.2567 -0.3698
10973WAT    EPW44600   4.571   2.438   5.637  0.0685 -0.0059 -0.1164
10974WAT      O44601   4.966   4.452   5.871  0.3656  0.1381 -0.0381
10974WAT     H144602   4.937   4.507   5.811 -0.3037 -1.7594 -1.5765
10974WAT     H244603   4.896   4.438   5.922  0.8400  1.4849  1.0459
10974WAT    EPW44604   4.951   4.458   5.870 -0.2640 -0.2129 -0.1423
10975WAT      O44605   2.610   5.603   6.160 -0.4550 -0.2369  0.0480
10975WAT     H144606   2.581   5.684   6.143  0.3225  0.0075 -0.1170
10975WAT     H244607   2.547   5.569   6.211 -0.9091  0.3783 -0.0977
10975WAT    EPW44608   2.596   5.610   6.165 -0.1332 -0.4601 -0.0190
10976WAT      O44609   6.599   7.371   3.667  0.2928 -0.1437 -0.7671
10976WAT     H144610   6.622   7.338   3.590  2.5762  0.8209 -0.6034
10976WAT     H244611   6.670   7.417   3.691 -1.1207  1.3168  0.9306
10976WAT    EPW44612   6.613   7.373   3.659 -0.3704  0.1648 -0.5887
10977WAT      O44613   3.261   7.769   6.867 -0.1255 -0.4180 -0.1524
10977WAT     H144614   3.307   7.769   6.792  0.4792  0.3145  0.2058
10977WAT     H244615   3.307   7.716   6.919 -0.1715 -0.3806 -0.0736
10977WAT    EPW44616   3.275   7.761   6.864 -0.0646  0.0614  0.2150
10978WAT      O44617   3.016   0.359   4.714  0.0383 -0.3463  0.2731
10978WAT     H144618   3.080   0.336   4.659  1.3086  0.8459  1.1712
10978WAT     H244619   2.999   0.442   4.691 -0.2532 -0.2269  0.9160
10978WAT    EPW44620   3.023   0.368   4.702  0.7879  0.3880 -0.5004
10979WAT      O44621   4.633   3.097   5.217  0.6976 -0.1778  0.9090
10979WAT     H144622   4.694   3.112   5.157  0.2136  1.2943  0.7283
10979WAT     H244623   4.601   3.019   5.196 -0.1964  0.7451 -1.4303
10979WAT    EPW44624   4.637   3.088   5.205 -0.2040  0.2361  0.0952
10980WAT      O44625   4.427   7.772   7.713  0.4029 -0.7185 -0.7690
10980WAT     H144626   4.390   7.694   7.699  1.8370 -1.5395 -0.1999
10980WAT     H244627   4.475   7.760   7.785 -0.6433  1.1882  0.3210
10980WAT    EPW44628   4.429   7.759   7.721 -0.2495 -0.8119  0.4862
10981WAT      O44629   2.834   2.515   5.550 -0.3038 -0.1356 -0.0075
10981WAT     H144630   2.757   2.520   5.590  0.5422  0.0185  1.7075
10981WAT     H244631   2.843   2.593   5.513 -1.2873 -0.4236 -0.9083
10981WAT    EPW44632   2.824   2.527   5.551 -0.5054 -0.3494  0.6783
10982WAT      O44633   3.387   0.425   5.913  0.1645  0.1538 -0.4086
10982WAT     H144634   3.348   0.348   5.919 -0.6369  0.4984 -1.0078
10982WAT     H244635   3.468   0.405   5.888  0.8106 -0.6562  2.0324
10982WAT    EPW44636   3.393   0.411   5.910 -0.0522 -0.2834  0.5218
10983WAT      O44637   1.720   7.996   4.490 -0.6623 -0.1087  0.4898
10983WAT     H144638   1.738   7.981   4.406 -1.5194  0.5326  0.1750
10983WAT     H244639   1.634   8.011   4.490 -0.4978  0.9867  1.3103
10983WAT    EPW44640   1.710   7.996   4.477 -0.1916 -0.2776  0.0550
10984WAT      O44641   2.536   3.560   1.753  0.3677  0.2526 -0.3668
10984WAT     H144642   2.534   3.512   1.680 -0.3989  1.2913 -1.0661
10984WAT     H244643   2.619   3.587   1.757  0.8912 -1.3632  0.2238
10984WAT    EPW44644   2.548   3.557   1.743 -0.1097 -0.0273 -0.2514
10985WAT      O44645   1.720   0.488   5.557  0.5277  0.5332  0.3808
10985WAT     H144646   1.662   0.430   5.586  1.0058  0.6959  1.7332
10985WAT     H244647   1.792   0.440   5.547  0.1724  0.3172 -1.3556
10985WAT    EPW44648   1.722   0.472   5.560  0.7910  0.4612 -0.6752
10986WAT      O44649   3.264   4.683   8.029  0.6247 -0.3060  0.5479
10986WAT     H144650   3.206   4.643   7.978  0.1909  0.1004  0.7094
10986WAT     H244651   3.300   4.743   7.977  0.4629 -0.1554  0.6062
10986WAT    EPW44652   3.261   4.686   8.014 -0.0485  0.2270 -0.1339
10987WAT      O44653   6.459   4.500   4.988 -0.4505 -0.2628  0.0054
10987WAT     H144654   6.517   4.558   4.956  0.1151 -0.9730 -0.2757
10987WAT     H244655   6.394   4.551   5.017  0.9650  0.6611  1.7617
10987WAT    EPW44656   6.458   4.516   4.987  0.1833 -0.2514  0.5335
10988WAT      O44657   2.418   2.921   2.691  0.3349 -0.1150 -0.1957
10988WAT     H144658   2.436   2.947   2.609 -0.5716  0.9765 -0.0758
10988WAT     H244659   2.495   2.890   2.719  0.8616  0.2020 -1.2086
10988WAT    EPW44660   2.432   2.920   2.683  0.1433  0.1743 -0.4096
10989WAT      O44661   1.143   1.535   2.199  0.2524 -0.1951 -0.3911
10989WAT     H144662   1.084   1.503   2.256  0.0138 -0.1324 -0.5990
10989WAT     H244663   1.093   1.572   2.138  0.5042  2.2003  0.7294
10989WAT    EPW44664   1.127   1.535   2.198 -0.0273  0.3428  0.1980
10990WAT      O44665   0.137   7.067   3.696 -0.7457  0.0667  0.3088
10990WAT     H144666   0.199   7.030   3.646 -1.1938 -0.4199  0.1032
10990WAT     H244667   0.074   7.086   3.638 -1.1808 -0.3103  0.6480
10990WAT    EPW44668   0.137   7.064   3.680 -0.1457 -0.3101  0.6142
10991WAT      O44669   5.186   1.780   5.521 -0.1912 -0.0041  0.2739
10991WAT     H144670   5.205   1.849   5.570 -0.3965 -1.2021  2.1361
10991WAT     H244671   5.134   1.812   5.459  0.9816  1.7641  0.1565
10991WAT    EPW44672   5.181   1.795   5.519 -0.0192  0.2296 -0.7382
10992WAT      O44673   0.425   6.251   4.330 -0.1774  0.0663  0.1873
10992WAT     H144674   0.399   6.176   4.293  2.2427 -1.5008  1.4733
10992WAT     H244675   0.397   6.312   4.273  1.9457 -2.0474 -3.5578
10992WAT    EPW44676   0.417   6.249   4.316  0.3312 -0.2155 -0.6389
10993WAT      O44677   5.098   3.896   0.552  0.4447 -0.1216 -0.1227
10993WAT     H144678   5.126   3.813   0.560 -2.0363 -0.9878  0.4317
10993WAT     H244679   5.052   3.909   0.624 -2.0113  0.5307 -1.6913
10993WAT    EPW44680   5.095   3.886   0.563  0.1267  0.1350 -0.6726
10994WAT      O44681   5.939   3.220   5.731 -0.0570  0.6460 -0.4407
10994WAT     H144682   5.931   3.305   5.749  1.5905  0.7407  0.0123
10994WAT     H244683   5.971   3.219   5.650 -0.0763  0.4695 -0.4473
10994WAT    EPW44684   5.943   3.232   5.722 -0.0448 -0.2346 -0.4444
10995WAT      O44685   1.448   3.480   5.638  0.0552  0.5203 -0.2510
10995WAT     H144686   1.503   3.491   5.571  0.2392 -0.6685 -0.3147
10995WAT     H244687   1.442   3.393   5.645 -0.5200  0.6380  0.8191
10995WAT    EPW44688   1.455   3.469   5.629  0.4469  0.2889 -0.2583
10996WAT      O44689   5.407   3.659   5.866  0.4345 -0.4062 -0.1674
10996WAT     H144690   5.466   3.618   5.817  1.1378  0.9225 -0.4592
10996WAT     H244691   5.394   3.604   5.932  1.8336 -0.8082 -0.2060
10996WAT    EPW44692   5.414   3.645   5.868  0.9534 -0.8788 -0.4934
10997WAT      O44693   2.237   2.184   3.290  0.0731 -0.1669 -0.3047
10997WAT     H144694   2.257   2.175   3.374  0.5564 -0.8525 -0.4857
10997WAT     H244695   2.307   2.152   3.248 -0.9540 -1.6866 -0.9554
10997WAT    EPW44696   2.250   2.178   3.296 -0.1818  0.3102  0.4481
10998WAT      O44697   3.749   7.804   5.223  0.6755 -0.6431  0.0134
10998WAT     H144698   3.706   7.734   5.193  2.2565 -1.7002  0.1310
10998WAT     H244699   3.719   7.869   5.174 -0.2420 -1.5342 -0.6410
10998WAT    EPW44700   3.738   7.803   5.212  0.6643 -0.0748 -0.2339
10999WAT      O44701   3.883   2.149   4.827 -0.3398  0.0982 -0.6240
10999WAT     H144702   3.836   2.099   4.774 -0.7803 -1.0648  0.8097
10999WAT     H244703   3.833   2.158   4.898  0.9561  0.0849  0.3351
10999WAT    EPW44704   3.869   2.143   4.830  0.3691  0.6100 -0.4570
11000WAT      O44705   4.619   1.877   7.240  0.2643  0.3372  0.0179
11000WAT     H144706   4.537   1.878   7.271  0.3794  0.6554  0.3239
11000WAT     H244707   4.610   1.841   7.161 -0.3178  1.1733 -0.3269
11000WAT    EPW44708   4.605   1.872   7.233 -0.3933  0.2694  0.1415
11001WAT      O44709   3.011   3.963   2.741 -0.0441 -0.2182 -0.2176
11001WAT     H144710   3.069   4.010   2.785  0.2571 -0.7595 -0.0297
11001WAT     H244711   3.059   3.899   2.705 -0.5078 -0.6265 -0.1263
11001WAT    EPW44712   3.027   3.960   2.742  0.0620  0.5701 -0.0598
11002WAT      O44713   4.375   1.797   2.775  0.2858 -0.7249 -0.2181
11002WAT     H144714   4.451   1.836   2.791 -0.8911  1.1867  1.0617
11002WAT     H244715   4.367   1.741   2.841 -0.3457  0.5790  0.8434
11002WAT    EPW44716   4.385   1.795   2.787 -0.5516 -0.3424  0.3930
11003WAT      O44717   4.285   1.868   6.053  0.2565  0.5126  0.0330
11003WAT     H144718   4.312   1.807   6.110 -1.0057 -0.8888 -0.7903
11003WAT     H244719   4.343   1.863   5.988 -0.4648 -0.6922 -0.5645
11003WAT    EPW44720   4.297   1.858   6.052 -0.0668  0.5547  0.2415
11004WAT      O44721   1.575   6.138   2.805  0.3484  0.1821  0.3075
11004WAT     H144722   1.659   6.156   2.817  1.1828 -3.2505  0.8970
11004WAT     H244723   1.545   6.121   2.886 -0.4844 -0.1296 -0.0473
11004WAT    EPW44724   1.583   6.138   2.819 -0.7090 -0.3391 -0.5946
11005WAT      O44725   3.817   1.293   3.181  0.0088 -0.2579 -0.7815
11005WAT     H144726   3.880   1.353   3.171 -1.8224  1.6949 -1.3597
11005WAT     H244727   3.824   1.245   3.108  1.3315 -0.6383 -0.4423
11005WAT    EPW44728   3.828   1.295   3.169 -0.1846 -0.2000 -0.3733
11006WAT      O44729   3.074   3.060   5.646 -0.0703 -0.2833 -0.1438
11006WAT     H144730   3.055   3.119   5.707  0.2348  0.4007 -0.6906
11006WAT     H244731   3.161   3.055   5.649 -0.1477 -1.4029  0.5285
11006WAT    EPW44732   3.084   3.068   5.655 -0.0030 -0.5660 -0.2531
11007WAT      O44733   6.788   6.234   2.033 -0.3748  0.6296 -0.0591
11007WAT     H144734   6.778   6.263   1.952  0.9391  0.3186 -0.3591
11007WAT     H244735   6.725   6.175   2.042 -0.4063  0.5213 -0.9278
11007WAT    EPW44736   6.777   6.230   2.023 -0.1132  0.2555 -0.0752
11008WAT      O44737   2.404   2.987   3.045 -0.4942  0.0270 -0.0733
11008WAT     H144738   2.334   2.956   3.003 -0.1063 -3.1705  1.2789
11008WAT     H244739   2.375   3.002   3.126 -0.4382  2.5757 -0.4699
11008WAT    EPW44740   2.390   2.984   3.051 -0.3341 -0.2086 -0.5380
11009WAT      O44741   3.329   1.335   6.938 -0.4338 -0.2276  0.3364
11009WAT     H144742   3.356   1.256   6.916  2.4015  0.5789  0.5669
11009WAT     H244743   3.329   1.380   6.863  1.2455  0.3781  0.6620
11009WAT    EPW44744   3.333   1.330   6.924 -0.3548 -0.1472  0.0028
11010WAT      O44745   6.486   3.413   1.917  0.2259 -0.9454  0.2443
11010WAT     H144746   6.423   3.457   1.876 -0.5208 -1.5466  0.7123
11010WAT     H244747   6.442   3.362   1.973  1.0883 -1.8272  0.1438
11010WAT    EPW44748   6.470   3.412   1.919 -0.0751  0.1021  0.0141
11011WAT      O44749   4.227   2.679   0.098  0.2332  0.1235  0.5823
11011WAT     H144750   4.185   2.756   0.094 -0.3188 -0.1645  0.7124
11011WAT     H244751   4.259   2.670   0.017  0.5140  0.6037  0.6341
11011WAT    EPW44752   4.226   2.689   0.085 -0.0848 -0.1886  0.2914
11012WAT      O44753   1.502   1.909   7.049 -1.0210  0.2708 -0.0700
11012WAT     H144754   1.435   1.913   7.105  0.1450 -0.0778  1.4244
11012WAT     H244755   1.572   1.918   7.100  0.0928  0.5956 -1.5759
11012WAT    EPW44756   1.502   1.911   7.065 -0.4939 -0.3721 -0.0173
11013WAT      O44757   4.632   4.439   3.986 -0.2126  0.3093 -0.3158
11013WAT     H144758   4.612   4.402   3.909 -0.3989  2.4339 -1.3583
11013WAT     H244759   4.618   4.524   3.972  0.0785  0.7958  1.9916
11013WAT    EPW44760   4.627   4.446   3.972 -0.0397 -0.0366 -0.2484
11014WAT      O44761   5.428   3.330   5.931 -0.4578  0.4531 -0.1254
11014WAT     H144762   5.478   3.368   5.871  0.4508 -0.1884  0.1926
11014WAT     H244763   5.485   3.287   5.981 -1.4144 -1.4226 -0.5373
11014WAT    EPW44764   5.444   3.329   5.930  0.5987  0.7653 -0.5760
11015WAT      O44765   3.037   2.784   3.455  0.0516 -0.2125 -0.2256
11015WAT     H144766   3.043   2.869   3.474  0.8267 -0.5832  1.3200
11015WAT     H244767   3.052   2.744   3.531  1.6492 -1.7840 -1.2749
11015WAT    EPW44768   3.040   2.791   3.469  0.8675 -0.0461 -0.1491
11016WAT      O44769   2.664   6.432   0.016 -0.3012 -0.8399 -0.2229
11016WAT     H144770   2.679   6.385   0.089  1.7397 -0.0739 -0.0722
11016WAT     H244771   2.623   6.376  -0.036 -0.1805 -1.9944  0.8679
11016WAT    EPW44772   2.660   6.417   0.019  0.0208  0.1286  0.4853
11017WAT      O44773   2.291   0.402   3.409 -0.5297  0.5906  0.7188
11017WAT     H144774   2.368   0.362   3.412  0.0197  1.5014 -0.4296
11017WAT     H244775   2.259   0.391   3.489  0.8683  0.3445  1.2720
11017WAT    EPW44776   2.297   0.394   3.421  0.5249  0.6346  0.0697
11018WAT      O44777   4.039   8.033   4.090  0.3857 -0.1210  0.7692
11018WAT     H144778   3.959   7.997   4.091  0.2349  0.0780 -0.6814
11018WAT     H244779   4.066   8.026   4.172  0.3008 -3.3565  0.6418
11018WAT    EPW44780   4.031   8.026   4.102  0.2506  0.2030 -0.3666
11019WAT      O44781   2.863   3.449   7.534  0.2527 -0.3181  0.7316
11019WAT     H144782   2.931   3.470   7.584  0.0438  0.1280  0.8319
11019WAT     H244783   2.808   3.517   7.544  0.2894 -0.1327 -0.2383
11019WAT    EPW44784   2.865   3.462   7.543  0.4617 -0.1181 -0.0764
11020WAT      O44785   3.494   1.759   4.961  0.6499 -0.4926 -0.0399
11020WAT     H144786   3.490   1.788   5.043  1.4631  1.0908 -0.5143
11020WAT     H244787   3.420   1.788   4.925  0.3089 -1.1579  0.1085
11020WAT    EPW44788   3.483   1.768   4.967  0.2937 -0.4919 -0.6126
11021WAT      O44789   0.059   0.485   0.785  0.3506  0.1611 -0.5377
11021WAT     H144790   0.125   0.431   0.804  1.1816  1.5798  0.7990
11021WAT     H244791   0.090   0.564   0.806 -1.0872  1.1107 -1.7382
11021WAT    EPW44792   0.073   0.489   0.791  0.1525 -0.1028  0.4114
11022WAT      O44793   4.095   5.037   6.428  0.4689 -0.0942 -0.3494
11022WAT     H144794   4.117   5.105   6.479 -1.6795  0.3644  0.0674
11022WAT     H244795   4.115   4.968   6.478 -0.7383  0.3291  0.7842
11022WAT    EPW44796   4.101   5.037   6.443  0.2870 -0.3939  0.3219
11023WAT      O44797   3.906   0.498   3.154 -0.1803  0.2568  0.1271
11023WAT     H144798   3.867   0.445   3.211  0.4067 -0.9635 -0.5405
11023WAT     H244799   3.959   0.546   3.203  1.0694 -1.4545  0.5584
11023WAT    EPW44800   3.908   0.497   3.169 -0.2883  0.2233  0.2880
11024WAT      O44801   4.670   3.857   7.035 -0.2032 -0.1073  0.2491
11024WAT     H144802   4.687   3.887   7.115 -1.2483  0.7110  0.1924
11024WAT     H244803   4.712   3.913   6.983  0.0020 -0.2952  0.2142
11024WAT    EPW44804   4.679   3.870   7.039 -0.4591 -0.0379  0.4271
11025WAT      O44805   5.527   0.716   4.336  0.1784  0.5967  0.1912
11025WAT     H144806   5.612   0.697   4.333 -0.0227 -0.2862 -0.3651
11025WAT     H244807   5.515   0.766   4.266  0.0146 -0.3106 -0.4440
11025WAT    EPW44808   5.538   0.720   4.325  0.7557  0.1706  0.0981
11026WAT      O44809   5.482   3.161   4.310  0.6598 -0.4058  0.4000
11026WAT     H144810   5.520   3.153   4.388 -1.2121 -1.8147  1.2586
11026WAT     H244811   5.401   3.188   4.329  1.4725  4.4662 -1.4442
11026WAT    EPW44812   5.476   3.164   4.324 -0.0516 -0.3584 -0.2868
11027WAT      O44813   4.486   1.625   4.682  0.0121 -0.0064  0.0420
11027WAT     H144814   4.559   1.581   4.701 -1.0816 -1.7154  0.5424
11027WAT     H244815   4.422   1.569   4.705 -1.4528  0.9044 -1.5678
11027WAT    EPW44816   4.487   1.610   4.688  0.2964  0.9294 -0.5094
11028WAT      O44817   2.630   1.937   7.667 -0.4573 -0.4210 -0.1366
11028WAT     H144818   2.621   1.924   7.581 -0.4415  1.6485 -0.4961
11028WAT     H244819   2.658   2.019   7.673  0.9692 -0.9802  1.8082
11028WAT    EPW44820   2.633   1.947   7.655 -0.0728 -0.1428  0.2765
11029WAT      O44821   2.830   6.468   0.527  0.0510  0.3473  0.0577
11029WAT     H144822   2.766   6.438   0.577 -0.2424  1.1807  0.2015
11029WAT     H244823   2.871   6.396   0.500  0.2248 -0.1322  1.4997
11029WAT    EPW44824   2.827   6.453   0.530  0.6997  0.1409 -0.2459
11030WAT      O44825   7.123   3.595   7.964 -0.1438 -0.5429 -0.5892
11030WAT     H144826   7.113   3.568   7.882 -1.4851 -1.8117 -0.0530
11030WAT     H244827   7.121   3.521   8.010  2.0994 -0.0056  0.5030
11030WAT    EPW44828   7.121   3.580   7.959 -0.0602 -0.6167  0.1160
11031WAT      O44829   3.423   6.452   4.406 -0.0494  0.3531  0.5132
11031WAT     H144830   3.396   6.439   4.324  0.7461  1.5086  0.0458
11031WAT     H244831   3.487   6.393   4.416 -0.0447  0.3126  0.2496
11031WAT    EPW44832   3.428   6.441   4.395  0.3717 -0.0644 -0.1160
11032WAT      O44833   2.370   4.429   7.509 -0.3635  0.0711 -0.3277
11032WAT     H144834   2.285   4.416   7.519 -0.0384 -2.2128  0.1220
11032WAT     H244835   2.404   4.348   7.514  1.8158  0.8921 -0.5534
11032WAT    EPW44836   2.363   4.415   7.511 -0.2822  0.1255  0.8797
11033WAT      O44837   1.235   7.641   2.457  0.3312 -0.2715 -0.4208
11033WAT     H144838   1.170   7.583   2.452  0.7993 -0.6991 -2.4627
11033WAT     H244839   1.304   7.592   2.479  0.5088 -0.3257 -1.0737
11033WAT    EPW44840   1.235   7.625   2.459 -0.5458  0.3302 -0.1216
11034WAT      O44841   3.073   2.871   7.839 -0.0683  0.3428  0.1212
11034WAT     H144842   3.061   2.951   7.872 -1.8957  0.4197 -0.6315
11034WAT     H244843   3.062   2.882   7.753 -1.1089 -0.8391  0.0802
11034WAT    EPW44844   3.070   2.885   7.831  0.6610 -0.1613  0.7653
11035WAT      O44845   1.790   2.618   6.609  0.2435  0.2058  0.6955
11035WAT     H144846   1.857   2.671   6.590  0.9871 -1.3717 -1.5520
11035WAT     H244847   1.723   2.652   6.565  0.8590 -0.9136 -1.2321
11035WAT    EPW44848   1.790   2.631   6.600  0.4359  0.8086 -0.5907
11036WAT      O44849   1.223   2.343   0.201  0.3779  0.1039  0.2533
11036WAT     H144850   1.262   2.417   0.179 -2.2016  1.5183  0.0366
11036WAT     H244851   1.202   2.354   0.285  0.2564 -0.5091  0.3093
11036WAT    EPW44852   1.226   2.355   0.210  0.9863 -0.1486  0.4735
11037WAT      O44853   2.521   1.009   4.761  0.4189 -0.2031  0.5116
11037WAT     H144854   2.583   0.951   4.742 -0.4460 -0.7774 -0.7494
11037WAT     H244855   2.536   1.031   4.844  0.8707 -2.1117  0.9582
11037WAT    EPW44856   2.532   1.004   4.771 -0.1593  0.0322 -0.6233
11038WAT      O44857   1.561   0.900   7.509  0.5718  0.3715  0.5130
11038WAT     H144858   1.637   0.943   7.510  0.7347  0.0829  1.4828
11038WAT     H244859   1.572   0.840   7.447  1.0618  0.4490  0.5226
11038WAT    EPW44860   1.574   0.898   7.500 -0.5244 -0.2441  0.3913
11039WAT      O44861   4.650   7.283   0.230 -0.4222 -0.1189 -0.2373
11039WAT     H144862   4.665   7.297   0.145  1.0928 -0.9494 -0.1231
11039WAT     H244863   4.717   7.234   0.256 -1.4402 -0.8294  1.2017
11039WAT    EPW44864   4.662   7.278   0.222 -0.1539 -0.4377  0.0756
11040WAT      O44865   3.039   3.441   4.374 -0.1854 -0.1354 -0.1922
11040WAT     H144866   3.078   3.516   4.355  0.6493 -0.4668  0.1817
11040WAT     H244867   3.073   3.385   4.316 -1.7233  0.0078 -1.3023
11040WAT    EPW44868   3.050   3.444   4.363  0.3688  0.0109 -0.3222
11041WAT      O44869   3.727   2.004   6.764 -0.1482  0.1890 -0.3278
11041WAT     H144870   3.707   1.938   6.710  0.1409 -0.3922  0.2682
11041WAT     H244871   3.726   1.967   6.843  1.8088  0.4558 -0.1235
11041WAT    EPW44872   3.724   1.989   6.768  0.4795  0.3357  0.2896
11042WAT      O44873   3.036   8.056   7.307  0.1979 -0.3365 -0.4771
11042WAT     H144874   3.034   7.973   7.280  1.6030 -0.7623  0.6025
11042WAT     H244875   2.952   8.075   7.321 -0.1772 -1.4535 -1.0891
11042WAT    EPW44876   3.023   8.046   7.305  0.1764  0.2487  0.2551
11043WAT      O44877   1.698   1.723   3.902  0.8935 -0.2027 -0.5388
11043WAT     H144878   1.696   1.809   3.917 -0.4875 -0.0510 -1.4360
11043WAT     H244879   1.699   1.688   3.982  0.9581  0.6385 -0.1636
11043WAT    EPW44880   1.698   1.730   3.916  0.6628 -0.2828  0.4173
11044WAT      O44881   6.299   5.114   1.273  0.2108  0.4814 -0.4233
11044WAT     H144882   6.302   5.028   1.287  1.4990  0.6013  0.2172
11044WAT     H244883   6.346   5.125   1.201 -0.4898  0.5917 -0.8683
11044WAT    EPW44884   6.306   5.103   1.265  0.2365 -0.1372 -0.6292
11045WAT      O44885   3.750   2.043   1.060 -0.2836 -0.3800  0.1917
11045WAT     H144886   3.794   2.105   1.103  0.5651  1.6739 -3.2658
11045WAT     H244887   3.667   2.071   1.062 -0.5145 -1.0858  1.6243
11045WAT    EPW44888   3.744   2.056   1.067  0.6127 -0.4195 -0.2928
11046WAT      O44889   1.950   2.812   6.512  0.0450 -0.2677 -0.2321
11046WAT     H144890   1.964   2.867   6.579  0.2811  0.0453 -0.5329
11046WAT     H244891   1.880   2.846   6.472 -0.4805 -0.8056  0.2121
11046WAT    EPW44892   1.942   2.825   6.516 -0.3314 -0.4547 -0.1384
11047WAT      O44893   1.777   0.089   5.531  0.0108 -0.0631  0.1048
11047WAT     H144894   1.844   0.033   5.534 -0.0657 -0.1247  1.0271
11047WAT     H244895   1.796   0.141   5.463  0.3113 -0.9099 -0.4754
11047WAT    EPW44896   1.790   0.088   5.521 -0.1196 -0.0503  0.2147
11048WAT      O44897   4.420   0.161   2.174  0.3551 -0.0951 -0.3932
11048WAT     H144898   4.482   0.218   2.153  0.3329  0.2112  0.3288
11048WAT     H244899   4.423   0.159   2.261 -0.5685 -0.1529 -0.3467
11048WAT    EPW44900   4.430   0.169   2.184  0.7134  0.8022 -0.2114
11049WAT      O44901   0.662   3.900   4.098  0.1269 -0.2261 -0.3250
11049WAT     H144902   0.588   3.913   4.053  1.1436  1.1403 -1.7148
11049WAT     H244903   0.705   3.976   4.089  1.5100 -0.8237  0.8364
11049WAT    EPW44904   0.657   3.913   4.090 -0.3751  1.1282 -0.4707
11050WAT      O44905   4.569   0.620   4.680 -0.5619 -0.6192 -0.3789
11050WAT     H144906   4.526   0.552   4.713 -1.2042 -0.1656 -0.2559
11050WAT     H244907   4.573   0.603   4.595  1.7211 -2.1464 -0.0536
11050WAT    EPW44908   4.563   0.608   4.672  0.2194 -0.3486 -0.0596
11051WAT      O44909   4.976   2.312   5.718 -0.0245  0.0022  0.0546
11051WAT     H144910   5.009   2.371   5.772  1.1668 -0.0455 -0.5947
11051WAT     H244911   4.998   2.236   5.753  0.3356 -0.0326 -0.2420
11051WAT    EPW44912   4.984   2.310   5.731  0.5847  0.1106  0.3708
11052WAT      O44913   0.567   0.776   7.816 -0.6000 -0.4849 -0.0670
11052WAT     H144914   0.557   0.690   7.823 -0.2510 -0.9285 -3.3045
11052WAT     H244915   0.489   0.808   7.839 -2.0171 -2.0416 -2.2711
11052WAT    EPW44916   0.554   0.768   7.820  0.4617  0.3905  0.6601
11053WAT      O44917   3.553   3.546   5.851  0.9371 -0.1331  0.1653
11053WAT     H144918   3.601   3.526   5.782  0.0758  0.2025 -0.5468
11053WAT     H244919   3.587   3.622   5.878 -0.0790  0.8521 -1.2152
11053WAT    EPW44920   3.565   3.555   5.845  0.1139 -0.4034  0.7346
11054WAT      O44921   3.437   6.992   7.171 -0.0809  0.4060 -0.3407
11054WAT     H144922   3.380   6.938   7.132  0.1280  1.1805 -1.7903
11054WAT     H244923   3.511   6.947   7.172 -0.3769 -0.0840  0.3045
11054WAT    EPW44924   3.439   6.977   7.166 -0.4949 -0.2621 -0.1861
11055WAT      O44925   3.063   7.051   7.214  0.5058 -0.9791 -0.2216
11055WAT     H144926   2.976   7.049   7.208  0.5750 -0.1791 -2.0533
11055WAT     H244927   3.090   7.030   7.134  1.9652  0.6121 -0.2000
11055WAT    EPW44928   3.054   7.047   7.202  0.1123 -0.3594 -0.4645
11056WAT      O44929   3.628   0.266   5.338 -0.0691  0.2061  0.5838
11056WAT     H144930   3.687   0.323   5.368 -0.1532  0.3539  0.4722
11056WAT     H244931   3.588   0.310   5.274  0.7682 -0.4529 -0.4248
11056WAT    EPW44932   3.630   0.281   5.333 -0.5301  0.1709  0.8870
11057WAT      O44933   5.398   7.195   1.861 -0.1746 -0.3153 -0.0765
11057WAT     H144934   5.482   7.207   1.880 -0.6104  1.1239  1.1216
11057WAT     H244935   5.369   7.275   1.843 -1.5725 -0.5820  0.8149
11057WAT    EPW44936   5.406   7.209   1.861  0.2490 -0.1993  0.2304
11058WAT      O44937   5.314   3.429   3.720 -0.1428  0.4891 -0.2492
11058WAT     H144938   5.352   3.385   3.655  0.0515 -1.6448  1.1831
11058WAT     H244939   5.245   3.379   3.741 -0.4304  1.3265  0.8819
11058WAT    EPW44940   5.310   3.415   3.714  0.9150  0.3662 -0.2341
11059WAT      O44941   2.030   3.845   4.924 -0.2472  0.6793  0.0829
11059WAT     H144942   2.111   3.823   4.945  0.7456  1.2573 -2.6885
11059WAT     H244943   1.982   3.814   4.990  2.2646  1.1193  2.2832
11059WAT    EPW44944   2.035   3.837   4.937  0.0282 -0.2833  0.5817
11060WAT      O44945   4.777   0.671   2.156 -0.2457 -0.4511  0.0932
11060WAT     H144946   4.739   0.625   2.219 -1.3356 -2.5068 -1.9335
11060WAT     H244947   4.843   0.621   2.130 -0.8812 -0.5071 -1.5439
11060WAT    EPW44948   4.781   0.657   2.161 -0.1239 -0.5563  0.1754
11061WAT      O44949   1.426   7.418   2.498  0.1099 -0.0276 -0.1852
11061WAT     H144950   1.497   7.445   2.540  0.7461  0.1859 -1.3506
11061WAT     H244951   1.446   7.429   2.414 -1.4671  0.4709 -0.5428
11061WAT    EPW44952   1.439   7.424   2.492  0.0839  0.0972 -0.2386
11062WAT      O44953   3.428   0.455   5.184 -0.5743  0.0072  0.4881
11062WAT     H144954   3.449   0.517   5.241 -1.9537  0.2400  0.7869
11062WAT     H244955   3.492   0.458   5.125 -0.3567  1.3863  0.7607
11062WAT    EPW44956   3.440   0.464   5.184  0.0906  0.2529  0.2770
11063WAT      O44957   2.944   2.594   5.266  0.0216  0.3142  0.2025
11063WAT     H144958   2.975   2.530   5.215 -0.6908  1.0630 -1.2266
11063WAT     H244959   3.013   2.616   5.315 -0.1298 -2.6207  1.9408
11063WAT    EPW44960   2.959   2.588   5.266 -0.1522  0.2497 -0.5078
11064WAT      O44961   0.869   1.611   2.701 -0.2374  0.4772 -0.3718
11064WAT     H144962   0.801   1.602   2.754  0.1125 -1.5525 -0.1644
11064WAT     H244963   0.842   1.574   2.626  0.8056 -1.0781 -0.0493
11064WAT    EPW44964   0.855   1.604   2.698 -0.1128  1.0172 -0.3813
11065WAT      O44965   1.166   2.112   4.985  0.1374 -0.2063  0.8267
11065WAT     H144966   1.085   2.132   4.960  1.0505  3.4229  0.0809
11065WAT     H244967   1.199   2.069   4.917 -0.8934 -0.9394  0.7791
11065WAT    EPW44968   1.159   2.109   4.971  0.0219  0.0886  0.2018
11066WAT      O44969   6.617   6.907   3.900 -0.1372 -0.4946 -0.4831
11066WAT     H144970   6.555   6.863   3.943 -0.4711 -0.4067 -0.8778
11066WAT     H244971   6.615   6.986   3.937 -0.6606 -0.3151 -0.8977
11066WAT    EPW44972   6.608   6.912   3.912  0.2617 -0.4042  0.2472
11067WAT      O44973   2.657   0.390   7.330 -0.0385  0.2017 -0.3696
11067WAT     H144974   2.658   0.360   7.412  0.4983  3.2464  0.8487
11067WAT     H244975   2.741   0.408   7.314 -0.4408  2.0488 -0.5655
11067WAT    EPW44976   2.670   0.388   7.340  0.1645  0.3333  0.0077
11068WAT      O44977   0.945   0.521   0.391 -0.1250 -0.1548 -0.6076
11068WAT     H144978   0.955   0.475   0.465 -0.7088  1.0656  0.2660
11068WAT     H244979   0.975   0.467   0.330 -0.7540 -1.6977  0.3649
11068WAT    EPW44980   0.951   0.506   0.393 -0.0482  0.3797  0.0607
11069WAT      O44981   4.951   4.724   0.953 -0.1419  0.2284  0.0654
11069WAT     H144982   4.935   4.655   1.003 -1.1012  0.0652 -0.4416
11069WAT     H244983   4.960   4.789   1.010 -2.2287  0.2442  0.4433
11069WAT    EPW44984   4.950   4.723   0.968  0.2710  0.1684 -0.5002
11070WAT      O44985   3.669   4.882   0.668  0.4742  0.4870 -0.1335
11070WAT     H144986   3.668   4.929   0.595  0.6856  0.2503 -0.2893
11070WAT     H244987   3.658   4.800   0.639 -1.4491  0.5702  0.2325
11070WAT    EPW44988   3.667   4.877   0.653 -0.3949  0.1262 -0.0173
11071WAT      O44989   1.496   3.132   0.520 -0.5982  0.2329 -0.1607
11071WAT     H144990   1.573   3.173   0.529 -1.9291  2.7984  0.2416
11071WAT     H244991   1.462   3.166   0.447 -1.8243 -0.0834  0.2358
11071WAT    EPW44992   1.503   3.143   0.510 -0.0935  0.3279  0.0444
11072WAT      O44993   5.549   8.046   5.517 -0.2028 -0.0247  0.2062
11072WAT     H144994   5.621   8.042   5.468 -1.0667  1.4410 -1.3221
11072WAT     H244995   5.535   7.963   5.540  2.4226 -0.2436  1.3350
11072WAT    EPW44996   5.558   8.033   5.513  0.0970 -0.5694  0.3802
11073WAT      O44997   7.885   0.196   3.420 -0.2201  0.3680 -0.2945
11073WAT     H144998   7.914   0.274   3.446  0.6175  0.1956 -0.6711
11073WAT     H244999   7.831   0.171   3.484  0.7247  0.5570  0.6018
11073WAT    EPW45000   7.881   0.204   3.433 -0.3723  0.4728 -0.2217
11074WAT      O45001   5.886   7.151   7.182  0.0034 -0.4841 -0.2352
11074WAT     H145002   5.821   7.164   7.238  0.4557  1.5922 -0.1272
11074WAT     H245003   5.866   7.075   7.144 -2.4458  0.0570 -0.1443
11074WAT    EPW45004   5.874   7.141   7.184 -0.3507  0.1327 -0.3927
11075WAT      O45005   2.958   1.219   6.309  0.2563  0.3472 -0.1843
11075WAT     H145006   2.940   1.155   6.252 -0.4323  1.7556 -1.6405
11075WAT     H245007   2.992   1.176   6.377 -0.0356 -1.5465 -1.1362
11075WAT    EPW45008   2.960   1.203   6.311  0.0081  0.7410  0.1556
11076WAT      O45009   5.999   7.485   4.263  0.3590 -0.2937  0.0710
11076WAT     H145010   5.985   7.405   4.232  1.0156 -0.2070 -0.4870
11076WAT     H245011   5.919   7.516   4.277  0.0914 -0.9169 -0.0417
11076WAT    EPW45012   5.985   7.478   4.260 -0.2665  0.4897 -0.4308
11077WAT      O45013   0.062   5.506   3.035 -0.3936 -0.0295  0.5382
11077WAT     H145014   0.005   5.550   3.085  0.1414  0.8518  0.3924
11077WAT     H245015   0.067   5.428   3.074 -1.5401 -0.0484  0.6720
11077WAT    EPW45016   0.054   5.501   3.049  0.4954 -0.1800 -0.4608
11078WAT      O45017   6.396   0.583   3.117 -0.3398  0.3952 -0.3285
11078WAT     H145018   6.348   0.571   3.045  0.0723  1.1698 -0.7351
11078WAT     H245019   6.386   0.508   3.160 -0.8811  0.0582 -1.0217
11078WAT    EPW45020   6.388   0.570   3.113 -0.2673  0.5096 -0.0724
11079WAT      O45021   2.390   0.707   4.501 -0.4850  0.4400  0.7119
11079WAT     H145022   2.310   0.696   4.467  0.1991  0.8369 -1.1510
11079WAT     H245023   2.390   0.791   4.526  0.3211  1.5043 -2.3471
11079WAT    EPW45024   2.378   0.718   4.499  0.2737  0.2471 -0.2634
11080WAT      O45025   1.991   0.122   5.048  0.2125 -0.4037  0.2505
11080WAT     H145026   1.916   0.082   5.065  0.5072 -0.6029  1.1416
11080WAT     H245027   1.967   0.200   5.020 -0.3310 -0.1779  1.2875
11080WAT    EPW45028   1.976   0.127   5.046 -0.7115  0.0320  0.1337
11081WAT      O45029   2.334   2.813   6.701  0.2766 -0.2521  0.3551
11081WAT     H145030   2.341   2.761   6.771 -1.9423  2.2285  2.6703
11081WAT     H245031   2.287   2.766   6.645  3.4746 -2.9506 -0.3507
11081WAT    EPW45032   2.328   2.798   6.703 -0.2048 -0.5767  0.7099
11082WAT      O45033   4.603   0.932   5.124 -0.4005  0.0736 -0.0778
11082WAT     H145034   4.527   0.890   5.134 -0.7634  0.2701 -1.7146
11082WAT     H245035   4.632   0.903   5.047 -0.1822  2.0432 -0.7928
11082WAT    EPW45036   4.596   0.922   5.114 -0.0227 -0.2512  0.1979
11083WAT      O45037   0.871   7.372   0.863  0.4911 -0.3918  0.2545
11083WAT     H145038   0.929   7.313   0.833  0.3197 -0.2611 -0.3486
11083WAT     H245039   0.910   7.448   0.847 -0.4193 -0.2312 -1.4769
11083WAT    EPW45040   0.885   7.375   0.856 -0.2451  0.2004 -0.0408
11084WAT      O45041   2.656   0.758   6.084  0.2208 -0.0051 -0.2989
11084WAT     H145042   2.657   0.843   6.065 -0.2158 -0.1563 -1.0423
11084WAT     H245043   2.656   0.756   6.171 -1.4126  0.8139 -0.2365
11084WAT    EPW45044   2.656   0.770   6.094 -0.4645  0.4141  0.1805
11085WAT      O45045   2.664   2.135   7.193  0.3082  0.3382 -0.1664
11085WAT     H145046   2.642   2.087   7.123  2.0422  0.0877 -0.5800
11085WAT     H245047   2.745   2.161   7.175  0.1625  1.6993  1.0093
11085WAT    EPW45048   2.673   2.132   7.180  0.0742 -0.0192 -0.3740
11086WAT      O45049   2.849   0.531   7.619 -0.1871  0.0606 -0.4359
11086WAT     H145050   2.816   0.458   7.586  2.6066 -1.4295 -0.2074
11086WAT     H245051   2.779   0.581   7.633 -2.0335 -1.8571 -2.2405
11086WAT    EPW45052   2.834   0.528   7.616 -0.5513  0.4317 -0.2802
11087WAT      O45053   5.083   5.055   3.750 -1.2247 -0.7980  0.1297
11087WAT     H145054   5.145   5.112   3.727  0.2131 -2.8727 -1.5820
11087WAT     H245055   5.063   5.078   3.832 -0.3854  1.7731 -0.2866
11087WAT    EPW45056   5.089   5.067   3.759 -0.0917 -0.2086 -0.5430
11088WAT      O45057   3.551   7.806   0.957 -0.3495  0.0384 -0.4327
11088WAT     H145058   3.476   7.845   0.980 -0.4438  0.2022 -1.0064
11088WAT     H245059   3.567   7.752   1.024  0.1205  1.5064  0.7120
11088WAT    EPW45060   3.543   7.804   0.970  0.3030  0.2288 -0.3646
11089WAT      O45061   3.227   2.785   1.384  0.5934  0.7496  0.3964
11089WAT     H145062   3.279   2.762   1.318  0.1141  0.8737 -0.0357
11089WAT     H245063   3.259   2.742   1.453  0.5238 -0.1373 -0.1159
11089WAT    EPW45064   3.239   2.775   1.385 -0.5181  0.2062 -0.4917
11090WAT      O45065   0.365   0.027   3.568 -0.4484  0.7182 -0.5155
11090WAT     H145066   0.405   0.047   3.642  1.0588 -2.1458 -0.4014
11090WAT     H245067   0.386   0.092   3.514  4.6280 -0.4811 -0.4573
11090WAT    EPW45068   0.374   0.039   3.571  0.9703  0.5694 -0.2480
11091WAT      O45069   0.287   7.906   1.771 -0.1306 -0.2900  0.0602
11091WAT     H145070   0.326   7.919   1.848  0.0410  1.1811 -0.2445
11091WAT     H245071   0.256   7.825   1.777  1.4486 -0.8625  0.9788
11091WAT    EPW45072   0.288   7.896   1.783 -0.4500 -0.1331 -0.3669
11092WAT      O45073   2.967   0.448   6.781  0.1773  0.2886 -0.5359
11092WAT     H145074   2.965   0.506   6.716  1.7906 -1.0770 -1.8850
11092WAT     H245075   3.052   0.433   6.793 -0.1644 -2.4453 -0.9064
11092WAT    EPW45076   2.979   0.454   6.773 -0.4188  0.1058  0.4652
11093WAT      O45077   7.954   0.945   4.248  0.0854  0.3153  0.1033
11093WAT     H145078   8.019   0.914   4.297  2.4515  4.8073  0.3228
11093WAT     H245079   7.892   0.963   4.307  0.4024  0.0132  0.5419
11093WAT    EPW45080   7.954   0.943   4.264 -0.1021 -0.0723  0.1573
11094WAT      O45081   4.894   2.694   7.757  0.3220 -0.0967  0.0408
11094WAT     H145082   4.889   2.650   7.833 -1.6830  0.2911  0.1826
11094WAT     H245083   4.818   2.677   7.718  1.4347 -0.5596 -2.0923
11094WAT    EPW45084   4.882   2.685   7.763  0.3048 -0.5738  0.1700
11095WAT      O45085   6.493   1.174   3.810  0.3042 -0.5140 -0.7575
11095WAT     H145086   6.540   1.110   3.774  2.0971  0.2205  0.1567
11095WAT     H245087   6.552   1.237   3.826 -0.7766  0.0375  1.4531
11095WAT    EPW45088   6.508   1.174   3.807  0.5162 -0.0632  0.0495
11096WAT      O45089   4.026   7.375   3.925  0.4066  0.7328 -0.1179
11096WAT     H145090   3.976   7.306   3.901 -0.8113  0.8408  1.8952
11096WAT     H245091   3.980   7.443   3.895 -0.9116  0.8468  1.9607
11096WAT    EPW45092   4.012   7.375   3.917 -0.0162 -0.3795 -0.1265
11097WAT      O45093   2.488   3.404   1.542  0.1293  0.0393 -0.0043
11097WAT     H145094   2.492   3.322   1.572 -0.2362 -0.5714 -1.5298
11097WAT     H245095   2.402   3.421   1.539  0.2162  0.8879  1.2545
11097WAT    EPW45096   2.476   3.395   1.546  0.3328  0.1327  0.1523
11098WAT      O45097   6.856   1.719   2.344  0.0857 -0.7696  0.0191
11098WAT     H145098   6.909   1.649   2.347  1.6384  0.3710  0.2772
11098WAT     H245099   6.837   1.734   2.428 -1.1945 -1.5458 -0.1127
11098WAT    EPW45100   6.861   1.711   2.357 -0.3923  0.1758  0.4356
11099WAT      O45101   3.415   0.235   3.008 -0.0801 -0.1559 -1.0342
11099WAT     H145102   3.347   0.221   2.955 -1.2127 -2.1824  0.7774
11099WAT     H245103   3.466   0.165   2.995  1.0000  0.6669 -1.3651
11099WAT    EPW45104   3.412   0.223   2.998  0.4657  0.4616  0.4375
11100WAT      O45105   2.148   6.859   2.174 -0.4058 -0.0583  0.2305
11100WAT     H145106   2.148   6.945   2.190  0.8928  0.1837 -0.8457
11100WAT     H245107   2.079   6.849   2.121 -0.1718  0.4521 -0.1847
11100WAT    EPW45108   2.138   6.870   2.168  0.2882 -0.0891 -0.1541
11101WAT      O45109   3.666   2.035   1.696 -0.0269  0.4198 -0.4017
11101WAT     H145110   3.729   2.087   1.726  1.2557 -1.2829 -0.0201
11101WAT     H245111   3.696   2.010   1.618  0.9823 -2.2613  0.7475
11101WAT    EPW45112   3.680   2.039   1.689  0.2295 -0.4359 -0.7547
11102WAT      O45113   0.410   1.320   3.037 -0.0952  0.2504  0.1479
11102WAT     H145114   0.366   1.247   3.054 -0.8706  0.4968 -0.7433
11102WAT     H245115   0.386   1.374   3.101  0.0952 -0.0958  0.5234
11102WAT    EPW45116   0.400   1.317   3.049 -0.0134  0.2796  0.1141
11103WAT      O45117   7.752   3.985   2.304 -1.0840 -0.7468 -0.0651
11103WAT     H145118   7.719   4.050   2.351  0.1221 -0.0092 -0.1708
11103WAT     H245119   7.687   3.963   2.250 -1.1528  1.2573 -0.9042
11103WAT    EPW45120   7.738   3.992   2.303  0.7432  0.1987  0.2815
11104WAT      O45121   0.932   3.699   3.607 -0.1297 -0.2982  0.3304
11104WAT     H145122   0.869   3.663   3.656  0.6846  1.3550  2.8235
11104WAT     H245123   1.005   3.679   3.650  0.7023  0.7543 -0.5419
11104WAT    EPW45124   0.933   3.691   3.621  0.3420  0.6439 -0.1408
11105WAT      O45125   0.475   2.635   2.889 -0.0464 -0.5651 -0.3067
11105WAT     H145126   0.427   2.671   2.953  0.5793 -0.1328 -0.0754
11105WAT     H245127   0.489   2.702   2.835  0.6185 -0.5967 -0.1788
11105WAT    EPW45128   0.470   2.650   2.891  0.5561  0.2439 -0.0430
11106WAT      O45129   4.137   7.178   3.680 -0.1747 -0.3948 -0.4238
11106WAT     H145130   4.151   7.263   3.669  0.2414 -0.4441 -0.2722
11106WAT     H245131   4.063   7.164   3.636 -1.7321  0.5540  1.6907
11106WAT    EPW45132   4.128   7.188   3.672  0.1402  0.5660  0.1120
11107WAT      O45133   3.181   3.688   6.829 -0.3707  0.5547 -0.0464
11107WAT     H145134   3.183   3.604   6.851  0.0017  0.6097  0.1378
11107WAT     H245135   3.253   3.721   6.866  0.7659  0.4667 -2.0374
11107WAT    EPW45136   3.192   3.681   6.838  0.4581  0.3105  0.1406
11108WAT      O45137   7.246   0.623   4.076 -0.1824  0.6769  0.1768
11108WAT     H145138   7.312   0.572   4.100 -1.2462 -0.6464  0.4553
11108WAT     H245139   7.176   0.584   4.111 -1.5343  0.0496 -2.8161
11108WAT    EPW45140   7.245   0.610   4.084  0.2153  0.3042  0.4217
11109WAT      O45141   3.804   7.356   6.565  0.0147 -0.0727  0.5925
11109WAT     H145142   3.840   7.386   6.492  0.8751 -0.2789  0.9174
11109WAT     H245143   3.870   7.319   6.607 -0.7195 -1.0849  0.9080
11109WAT    EPW45144   3.819   7.355   6.561  0.6401 -0.1181  0.1621
11110WAT      O45145   0.532   3.727   3.170  0.0511  0.0804 -0.2855
11110WAT     H145146   0.521   3.705   3.087 -3.6690 -2.1522  0.5800
11110WAT     H245147   0.561   3.654   3.207 -2.8433 -0.5544  1.0116
11110WAT    EPW45148   0.535   3.713   3.163 -0.5306 -0.3899  0.2996
11111WAT      O45149   4.834   2.491   6.176  0.1146  0.6570  0.5087
11111WAT     H145150   4.878   2.416   6.168 -1.1780 -0.0416 -0.6742
11111WAT     H245151   4.873   2.531   6.242  1.5986 -0.5309  0.4116
11111WAT    EPW45152   4.846   2.486   6.184 -0.2079  0.3071  0.4677
11112WAT      O45153   0.367   6.284   3.119 -0.0255  0.0079  0.1031
11112WAT     H145154   0.383   6.230   3.185  0.5235  1.3529  1.0971
11112WAT     H245155   0.444   6.320   3.102  0.7520 -2.8174 -3.6893
11112WAT    EPW45156   0.381   6.281   3.126  0.1288  0.2234  0.7861
11113WAT      O45157   3.032   0.989   3.460 -0.8814  0.4895  0.1670
11113WAT     H145158   3.053   1.047   3.521  1.9259  0.8809 -1.0534
11113WAT     H245159   3.029   0.914   3.504  1.2253  0.7296  0.8096
11113WAT    EPW45160   3.034   0.987   3.476 -0.0334  0.3190  0.2013
11114WAT      O45161   2.309   3.178   2.706  0.2718  1.0585  0.1548
11114WAT     H145162   2.347   3.192   2.783  0.0112  2.8745 -0.0031
11114WAT     H245163   2.339   3.100   2.683  1.0369  0.8462  1.6908
11114WAT    EPW45164   2.319   3.169   2.714 -0.3439  0.3868 -0.2202
11115WAT      O45165   2.250   1.912   4.687  0.8211 -0.2553 -0.0720
11115WAT     H145166   2.226   1.978   4.739  0.8533 -0.5650  0.3464
11115WAT     H245167   2.223   1.842   4.731 -1.6151 -0.4583 -1.7104
11115WAT    EPW45168   2.242   1.912   4.701  0.0926 -0.0686  0.3125
11116WAT      O45169   4.513   2.035   5.351  0.4755  0.2974  0.0643
11116WAT     H145170   4.595   2.007   5.338 -0.3001 -1.9414 -0.4199
11116WAT     H245171   4.479   2.038   5.270 -0.8436 -1.9961  0.4738
11116WAT    EPW45172   4.520   2.032   5.337  0.0683 -0.3728  0.0106
11117WAT      O45173   0.753   3.998   2.408 -0.6233 -0.8468  0.0353
11117WAT     H145174   0.741   4.009   2.322 -0.0456 -0.7712 -0.0376
11117WAT     H245175   0.683   3.951   2.432 -0.2524 -1.8117 -0.6777
11117WAT    EPW45176   0.741   3.992   2.399 -0.1102  0.0866 -0.2857
11118WAT      O45177   2.774   3.884   3.577 -0.4003  0.6768 -0.2718
11118WAT     H145178   2.776   3.969   3.559 -0.0821  0.6475 -0.3798
11118WAT     H245179   2.802   3.880   3.660  0.3630  0.6060 -0.5315
11118WAT    EPW45180   2.778   3.896   3.587  0.3035  0.2533 -0.1698
11119WAT      O45181   2.377   2.268   1.776 -0.0679 -0.1291 -0.1006
11119WAT     H145182   2.349   2.247   1.696 -1.1187 -1.3429  0.5430
11119WAT     H245183   2.339   2.345   1.792 -0.7042 -0.3757 -0.3750
11119WAT    EPW45184   2.367   2.276   1.767  0.0955  0.7052 -0.2550
11120WAT      O45185   0.371   4.797   3.496 -0.4967  0.1923 -0.8380
11120WAT     H145186   0.366   4.732   3.553  1.0029  1.5383  0.9644
11120WAT     H245187   0.455   4.798   3.473 -0.8176  0.4956 -2.1010
11120WAT    EPW45188   0.383   4.787   3.501 -0.2509  0.6525 -0.3833
11121WAT      O45189   4.272   4.496   1.314 -0.3082  0.3841 -0.0786
11121WAT     H145190   4.202   4.528   1.356 -0.5572 -0.5605  0.2673
11121WAT     H245191   4.335   4.498   1.375 -0.5353 -0.5076  0.2015
11121WAT    EPW45192   4.271   4.501   1.329 -0.1844  0.0551  0.3981
11122WAT      O45193   3.940   2.807   3.137  0.5381  0.1404 -0.5387
11122WAT     H145194   3.913   2.828   3.057  0.2265 -1.1514 -0.8005
11122WAT     H245195   3.871   2.767   3.172  0.6680  0.7075  0.3872
11122WAT    EPW45196   3.926   2.804   3.131 -0.2304 -0.9039 -0.3798
11123WAT      O45197   3.061   6.134   4.726  0.6530  0.2380  0.0730
11123WAT     H145198   3.014   6.083   4.778  0.4228  0.7844  0.4177
11123WAT     H245199   3.136   6.145   4.771  0.6192  0.3679  0.0994
11123WAT    EPW45200   3.065   6.128   4.741 -0.2089  0.0506 -0.5762
11124WAT      O45201   0.275   3.819   4.839 -0.4046 -0.3616  0.0806
11124WAT     H145202   0.299   3.771   4.908  2.2341  0.2753 -0.2723
11124WAT     H245203   0.232   3.763   4.788 -1.5949 -1.0830  1.7595
11124WAT    EPW45204   0.272   3.804   4.842  0.0909  0.2658  0.2151
11125WAT      O45205   1.669   1.627   3.569  0.2611  0.3972 -0.9827
11125WAT     H145206   1.671   1.660   3.649 -0.8450  1.3664 -1.3350
11125WAT     H245207   1.670   1.541   3.582  0.6850  0.5468  0.0374
11125WAT    EPW45208   1.670   1.619   3.582 -0.6347 -0.5119 -0.2093
11126WAT      O45209   7.578   2.535   2.220 -0.3049 -0.4549  0.5279
11126WAT     H145210   7.577   2.622   2.225  0.1767 -0.3365 -0.8014
11126WAT     H245211   7.497   2.514   2.198 -0.4368 -0.3452  0.9111
11126WAT    EPW45212   7.566   2.545   2.218  0.4672 -0.1451  0.0880
11127WAT      O45213   4.710   5.226   7.147 -0.1066  0.0908  0.0138
11127WAT     H145214   4.711   5.220   7.234 -0.4743 -1.0548 -0.0380
11127WAT     H245215   4.725   5.145   7.121 -1.4292  0.1175 -0.9684
11127WAT    EPW45216   4.712   5.213   7.156 -0.3601 -0.6995 -0.5141
11128WAT      O45217   2.596   4.125   1.773  0.1710 -0.0890 -0.0279
11128WAT     H145218   2.641   4.173   1.830 -0.2695  2.0834 -1.4354
11128WAT     H245219   2.658   4.091   1.721  0.4066 -0.1903  0.3137
11128WAT    EPW45220   2.612   4.127   1.774 -0.1018  0.0481 -0.1762
11129WAT      O45221   5.987   2.467   5.514  0.1508  0.0742  0.4065
11129WAT     H145222   5.963   2.418   5.582  2.1129  1.5513  2.2848
11129WAT     H245223   5.963   2.547   5.537 -0.7807  0.4119 -1.5222
11129WAT    EPW45224   5.980   2.471   5.527 -0.5119 -0.2785 -0.5191
11130WAT      O45225   1.893   6.307   4.932  0.0538 -0.0734 -0.1817
11130WAT     H145226   1.830   6.301   4.871 -0.0241  0.0579 -0.1129
11130WAT     H245227   1.881   6.235   4.980 -0.0787 -0.0185 -0.1339
11130WAT    EPW45228   1.882   6.295   4.930  0.0563 -0.4913 -0.5344
11131WAT      O45229   1.830   7.768   1.652  0.5559 -0.1623  0.0659
11131WAT     H145230   1.855   7.846   1.625  0.9972 -0.7375 -1.2799
11131WAT     H245231   1.803   7.729   1.579 -1.5914 -0.5762  1.0093
11131WAT    EPW45232   1.830   7.773   1.637 -0.4208  1.2088  0.3666
11132WAT      O45233   5.010   7.144   2.106 -0.7188  0.3941 -0.8727
11132WAT     H145234   4.979   7.076   2.061 -0.5134 -0.0586 -0.3501
11132WAT     H245235   4.973   7.213   2.068 -2.6156 -0.1204 -0.0964
11132WAT    EPW45236   5.000   7.144   2.094  0.8089  0.0810 -0.4220
11133WAT      O45237   1.437   2.111   1.044  0.4457 -0.7530 -0.5552
11133WAT     H145238   1.461   2.116   0.960 -0.1992 -0.2659 -0.7163
11133WAT     H245239   1.357   2.147   1.045  0.3626 -0.9409  0.2325
11133WAT    EPW45240   1.429   2.117   1.032 -0.1334  0.9224  0.2725
11134WAT      O45241   7.845   0.589   4.336 -0.0937 -0.5081 -0.7362
11134WAT     H145242   7.801   0.635   4.395 -1.3461 -0.9982 -1.2416
11134WAT     H245243   7.827   0.630   4.261  0.7280 -0.4283 -0.8982
11134WAT    EPW45244   7.836   0.601   4.333 -0.4609  0.2109  0.0448
11135WAT      O45245   1.892   1.001   6.121  0.1972 -0.6021 -0.7533
11135WAT     H145246   1.861   1.024   6.199  0.7695 -0.5359 -0.5402
11135WAT     H245247   1.965   0.958   6.140  1.7471  1.6071 -1.3153
11135WAT    EPW45248   1.898   0.998   6.135 -0.4898 -0.0694  0.5017
11136WAT      O45249   3.228   2.224   2.874 -0.0080  0.1631  0.1877
11136WAT     H145250   3.276   2.152   2.865 -1.5809 -0.9193 -0.0294
11136WAT     H245251   3.239   2.246   2.957  0.4120 -0.4065  0.2907
11136WAT    EPW45252   3.236   2.216   2.885  0.2430  0.1971 -0.1028
11137WAT      O45253   7.735   1.242   3.987 -0.1548  0.0032  0.0728
11137WAT     H145254   7.688   1.316   3.978 -1.0698 -0.6691 -0.9092
11137WAT     H245255   7.745   1.214   3.905  0.4032 -0.8450  0.4192
11137WAT    EPW45256   7.729   1.249   3.974 -0.4164  0.2094 -0.0960
11138WAT      O45257   7.999   2.829   3.966 -0.6183 -0.1702 -0.2709
11138WAT     H145258   8.053   2.789   3.910  0.8745 -0.6114  1.3906
11138WAT     H245259   8.019   2.914   3.957 -0.5130 -0.2245 -0.5414
11138WAT    EPW45260   8.010   2.836   3.957 -0.7401  0.0214  0.1438
11139WAT      O45261   4.973   4.406   0.292 -0.1740 -0.6578  0.0674
11139WAT     H145262   4.931   4.375   0.362  0.1708 -1.7040 -0.1778
11139WAT     H245263   5.050   4.432   0.325 -0.3927 -0.2143  0.2410
11139WAT    EPW45264   4.978   4.405   0.308  0.6505 -0.3131  0.1065
11140WAT      O45265   1.282   4.187   2.480 -0.2519 -0.2363 -0.2631
11140WAT     H145266   1.366   4.166   2.487  0.0060  0.8320  0.0211
11140WAT     H245267   1.258   4.152   2.403  0.2932 -1.0296 -0.0778
11140WAT    EPW45268   1.291   4.179   2.469 -0.4455  0.0046  0.5744
11141WAT      O45269   1.080   2.858   2.042 -0.8874  0.5087  0.2390
11141WAT     H145270   1.034   2.914   1.993  0.7153  2.3306  0.6920
11141WAT     H245271   1.158   2.896   2.048  0.8981 -2.7039 -0.9134
11141WAT    EPW45272   1.084   2.872   2.036 -0.3419 -0.0960 -0.1771
11142WAT      O45273   3.228   4.987   3.679 -0.1179  0.6031 -0.1332
11142WAT     H145274   3.188   4.930   3.731 -0.6643  2.4889  1.6446
11142WAT     H245275   3.313   4.971   3.692 -0.2234 -0.8225 -0.9352
11142WAT    EPW45276   3.235   4.976   3.688  0.3592 -0.2923  0.0620
11143WAT      O45277   0.973   6.355   3.154 -0.2882  0.1850  0.0683
11143WAT     H145278   0.924   6.412   3.198  1.5806  1.6812  0.3425
11143WAT     H245279   0.986   6.394   3.078 -1.6453 -1.4019 -1.0510
11143WAT    EPW45280   0.968   6.369   3.150 -0.3934 -0.2624  0.2235
11144WAT      O45281   3.196   3.483   2.247  0.4289 -0.4232  0.1526
11144WAT     H145282   3.226   3.521   2.174 -1.3942  0.6764 -0.0610
11144WAT     H245283   3.236   3.405   2.246 -1.1441 -1.3938 -3.2277
11144WAT    EPW45284   3.207   3.477   2.236 -0.1892 -0.4949 -0.2958
11145WAT      O45285   1.661   5.726   2.071  0.0606 -0.2206 -0.1574
11145WAT     H145286   1.576   5.727   2.087  0.3073 -2.0676  1.7368
11145WAT     H245287   1.669   5.666   2.008 -0.0937  0.7028 -1.0847
11145WAT    EPW45288   1.650   5.717   2.064  0.3709 -0.5105  0.1177
11146WAT      O45289   2.649   7.505   2.255  0.1662  0.5301  0.1387
11146WAT     H145290   2.574   7.525   2.214  0.1783 -0.1143 -0.2181
11146WAT     H245291   2.678   7.435   2.211  0.7486  0.5023  0.5583
11146WAT    EPW45292   2.642   7.497   2.243 -0.7396 -0.8754  0.6136
11147WAT      O45293   5.087   5.148   0.736  0.6573  0.0554 -0.0001
11147WAT     H145294   5.068   5.232   0.717 -2.3922  0.0060  2.1387
11147WAT     H245295   5.046   5.104   0.673  0.7829  0.1348 -0.1388
11147WAT    EPW45296   5.078   5.154   0.724  0.2439 -0.5625  0.3460
11148WAT      O45297   3.695   2.884   0.968  0.5446 -0.3049 -0.3360
11148WAT     H145298   3.744   2.823   0.929  0.2494 -1.1067  0.5059
11148WAT     H245299   3.625   2.891   0.917  1.4028  0.6775 -1.4230
11148WAT    EPW45300   3.692   2.876   0.955  0.2780  0.4711  0.2919
11149WAT      O45301   7.638   4.849   1.397  0.6413 -0.0290 -0.5167
11149WAT     H145302   7.695   4.915   1.389  1.7734 -0.8873  0.2443
11149WAT     H245303   7.630   4.840   1.484  0.5567 -0.9480 -0.6126
11149WAT    EPW45304   7.645   4.858   1.409 -0.2995  0.2954  0.4058
11150WAT      O45305   1.677   2.337   5.690  0.6537 -0.2917 -0.5604
11150WAT     H145306   1.628   2.371   5.754 -1.5061 -0.9414 -1.7368
11150WAT     H245307   1.696   2.257   5.719  1.2272  0.0444  0.0028
11150WAT    EPW45308   1.672   2.330   5.704  0.2707  0.4150 -1.1124
11151WAT      O45309   2.649   5.085   1.625 -0.3183 -0.6488 -0.6556
11151WAT     H145310   2.571   5.089   1.662 -1.0116 -2.4995 -1.7777
11151WAT     H245311   2.686   5.162   1.645 -1.8095 -0.3556  1.1752
11151WAT    EPW45312   2.643   5.097   1.633 -0.1071  0.4814  0.3039
11152WAT      O45313   6.833   4.480   4.572 -1.0545  0.2494 -0.1885
11152WAT     H145314   6.784   4.414   4.543 -1.7186  1.4789 -2.0748
11152WAT     H245315   6.775   4.536   4.606 -0.5736  0.1813  0.7778
11152WAT    EPW45316   6.818   4.479   4.573  0.5140 -0.1288  0.2894
11153WAT      O45317   2.202   3.572   5.597 -0.2165  0.4589 -0.6849
11153WAT     H145318   2.155   3.579   5.671 -2.6006 -0.1222 -2.0401
11153WAT     H245319   2.237   3.493   5.602  0.2150  0.6845  0.0997
11153WAT    EPW45320   2.200   3.561   5.609 -0.3611 -0.0065  0.3652
11154WAT      O45321   4.388   0.404   3.451 -0.2395 -0.2461  0.6341
11154WAT     H145322   4.451   0.358   3.412 -0.0593  0.9697 -0.5661
11154WAT     H245323   4.412   0.487   3.438 -2.2689  0.2670 -0.1628
11154WAT    EPW45324   4.401   0.409   3.443  0.2414 -0.0232  0.1413
11155WAT      O45325   4.224   6.697   0.856 -0.1994  0.5652  0.1447
11155WAT     H145326   4.193   6.765   0.811 -0.3044  0.4349  0.0197
11155WAT     H245327   4.185   6.629   0.819 -0.4374  0.4736  0.5692
11155WAT    EPW45328   4.214   6.697   0.844  0.2344  0.1816 -0.2820
11156WAT      O45329   2.614   5.859   6.061  0.3099 -0.4450 -0.5815
11156WAT     H145330   2.532   5.882   6.079  0.4274 -0.3363 -0.1757
11156WAT     H245331   2.626   5.886   5.979 -0.4197 -1.4390 -1.0413
11156WAT    EPW45332   2.604   5.866   6.052 -0.1385  0.3370 -0.5091
11157WAT      O45333   3.802   0.408   7.813 -0.2728 -0.3985  0.6845
11157WAT     H145334   3.864   0.428   7.755  0.0000  2.1612  1.7597
11157WAT     H245335   3.788   0.323   7.799  2.9216 -0.9141 -0.1211
11157WAT    EPW45336   3.809   0.398   7.802  0.3902 -0.2890 -0.3993
11158WAT      O45337   1.934   5.752   3.468  0.4296 -0.5674  0.5004
11158WAT     H145338   1.942   5.768   3.553 -0.1769 -1.4758  0.7502
11158WAT     H245339   2.014   5.767   3.436  0.7568 -0.5690  1.2970
11158WAT    EPW45340   1.947   5.756   3.476  0.6808 -0.1090 -0.6467
11159WAT      O45341   1.753   7.413   1.508  0.0431 -0.0726 -0.7037
11159WAT     H145342   1.819   7.433   1.563  0.6170  0.2418 -1.4891
11159WAT     H245343   1.698   7.481   1.517 -0.3552 -0.4984  0.2056
11159WAT    EPW45344   1.755   7.426   1.518  0.2650 -0.3892 -0.0371
11160WAT      O45345   0.129   5.058   2.479 -0.4739  0.5522 -0.3835
11160WAT     H145346   0.190   5.055   2.542 -0.9040  0.1436  0.0266
11160WAT     H245347   0.055   5.041   2.522 -0.6859 -0.4807 -1.1185
11160WAT    EPW45348   0.127   5.055   2.495  0.1165 -0.2622 -0.1039
11161WAT      O45349   2.534   0.667   3.035  0.5957  0.0704 -0.2234
11161WAT     H145350   2.562   0.590   3.007  0.6468 -0.0081  0.0372
11161WAT     H245351   2.542   0.661   3.122 -0.7377 -0.1518 -0.0899
11161WAT    EPW45352   2.539   0.655   3.044  0.4974  0.0702 -0.0397
11162WAT      O45353   5.348   7.986   1.893 -0.5774 -0.1972 -0.3404
11162WAT     H145354   5.367   8.009   1.812  1.8586 -1.5956 -0.2642
11162WAT     H245355   5.419   7.943   1.920 -1.6932 -0.6859  2.1805
11162WAT    EPW45356   5.361   7.983   1.885 -0.5752  0.4776  0.5796
11163WAT      O45357   1.771   3.464   7.157 -0.1020  0.0868 -0.1671
11163WAT     H145358   1.713   3.530   7.155  2.4956  2.5836 -2.9909
11163WAT     H245359   1.738   3.407   7.100 -1.1073  0.1136  0.3551
11163WAT    EPW45360   1.757   3.465   7.149 -0.5249 -0.0481  0.0045
11164WAT      O45361   2.119   4.361   7.876 -0.2324  0.2324  0.1450
11164WAT     H145362   2.100   4.340   7.794 -1.0822  2.2996 -0.2586
11164WAT     H245363   2.041   4.365   7.915  0.1590 -0.6773  1.0601
11164WAT    EPW45364   2.105   4.358   7.869  0.0943 -0.5302  0.6869
11165WAT      O45365   1.975   1.428   3.515  0.5255 -0.1150 -0.1932
11165WAT     H145366   1.931   1.357   3.491  1.1702 -0.6702  0.2334
11165WAT     H245367   2.030   1.442   3.449 -1.7660  1.9510 -1.8548
11165WAT    EPW45368   1.976   1.420   3.502  0.4986  0.3158 -0.1894
11166WAT      O45369   1.856   3.487   4.925 -0.6908 -0.2252 -0.3788
11166WAT     H145370   1.891   3.507   5.002  1.6325  0.1707 -1.4676
11166WAT     H245371   1.811   3.559   4.904 -2.6916 -0.8923  1.2154
11166WAT    EPW45372   1.854   3.501   4.933 -0.9791  0.0688  0.0842
11167WAT      O45373   3.062   1.754   5.984  0.0504 -0.1513  0.1496
11167WAT     H145374   3.023   1.828   5.958  1.9956  0.8157 -0.1555
11167WAT     H245375   3.059   1.704   5.913  0.1584  0.2635 -0.1516
11167WAT    EPW45376   3.056   1.758   5.970 -0.8228 -0.1473  0.2243
11168WAT      O45377   2.477   1.523   2.581  0.6870 -0.3123 -0.0588
11168WAT     H145378   2.490   1.528   2.667 -1.2662  1.3793  0.2157
11168WAT     H245379   2.497   1.603   2.552 -0.9517 -0.1156 -0.7647
11168WAT    EPW45380   2.482   1.535   2.590  0.4435 -0.2140 -0.0360
11169WAT      O45381   0.897   0.695   4.816 -0.2126 -0.1560 -0.7321
11169WAT     H145382   0.939   0.747   4.872 -0.8471 -0.1102 -0.2952
11169WAT     H245383   0.938   0.710   4.740  1.5413 -1.1666 -0.0623
11169WAT    EPW45384   0.910   0.705   4.813 -0.2865  0.3390 -0.9940
11170WAT      O45385   1.782   2.298   1.068 -0.0268  0.2736 -0.2476
11170WAT     H145386   1.704   2.337   1.067  0.0635  0.6373  2.2805
11170WAT     H245387   1.762   2.214   1.053 -0.9146  0.3584  0.3619
11170WAT    EPW45388   1.767   2.291   1.066  0.3458 -0.0569 -0.6448
11171WAT      O45389   7.480   1.487   1.460 -0.4071  0.1406  0.2221
11171WAT     H145390   7.478   1.420   1.404  0.4937  0.6673 -0.4502
11171WAT     H245391   7.547   1.468   1.512 -1.4553 -0.5303  1.3994
11171WAT    EPW45392   7.490   1.474   1.460  0.6693  0.0741 -0.1577
11172WAT      O45393   0.130   3.811   2.543 -0.0931  0.0061  0.1352
11172WAT     H145394   0.211   3.781   2.549 -0.1619  0.0195  1.3486
11172WAT     H245395   0.107   3.793   2.460 -0.2822 -3.6727  0.8209
11172WAT    EPW45396   0.138   3.804   2.531  0.2070  0.1374 -0.3905
11173WAT      O45397   4.252   2.897   2.687  0.5876 -0.4465  0.0614
11173WAT     H145398   4.171   2.879   2.659  0.2396 -0.0068  0.7825
11173WAT     H245399   4.244   2.902   2.773  1.0418  1.2096  0.0505
11173WAT    EPW45400   4.239   2.895   2.695  0.1621  0.5241 -0.7666
11174WAT      O45401   0.878   4.782   2.130 -0.0317 -0.3741 -0.1891
11174WAT     H145402   0.923   4.801   2.058  0.0894 -0.5744 -0.1652
11174WAT     H245403   0.807   4.832   2.123  1.5476  2.3028  1.2353
11174WAT    EPW45404   0.874   4.792   2.119 -0.1711 -0.3427  0.2749
11175WAT      O45405   1.620   4.750   2.941 -0.2361 -0.3132 -0.7228
11175WAT     H145406   1.674   4.716   3.001 -1.1156 -0.9286 -0.2414
11175WAT     H245407   1.565   4.798   2.989 -2.6858 -3.0037 -0.5785
11175WAT    EPW45408   1.620   4.752   2.957 -0.5249 -0.1341  0.1307
11176WAT      O45409   1.474   2.858   1.603  0.6137  0.2598 -0.2482
11176WAT     H145410   1.470   2.798   1.666 -0.4124  0.0133 -0.5289
11176WAT     H245411   1.489   2.811   1.531  0.1114  0.3735 -0.4264
11176WAT    EPW45412   1.476   2.842   1.601 -0.4740 -0.5475 -0.1061
11177WAT      O45413   6.326   2.269   1.151  0.0735 -0.1415 -0.3102
11177WAT     H145414   6.301   2.205   1.204  1.4858 -1.6456 -1.3505
11177WAT     H245415   6.259   2.325   1.152 -0.8239 -1.1987  1.3181
11177WAT    EPW45416   6.313   2.268   1.159  0.3366 -0.1082 -0.2944
11178WAT      O45417   1.769   2.641   4.333  0.7509  0.0241  0.1460
11178WAT     H145418   1.713   2.578   4.353  0.5716 -0.2379 -1.1081
11178WAT     H245419   1.815   2.651   4.406  0.7622 -1.5272  0.3868
11178WAT    EPW45420   1.767   2.633   4.346 -0.2126  0.2087  0.4155
11179WAT      O45421   3.513   0.854   1.794 -0.1331  0.2686 -0.5160
11179WAT     H145422   3.566   0.913   1.757  0.4628 -0.1194 -0.2966
11179WAT     H245423   3.458   0.902   1.841  1.3673  0.5986  0.9854
11179WAT    EPW45424   3.513   0.870   1.796  0.7740 -0.0610 -0.1943
11180WAT      O45425   1.522   4.168   0.871  0.1444  0.4489  0.4894
11180WAT     H145426   1.590   4.211   0.838  0.9491 -0.7652  0.4960
11180WAT     H245427   1.515   4.099   0.819 -1.8837  1.1628 -0.2550
11180WAT    EPW45428   1.531   4.164   0.859 -0.4444 -0.5416  0.6239
11181WAT      O45429   3.550   5.078   1.974  0.4351  0.6016 -0.6489
11181WAT     H145430   3.604   5.146   1.985  0.7608  0.0322  1.5529
11181WAT     H245431   3.555   5.035   2.049 -2.6776  0.2060 -0.5387
11181WAT    EPW45432   3.558   5.082   1.986  0.0002  0.0666  0.3391
11182WAT      O45433   0.497   3.134   4.579  0.6259  0.1050 -0.1477
11182WAT     H145434   0.547   3.097   4.640 -0.9819 -0.9683  0.6085
11182WAT     H245435   0.422   3.089   4.585  0.1754  0.4540 -2.4447
11182WAT    EPW45436   0.493   3.122   4.589 -0.5507  0.0069 -0.2692
11183WAT      O45437   2.486   0.957   5.431 -0.1202 -0.1541 -0.0067
11183WAT     H145438   2.409   0.941   5.393  0.1812 -0.4380 -0.5078
11183WAT     H245439   2.465   1.009   5.498 -0.6449  0.4315 -0.6086
11183WAT    EPW45440   2.472   0.962   5.435  0.4052 -1.1118 -0.1567
11184WAT      O45441   5.936   1.197   2.989  0.4513 -0.5869 -0.2299
11184WAT     H145442   5.878   1.232   3.043  0.3293 -2.3231  0.8283
11184WAT     H245443   5.887   1.160   2.927  0.5215 -0.4316 -0.3824
11184WAT    EPW45444   5.921   1.197   2.988 -0.0925  0.2491  0.1614
11185WAT      O45445   2.937   2.434   6.947  0.1985  0.0844 -0.8287
11185WAT     H145446   2.856   2.458   6.967 -0.3038 -1.9002 -0.3102
11185WAT     H245447   2.928   2.398   6.868  0.3948 -0.9144 -0.4088
11185WAT    EPW45448   2.924   2.432   6.938  0.1049  0.1615 -0.6463
11186WAT      O45449   6.156   7.685   7.226  0.3129  0.0935  0.1764
11186WAT     H145450   6.146   7.681   7.313 -0.0666  0.8738  0.1702
11186WAT     H245451   6.101   7.624   7.197  0.9445 -0.6553  0.5090
11186WAT    EPW45452   6.146   7.675   7.235  0.4094  0.3312 -0.0668
11187WAT      O45453   3.339   1.623   1.718  0.7634 -0.4146 -0.7620
11187WAT     H145454   3.273   1.673   1.745  0.4608 -0.9681 -0.4340
11187WAT     H245455   3.356   1.572   1.787  2.1643  0.3332 -0.5209
11187WAT    EPW45456   3.332   1.623   1.732  0.1773 -0.1480 -0.1813
11188WAT      O45457   7.870   6.543   2.968 -0.1703 -0.2038  0.2358
11188WAT     H145458   7.797   6.589   2.958 -0.6320 -0.5228  1.8056
11188WAT     H245459   7.923   6.599   3.009  0.0195 -0.3757  0.2234
11188WAT    EPW45460   7.867   6.558   2.973 -0.4700  0.6256  0.1068
11189WAT      O45461   1.331   3.122   3.835 -0.2061  0.5744  0.2074
11189WAT     H145462   1.414   3.140   3.815 -0.2815  0.0765 -0.5553
11189WAT     H245463   1.290   3.125   3.758 -0.7867  0.2270  0.4988
11189WAT    EPW45464   1.337   3.125   3.821  0.4940  0.0307  0.0245
11190WAT      O45465   2.772   2.412   4.201  0.1753  0.7370  0.6059
11190WAT     H145466   2.846   2.459   4.203  1.6027 -1.3930  2.5252
11190WAT     H245467   2.753   2.401   4.285 -2.1669  0.8978  0.1513
11190WAT    EPW45468   2.780   2.417   4.214  0.2343 -0.2890 -0.7932
11191WAT      O45469   4.877   4.156   5.324 -0.3566 -0.1308 -0.1362
11191WAT     H145470   4.845   4.235   5.308  1.1958  0.0953 -2.6395
11191WAT     H245471   4.808   4.103   5.310 -0.9035  0.6290 -0.3902
11191WAT    EPW45472   4.862   4.160   5.320  0.0701  0.2087  0.3772
11192WAT      O45473   1.446   1.413   4.087  0.1221  0.7718  0.0317
11192WAT     H145474   1.371   1.447   4.114  0.3407  1.6405 -0.4390
11192WAT     H245475   1.441   1.329   4.112 -0.6083  1.0413  0.7908
11192WAT    EPW45476   1.434   1.405   4.094 -0.0595  0.4856 -0.1514
11193WAT      O45477   2.122   1.650   2.800  0.0301  0.0707 -0.4200
11193WAT     H145478   2.152   1.646   2.882  0.2746 -1.6379 -0.5423
11193WAT     H245479   2.058   1.709   2.805  1.5059  1.6788  0.4736
11193WAT    EPW45480   2.117   1.658   2.813  0.2364  0.0450  0.4470
11194WAT      O45481   1.149   1.679   4.870  0.5453 -0.0838  0.3854
11194WAT     H145482   1.073   1.681   4.912  1.0147  1.2220  1.2676
11194WAT     H245483   1.154   1.757   4.832  2.0368  0.4701  1.5632
11194WAT    EPW45484   1.139   1.691   4.871  0.3376  0.4294 -0.5376
11195WAT      O45485   0.750   0.446   4.694  0.8361 -0.3632  0.1697
11195WAT     H145486   0.731   0.494   4.624  1.3057 -1.2665 -0.5976
11195WAT     H245487   0.806   0.497   4.739  0.3979  0.2878 -0.0031
11195WAT    EPW45488   0.755   0.461   4.691  0.5685 -0.0393 -0.0131
11196WAT      O45489   0.782   7.147   1.409  0.0553 -0.0218 -0.0372
11196WAT     H145490   0.789   7.159   1.495 -0.5572 -1.6609  0.2721
11196WAT     H245491   0.700   7.172   1.391  0.3681  0.8743 -0.2651
11196WAT    EPW45492   0.771   7.153   1.419 -0.0598 -0.1417 -0.0011
11197WAT      O45493   1.765   3.511   3.161 -0.1205  0.1084  0.5717
11197WAT     H145494   1.764   3.579   3.107 -1.3420 -1.4634 -1.5986
11197WAT     H245495   1.699   3.527   3.216  0.6970  1.4223  1.1949
11197WAT    EPW45496   1.755   3.523   3.161 -0.3593 -0.4509  0.5569
11198WAT      O45497   2.316   5.328   4.003 -0.3935 -0.4975  0.1247
11198WAT     H145498   2.347   5.378   3.938 -0.8624  0.7390  0.8098
11198WAT     H245499   2.235   5.358   4.014  0.5822  1.4705  3.2453
11198WAT    EPW45500   2.308   5.340   3.995 -0.1540 -0.1257 -0.5464
11199WAT      O45501   3.784   1.628   6.412 -0.3435 -0.0751 -0.6430
11199WAT     H145502   3.768   1.692   6.469 -1.5785 -0.0884 -0.9537
11199WAT     H245503   3.728   1.643   6.348  0.6496 -0.3890 -1.6221
11199WAT    EPW45504   3.774   1.640   6.411 -0.2692 -0.5106 -0.1453
11200WAT      O45505   2.560   1.583   4.465  0.2041  0.5674  0.3616
11200WAT     H145506   2.617   1.625   4.414 -1.1963  2.1203  0.0060
11200WAT     H245507   2.510   1.539   4.408  0.3808  0.0367  0.6053
11200WAT    EPW45508   2.561   1.583   4.449 -0.7718 -0.0713 -0.0997
11201WAT      O45509   4.670   7.527   6.795  0.2308 -0.1077  0.5669
11201WAT     H145510   4.604   7.517   6.739  1.0402  1.3995 -0.7156
11201WAT     H245511   4.632   7.559   6.867 -0.3486  1.7981 -0.5278
11201WAT    EPW45512   4.655   7.530   6.797  0.5561 -0.3378  0.2621
11202WAT      O45513   3.629   7.310   3.923 -0.2616  0.2768 -0.1134
11202WAT     H145514   3.695   7.306   3.980 -0.4340  1.1084  0.1704
11202WAT     H245515   3.616   7.396   3.914 -1.8252  0.1379  0.4685
11202WAT    EPW45516   3.636   7.322   3.930 -1.1044 -0.1693  0.3167
11203WAT      O45517   2.949   5.037   4.775 -0.3071 -0.1646  0.0466
11203WAT     H145518   2.975   4.956   4.756 -0.9853 -0.1660 -0.9388
11203WAT     H245519   2.903   5.028   4.848 -0.0712 -0.6130  0.1390
11203WAT    EPW45520   2.946   5.024   4.783  0.2913 -0.2289  0.5745
11204WAT      O45521   4.571   5.718   3.232 -0.4746 -0.4612  0.0741
11204WAT     H145522   4.501   5.765   3.208  1.5906  1.9682 -1.8446
11204WAT     H245523   4.593   5.753   3.309  0.2535  0.8766 -0.7022
11204WAT    EPW45524   4.564   5.730   3.240  0.3488 -0.0537 -0.0980
11205WAT      O45525   4.323   1.680   4.066  0.4765  0.2701 -0.4936
11205WAT     H145526   4.295   1.735   4.127  0.8661 -0.2462  0.1573
11205WAT     H245527   4.402   1.710   4.045  0.9929 -0.4178  0.3706
11205WAT    EPW45528   4.330   1.692   4.072 -0.2135 -0.0375  0.5810
11206WAT      O45529   7.118   0.759   0.732  0.3065  0.5899 -0.0709
11206WAT     H145530   7.072   0.701   0.778 -0.2641  1.4766  0.4984
11206WAT     H245531   7.138   0.716   0.659  2.0596 -1.2089  1.3401
11206WAT    EPW45532   7.114   0.744   0.728  0.2597  0.2856  0.1761
11207WAT      O45533   6.429   2.193   2.229 -0.0742 -0.0558 -0.0360
11207WAT     H145534   6.433   2.256   2.170 -1.4106  0.2603  0.1784
11207WAT     H245535   6.344   2.173   2.232  0.1317 -0.8751  0.9216
11207WAT    EPW45536   6.417   2.199   2.221 -0.7379 -0.2736 -0.4414
11208WAT      O45537   4.127   3.052   5.283  0.1572  0.1130  0.1422
11208WAT     H145538   4.124   3.098   5.357 -1.6879  2.1563 -1.0633
11208WAT     H245539   4.055   3.004   5.285 -1.3411  2.1041 -1.3296
11208WAT    EPW45540   4.116   3.052   5.294  0.5227  0.0531  0.2687
11209WAT      O45541   5.422   3.266   1.788  0.2908 -0.0476  0.1976
11209WAT     H145542   5.493   3.298   1.750  1.0721 -2.4029 -0.5263
11209WAT     H245543   5.374   3.237   1.721  0.5164 -1.9803  0.8058
11209WAT    EPW45544   5.425   3.266   1.773 -0.6053 -0.5515  0.3323
11210WAT      O45545   2.209   0.305   7.283 -0.3066 -0.5326  0.0049
11210WAT     H145546   2.245   0.226   7.275  0.5500 -0.3922  1.8470
11210WAT     H245547   2.123   0.288   7.286 -0.3348 -1.0908 -2.2606
11210WAT    EPW45548   2.202   0.291   7.282  0.2528 -0.4525 -0.6175
11211WAT      O45549   1.934   3.410   1.207  0.6982  0.0055 -0.5682
11211WAT     H145550   1.971   3.357   1.149  2.0261  0.7146 -0.4184
11211WAT     H245551   1.940   3.489   1.169  1.4399  0.4563  0.4405
11211WAT    EPW45552   1.940   3.414   1.193 -0.1320 -0.6024  0.1826
11212WAT      O45553   6.067   0.039   3.596  0.6196 -0.0177 -0.2001
11212WAT     H145554   6.086   0.104   3.650  1.4950  0.2881 -0.8573
11212WAT     H245555   6.060  -0.030   3.648 -0.6739  0.6505  0.5488
11212WAT    EPW45556   6.069   0.038   3.611  0.3439  0.1441  0.5451
11213WAT      O45557   1.876   3.517   4.551  0.5102  0.3130  0.4378
11213WAT     H145558   1.909   3.594   4.573 -1.4508  1.2600  0.2648
11213WAT     H245559   1.790   3.529   4.558  0.0820 -1.3808 -1.1709
11213WAT    EPW45560   1.868   3.530   4.556  0.2258  0.7470  0.0605
11214WAT      O45561   3.182   2.918   5.207  0.2289  0.6650  0.4778
11214WAT     H145562   3.131   2.989   5.210  0.3667  0.7926 -0.0699
11214WAT     H245563   3.185   2.898   5.122  2.0839  1.3981  0.3303
11214WAT    EPW45564   3.175   2.926   5.195  0.4571  0.2611 -0.4113
11215WAT      O45565   0.703   0.743   2.408 -0.7601 -0.0479  0.2317
11215WAT     H145566   0.691   0.713   2.327 -2.0159 -0.5389  0.5753
11215WAT     H245567   0.755   0.683   2.444 -0.5331 -0.0437 -0.0893
11215WAT    EPW45568   0.709   0.729   2.401 -0.0986 -0.2755 -0.2193
11216WAT      O45569   3.251   0.432   6.783 -0.2186  0.4045  0.5452
11216WAT     H145570   3.266   0.380   6.715 -1.9676 -2.3825  2.1374
11216WAT     H245571   3.303   0.400   6.845  1.6811  3.1674  0.5848
11216WAT    EPW45572   3.261   0.420   6.782 -0.2257 -0.3811  0.4012
11217WAT      O45573   6.511   2.670   4.270  0.2464  0.2900  0.1075
11217WAT     H145574   6.432   2.669   4.308 -0.5414  0.0784 -1.4525
11217WAT     H245575   6.496   2.632   4.193  1.6340  1.3413 -0.7025
11217WAT    EPW45576   6.497   2.664   4.264 -0.5691  0.4855  0.3323
11218WAT      O45577   4.860   2.838   5.304 -0.5858  0.3475 -0.0636
11218WAT     H145578   4.834   2.919   5.324 -0.2292  0.6013 -0.5875
11218WAT     H245579   4.793   2.806   5.258 -0.5069  0.5410 -0.3172
11218WAT    EPW45580   4.846   2.845   5.300 -0.1688  0.3873 -0.1469
11219WAT      O45581   3.945   0.982   0.284 -0.3028  0.2213  0.3371
11219WAT     H145582   3.987   0.944   0.218  1.2410 -0.5897  1.7255
11219WAT     H245583   3.921   0.916   0.336 -0.7259  0.8919  1.0331
11219WAT    EPW45584   3.948   0.967   0.282  0.2328  0.3307 -0.3531
11220WAT      O45585   3.534   4.246   6.345  0.0406  0.5324  0.6130
11220WAT     H145586   3.599   4.199   6.379 -0.3535  0.9171  1.9747
11220WAT     H245587   3.543   4.324   6.383  0.6682  1.6097 -1.5797
11220WAT    EPW45588   3.545   4.251   6.356  0.2729  0.3176  0.6146
11221WAT      O45589   5.041   2.741   5.497 -0.3108  1.0740  0.0208
11221WAT     H145590   5.009   2.688   5.559  1.9144  1.4604  1.6484
11221WAT     H245591   4.974   2.753   5.443 -1.3166 -2.2775  0.3045
11221WAT    EPW45592   5.026   2.735   5.498  0.5096 -0.2320 -0.1709
11222WAT      O45593   2.500   0.498   1.557 -0.1565 -0.1047 -0.1614
11222WAT     H145594   2.449   0.563   1.528 -0.1758 -0.1402 -0.2059
11222WAT     H245595   2.472   0.428   1.514  0.5881  0.0562 -0.9348
11222WAT    EPW45596   2.488   0.497   1.546 -0.5849 -0.0587 -0.3505
11223WAT      O45597   7.897   2.065   0.851 -0.4284 -0.1845  0.4502
11223WAT     H145598   7.928   2.040   0.773  2.9093 -1.8270  2.1185
11223WAT     H245599   7.826   2.016   0.862 -0.7031 -0.2487 -1.3050
11223WAT    EPW45600   7.891   2.054   0.841 -0.4491 -0.2329  0.1468
11224WAT      O45601   0.326   4.315   3.809 -0.3037  0.3307  0.3890
11224WAT     H145602   0.359   4.318   3.890  0.1613 -2.7523  0.4398
11224WAT     H245603   0.389   4.278   3.762 -0.9101  1.2398 -1.2409
11224WAT    EPW45604   0.340   4.310   3.814 -0.3607 -0.1196  0.6115
11225WAT      O45605   6.985   7.611   4.035  0.3098 -0.3333  0.4075
11225WAT     H145606   6.927   7.622   4.099  0.1809  0.2503  0.1983
11225WAT     H245607   7.012   7.529   4.045  1.5900  0.2516  2.2940
11225WAT    EPW45608   6.980   7.601   4.046  0.6978 -0.0472 -0.0882
11226WAT      O45609   3.855   6.328   0.653  0.0315  0.4336 -0.2606
11226WAT     H145610   3.770   6.332   0.632  0.0094  0.9117 -0.0818
11226WAT     H245611   3.881   6.254   0.615 -0.9102 -0.7999  1.3621
11226WAT    EPW45612   3.846   6.317   0.644 -0.3526  0.3403 -0.1774
11227WAT      O45613   3.177   7.696   7.183  0.2102 -0.3682  0.5540
11227WAT     H145614   3.250   7.732   7.152  0.3944 -0.3636  0.9879
11227WAT     H245615   3.191   7.610   7.176  0.1043 -0.3650  0.2890
11227WAT    EPW45616   3.189   7.689   7.178 -0.5013 -0.5432  0.2934
11228WAT      O45617   1.225   3.551   5.489 -0.2456 -0.5158 -0.3270
11228WAT     H145618   1.287   3.539   5.549  0.5567  0.9343 -0.8110
11228WAT     H245619   1.201   3.634   5.500 -0.9974 -0.6089 -1.1643
11228WAT    EPW45620   1.231   3.561   5.499  0.1263  0.0447 -0.1320
11229WAT      O45621   1.483   4.641   2.530  0.2495 -0.5226 -0.0606
11229WAT     H145622   1.536   4.601   2.473  0.1566 -2.5934  1.2159
11229WAT     H245623   1.519   4.623   2.608 -0.6341  0.6900  0.6669
11229WAT    EPW45624   1.496   4.633   2.533  0.5194  0.3835  0.9028
11230WAT      O45625   6.779   7.126   1.928 -0.1712  0.1046 -0.0183
11230WAT     H145626   6.759   7.172   1.856 -0.8220  1.0116  0.7268
11230WAT     H245627   6.706   7.082   1.946 -0.2049  0.3276  0.4088
11230WAT    EPW45628   6.766   7.126   1.920 -0.3931  0.3719  0.0497
11231WAT      O45629   6.524   6.115   2.112  0.5684 -0.3384 -0.4417
11231WAT     H145630   6.541   6.074   2.036  1.7410 -0.5667 -0.0698
11231WAT     H245631   6.464   6.063   2.149 -0.7374  0.2558 -1.5831
11231WAT    EPW45632   6.517   6.101   2.106 -0.4727 -0.1650 -0.5990
11232WAT      O45633   7.929   1.592   4.186  0.1219  0.1835 -0.2065
11232WAT     H145634   7.943   1.565   4.105  1.2372  0.7487 -0.2154
11232WAT     H245635   7.992   1.553   4.232 -0.2425  0.2028  0.3239
11232WAT    EPW45636   7.941   1.582   4.181  0.1230  0.4751  0.0605
11233WAT      O45637   2.452   2.192   2.429  0.4781  0.1781  0.2916
11233WAT     H145638   2.369   2.216   2.423  0.8246  2.1542  2.1561
11233WAT     H245639   2.452   2.133   2.493  0.7617  2.0628  2.1234
11233WAT    EPW45640   2.440   2.187   2.438 -0.8155 -0.1841  0.0098
11234WAT      O45641   2.374   1.757   2.278  0.1606 -0.4550  0.0264
11234WAT     H145642   2.414   1.694   2.233 -1.3888 -1.9732  0.6666
11234WAT     H245643   2.352   1.815   2.216  0.7760 -0.9800 -0.7062
11234WAT    EPW45644   2.377   1.757   2.262 -0.2072  0.2531 -0.2850
11235WAT      O45645   6.835   2.821   2.842 -0.7339  0.5243 -0.2788
11235WAT     H145646   6.798   2.824   2.763 -2.1103  1.6691  0.3756
11235WAT     H245647   6.825   2.738   2.866 -2.5619  0.7137 -0.2824
11235WAT    EPW45648   6.828   2.809   2.834 -0.2532 -1.3439  0.2479
11236WAT      O45649   3.602   3.525   1.407 -0.1625 -0.1140 -0.0035
11236WAT     H145650   3.681   3.537   1.442  0.0383 -0.1949 -0.4271
11236WAT     H245651   3.551   3.510   1.477  0.2855 -0.5412  0.2379
11236WAT    EPW45652   3.606   3.525   1.423  0.0443 -0.3754  0.4522
11237WAT      O45653   7.671   1.644   2.449  0.3229  0.5068 -0.2607
11237WAT     H145654   7.737   1.620   2.398  1.2125 -1.1252  1.4992
11237WAT     H245655   7.711   1.685   2.516 -0.2511 -1.3281  1.3055
11237WAT    EPW45656   7.687   1.647   2.452 -0.9627 -0.0353 -0.4453
11238WAT      O45657   1.620   6.274   4.779 -0.6213 -0.0779 -0.2055
11238WAT     H145658   1.651   6.199   4.746 -0.2995  0.0910 -0.2893
11238WAT     H245659   1.539   6.278   4.747  0.0247  0.6033 -1.8467
11238WAT    EPW45660   1.612   6.263   4.769 -0.2329 -0.3919  0.3820
11239WAT      O45661   4.393   1.255   1.279 -0.4112  0.0436 -0.5842
11239WAT     H145662   4.314   1.259   1.316 -0.4574 -0.6837 -0.5898
11239WAT     H245663   4.434   1.194   1.326  0.1703  0.4669 -0.5420
11239WAT    EPW45664   4.387   1.247   1.291  0.4871  0.1317  0.0569
11240WAT      O45665   2.811   5.259   4.519 -0.5837  0.1584 -0.0302
11240WAT     H145666   2.877   5.257   4.577 -1.5901 -0.8688  1.1444
11240WAT     H245667   2.814   5.179   4.483 -0.7153  0.3815 -0.5407
11240WAT    EPW45668   2.821   5.247   4.522 -0.1902  0.6999  0.3062
11241WAT      O45669   3.721   1.266   1.490 -0.4065 -0.2386 -0.5367
11241WAT     H145670   3.718   1.190   1.533 -1.4097 -0.5475 -1.1332
11241WAT     H245671   3.719   1.242   1.406  0.6783  0.4005 -0.7692
11241WAT    EPW45672   3.720   1.251   1.484  0.2926  0.2772  0.3198
11242WAT      O45673   3.051   2.546   4.665 -0.6725  0.0063 -0.2534
11242WAT     H145674   2.979   2.499   4.649 -0.7465  0.0768 -0.1183
11242WAT     H245675   3.116   2.493   4.638 -0.8663  0.9589 -2.9899
11242WAT    EPW45676   3.050   2.531   4.658  0.5468  0.1672 -0.1341
11243WAT      O45677   4.102   7.760   3.277  0.0010 -0.3649  0.3876
11243WAT     H145678   4.147   7.821   3.234 -1.1395  0.3808  0.2063
11243WAT     H245679   4.148   7.687   3.263  1.5375  0.4699  0.8266
11243WAT    EPW45680   4.115   7.758   3.269 -0.3322 -0.8170 -0.0426
11244WAT      O45681   4.333   0.613   1.671  0.9685  0.2348 -0.4114
11244WAT     H145682   4.390   0.576   1.725 -0.9739  0.5584  2.0446
11244WAT     H245683   4.381   0.672   1.627  2.6206  0.1234  1.1270
11244WAT    EPW45684   4.349   0.617   1.672 -0.5309 -0.2888  0.2041
11245WAT      O45685   2.279   3.364   6.423  0.0381  0.1041  0.0640
11245WAT     H145686   2.351   3.362   6.473 -0.0406  0.4145  0.1949
11245WAT     H245687   2.310   3.380   6.343  0.0370  1.5416  0.3177
11245WAT    EPW45688   2.294   3.366   6.418  0.0066  0.2616 -0.2857
11246WAT      O45689   5.125   1.792   2.927 -0.1434 -0.1086 -0.3113
11246WAT     H145690   5.124   1.878   2.917  1.7429 -0.0704 -0.4208
11246WAT     H245691   5.185   1.764   2.871  1.0738 -1.2230  1.4319
11246WAT    EPW45692   5.134   1.800   2.917 -0.2265  0.6026  0.2921
11247WAT      O45693   2.425   0.473   7.237 -0.5349 -0.3171  0.1232
11247WAT     H145694   2.358   0.424   7.265  0.2753 -2.4560 -1.4825
11247WAT     H245695   2.494   0.437   7.276 -0.2014  1.9821  1.9111
11247WAT    EPW45696   2.425   0.460   7.247 -0.5862  0.0391 -0.0122
11248WAT      O45697   1.225   6.557   3.156  0.3534 -0.4322 -0.1344
11248WAT     H145698   1.145   6.592   3.150  0.1443 -1.1203 -2.0014
11248WAT     H245699   1.210   6.471   3.161  0.9774 -0.5792 -0.6760
11248WAT    EPW45700   1.211   6.549   3.156  0.0334  0.0875  0.3558
11249WAT      O45701   5.110   2.358   4.468  0.0635  0.0884  0.5940
11249WAT     H145702   5.046   2.392   4.517 -0.7181  0.0077 -0.3211
11249WAT     H245703   5.088   2.382   4.387  1.5950  0.6478  0.3245
11249WAT    EPW45704   5.097   2.366   4.463  0.4136  0.2937  0.4331
11250WAT      O45705   1.302   1.520   4.681  0.5233  0.0590  0.3117
11250WAT     H145706   1.228   1.536   4.724 -0.1674 -0.1293 -0.7604
11250WAT     H245707   1.276   1.469   4.615  1.3508  1.1821 -0.9285
11250WAT    EPW45708   1.287   1.515   4.678  0.5803  0.1245  0.2566
11251WAT      O45709   1.077   3.437   2.516 -0.0733  0.4417 -0.5147
11251WAT     H145710   1.001   3.431   2.560 -0.8282  0.7434 -1.7402
11251WAT     H245711   1.093   3.355   2.492  0.2032  0.3185  0.0529
11251WAT    EPW45712   1.068   3.424   2.519  0.2249  0.0318 -0.4516
11252WAT      O45713   1.804   0.246   4.526  0.3015 -0.0649  0.2036
11252WAT     H145714   1.757   0.178   4.552  0.2995  0.2431  1.0490
11252WAT     H245715   1.812   0.234   4.440  0.4981 -1.2413  0.3702
11252WAT    EPW45716   1.798   0.234   4.517 -0.1038 -0.3401  0.2059
11253WAT      O45717   3.988   0.271   6.727 -0.3336 -0.0103 -0.1358
11253WAT     H145718   3.959   0.189   6.722 -0.7256  0.1287 -0.1912
11253WAT     H245719   3.939   0.306   6.790 -1.3732  0.6699 -1.2826
11253WAT    EPW45720   3.977   0.264   6.736 -0.3327  0.1619 -0.6453
11254WAT      O45721   1.214   4.079   3.153  0.1117  0.0619  0.5485
11254WAT     H145722   1.216   4.166   3.161  0.1033 -0.1005  3.0481
11254WAT     H245723   1.229   4.066   3.068  2.5425  2.4265  0.4695
11254WAT    EPW45724   1.217   4.090   3.141  0.1098 -0.0187  0.5444
11255WAT      O45725   6.368   0.830   4.214 -0.3464 -0.1393  0.3785
11255WAT     H145726   6.382   0.905   4.171  0.7267 -0.0506  0.8675
11255WAT     H245727   6.317   0.785   4.159 -3.0122  1.8089  1.0102
11255WAT    EPW45728   6.362   0.834   4.200  0.0018 -0.1994 -0.3937
11256WAT      O45729   1.574   4.332   3.806 -0.5009 -0.6342 -0.0731
11256WAT     H145730   1.643   4.279   3.811  1.2329  1.3015 -1.6299
11256WAT     H245731   1.565   4.362   3.888 -0.0074 -1.4990  0.3143
11256WAT    EPW45732   1.583   4.328   3.819  0.6707 -0.4976  0.1459
11257WAT      O45733   5.753   2.348   5.227 -0.6875  0.6360 -0.3901
11257WAT     H145734   5.702   2.292   5.271 -1.8224  1.2105 -0.9308
11257WAT     H245735   5.829   2.306   5.220 -1.2559 -0.4809 -0.0365
11257WAT    EPW45736   5.757   2.333   5.232  0.1732 -0.1694 -1.1496
11258WAT      O45737   2.417   0.335   6.983  0.1280 -0.0566 -0.2417
11258WAT     H145738   2.426   0.378   7.058  0.4306  0.5266 -0.6017
11258WAT     H245739   2.500   0.326   6.955  0.2326 -2.2581  0.5632
11258WAT    EPW45740   2.431   0.340   6.990  0.0792 -0.2600  0.1806
11259WAT      O45741   1.288   1.369   2.045  0.0192  0.4790 -0.4098
11259WAT     H145742   1.251   1.412   2.112 -1.9299 -0.8812 -0.5452
11259WAT     H245743   1.221   1.331   2.005  1.4174 -0.7887 -1.6786
11259WAT    EPW45744   1.273   1.370   2.049 -0.2246 -0.1588 -0.0994
11260WAT      O45745   3.326   0.349   3.309  0.7312 -0.2798  0.4526
11260WAT     H145746   3.322   0.345   3.396  2.0553 -1.4251  0.4952
11260WAT     H245747   3.410   0.332   3.292  0.9616  1.8917 -0.9703
11260WAT    EPW45748   3.338   0.346   3.319 -0.7121  0.6483 -0.6666
11261WAT      O45749   3.779   0.488   5.741  0.1350 -0.4061 -0.2812
11261WAT     H145750   3.818   0.472   5.664  3.2251 -0.6569  1.1620
11261WAT     H245751   3.798   0.572   5.757 -0.5825 -0.3183  0.1437
11261WAT    EPW45752   3.788   0.498   5.732 -0.3295  0.5250  0.1139
11262WAT      O45753   4.300   5.184   3.460  0.3152 -0.4037 -0.0340
11262WAT     H145754   4.342   5.113   3.488 -0.4634 -0.4636  1.0680
11262WAT     H245755   4.231   5.190   3.514 -0.7823  0.0162 -1.4103
11262WAT    EPW45756   4.296   5.175   3.472 -0.2090 -0.5240 -0.0252
11263WAT      O45757   0.413   2.052   3.513  0.0281 -0.2425  0.0125
11263WAT     H145758   0.357   1.997   3.474  0.7486 -0.1857 -1.1609
11263WAT     H245759   0.382   2.059   3.594  0.3429 -2.9930  0.4688
11263WAT    EPW45760   0.400   2.045   3.519  0.1009 -0.5498 -0.0937
11264WAT      O45761   2.476   0.680   6.668  0.5259 -0.0024  0.0650
11264WAT     H145762   2.422   0.744   6.642  1.8332  0.6065 -1.2771
11264WAT     H245763   2.456   0.614   6.614  0.2227 -0.2388  0.4571
11264WAT    EPW45764   2.465   0.679   6.656  0.4112  0.5181  0.6394
11265WAT      O45765   1.495   4.029   5.702  0.0831 -0.1459  0.4865
11265WAT     H145766   1.479   3.999   5.783  0.5755  0.9265  1.0019
11265WAT     H245767   1.416   4.032   5.666 -0.0133 -1.8050  0.4817
11265WAT    EPW45768   1.481   4.025   5.709  0.0513 -0.0534 -0.0026
11266WAT      O45769   0.420   1.345   1.787  0.3893 -0.3072  0.1416
11266WAT     H145770   0.337   1.323   1.774  0.7368 -1.7661  0.1545
11266WAT     H245771   0.433   1.330   1.872  0.2335  1.5947  0.5504
11266WAT    EPW45772   0.410   1.340   1.798  0.3051 -0.0240  0.4913
11267WAT      O45773   2.296   7.286   2.073 -0.7226 -0.0026 -0.0868
11267WAT     H145774   2.320   7.367   2.092 -1.6462  0.0773  0.8469
11267WAT     H245775   2.248   7.262   2.142 -0.3761 -1.3817 -0.2913
11267WAT    EPW45776   2.292   7.294   2.086 -0.7174  0.3071 -0.2892
11268WAT      O45777   3.653   7.824   3.889 -0.1585 -0.3056 -0.0432
11268WAT     H145778   3.608   7.890   3.854 -0.4401  0.0775  0.9944
11268WAT     H245779   3.608   7.753   3.866  0.1722 -0.1561 -1.2038
11268WAT    EPW45780   3.640   7.823   3.881 -0.2290 -0.8416 -0.3462
11269WAT      O45781   3.206   3.896   1.483 -0.3314 -0.0499  0.1777
11269WAT     H145782   3.223   3.810   1.482  0.8042  0.1524  0.5152
11269WAT     H245783   3.249   3.925   1.412 -1.8526  0.0648 -0.7498
11269WAT    EPW45784   3.215   3.887   1.472  0.2614 -0.0110  0.5810
11270WAT      O45785   1.584   3.678   7.160 -0.0874 -0.2580  0.3591
11270WAT     H145786   1.562   3.755   7.124  0.3659  0.1575  0.9373
11270WAT     H245787   1.552   3.685   7.241  2.5847  0.6359  1.4684
11270WAT    EPW45788   1.576   3.691   7.167 -0.2818  0.0085  0.2643
11271WAT      O45789   5.539   2.655   5.493 -0.6709  0.0565  0.3437
11271WAT     H145790   5.466   2.689   5.459  0.3086  0.5971 -1.2964
11271WAT     H245791   5.588   2.725   5.510 -1.6186  0.0094  4.4226
11271WAT    EPW45792   5.535   2.671   5.491 -0.3157 -0.6946  1.0655
11272WAT      O45793   2.202   6.841   5.189 -0.2113 -0.1927  0.0076
11272WAT     H145794   2.259   6.884   5.138 -0.0053  0.2485  0.5929
11272WAT     H245795   2.252   6.815   5.256 -0.0704 -2.3732 -0.8725
11272WAT    EPW45796   2.218   6.844   5.191 -0.0534  0.6348 -0.3919
11273WAT      O45797   5.125   6.411   2.721  0.2754 -0.3116  0.4360
11273WAT     H145798   5.179   6.347   2.695 -1.0730 -0.9456 -1.0288
11273WAT     H245799   5.074   6.372   2.780 -1.4980 -1.1165 -1.5048
11273WAT    EPW45800   5.126   6.395   2.725  0.1223 -0.2606 -0.3931
11274WAT      O45801   2.937   3.429   0.066 -0.6231  0.1655  0.5723
11274WAT     H145802   2.885   3.424   0.136 -1.2752  0.4082  0.1151
11274WAT     H245803   2.883   3.414  -0.000  0.0637 -0.4594  0.1344
11274WAT    EPW45804   2.922   3.426   0.067 -0.1343 -0.1784 -0.8890
11275WAT      O45805   5.321   4.499   3.996  0.3592 -0.6635 -0.4897
11275WAT     H145806   5.356   4.431   3.954  1.0652 -0.2445 -0.5892
11275WAT     H245807   5.243   4.469   4.021 -0.1717 -0.8707 -2.2542
11275WAT    EPW45808   5.315   4.484   3.994 -0.2808  0.2903  0.1122
11276WAT      O45809   1.944   0.828   3.896 -0.2239 -0.3389 -0.3000
11276WAT     H145810   1.865   0.856   3.872 -0.3042  0.3505  0.6829
11276WAT     H245811   1.998   0.890   3.866 -0.3045  0.4120  1.0253
11276WAT    EPW45812   1.940   0.842   3.888  0.5074  0.0347 -0.0173
11277WAT      O45813   3.396   6.535   3.662 -0.1445 -0.0647  0.8653
11277WAT     H145814   3.398   6.561   3.578  2.1207  0.5525  1.0502
11277WAT     H245815   3.373   6.607   3.705  1.0166  0.2761  0.9435
11277WAT    EPW45816   3.393   6.550   3.656 -0.2142  0.3583 -0.4406
11278WAT      O45817   4.036   3.629   1.847 -0.0809 -0.8621  0.1118
11278WAT     H145818   4.106   3.610   1.798  1.3114  1.7209  0.8664
11278WAT     H245819   3.995   3.691   1.800 -0.5580 -0.7103  0.7209
11278WAT    EPW45820   4.041   3.636   1.833 -0.2617  0.5826 -0.5499
11279WAT      O45821   3.577   0.464   4.591 -0.2888 -0.2009 -0.0073
11279WAT     H145822   3.640   0.520   4.570 -0.5584  0.7039  1.4595
11279WAT     H245823   3.504   0.507   4.574 -0.5619 -1.0973 -1.3040
11279WAT    EPW45824   3.576   0.478   4.585  0.5040  0.5918 -0.9404
11280WAT      O45825   1.181   5.645   5.109 -0.2514  0.4903  0.1249
11280WAT     H145826   1.201   5.730   5.114  0.0781  0.4460 -0.3550
11280WAT     H245827   1.243   5.612   5.057 -0.8093  0.1064 -0.3222
11280WAT    EPW45828   1.193   5.653   5.102 -0.1373  0.0629  0.3140
11281WAT      O45829   1.872   0.956   7.539 -0.0295 -0.1190  0.4461
11281WAT     H145830   1.898   0.984   7.461 -1.6446  0.0252 -0.0751
11281WAT     H245831   1.911   1.011   7.594 -0.3180  0.9359 -0.3754
11281WAT    EPW45832   1.881   0.968   7.536  0.4322 -0.3010  0.4852
11282WAT      O45833   1.925   1.947   7.709  0.0334 -0.0360 -0.4077
11282WAT     H145834   1.847   1.948   7.669  0.6309  0.1653 -1.6029
11282WAT     H245835   1.982   1.953   7.644  1.0545  0.4836  0.4998
11282WAT    EPW45836   1.922   1.948   7.694 -0.0179  0.1608 -0.3823
11283WAT      O45837   2.528   4.096   5.806 -0.1639 -0.2935  0.1888
11283WAT     H145838   2.563   4.018   5.823 -0.5383 -0.0574  2.1871
11283WAT     H245839   2.442   4.083   5.814 -0.1642  0.6018  1.9246
11283WAT    EPW45840   2.521   4.082   5.810 -0.0042  0.6601  0.0932
11284WAT      O45841   4.499   6.434   6.754 -0.2341  0.0170  0.9496
11284WAT     H145842   4.429   6.465   6.712  0.1825 -0.0348  0.1869
11284WAT     H245843   4.559   6.426   6.690  0.6954  0.7477  1.6907
11284WAT    EPW45844   4.498   6.437   6.738 -0.0272  0.6824 -0.1472
11285WAT      O45845   2.605   2.879   5.122  0.6288 -0.4464  0.5521
11285WAT     H145846   2.572   2.908   5.046 -0.8164 -2.0647  0.5012
11285WAT     H245847   2.688   2.860   5.102  0.2573 -0.8860 -0.6409
11285WAT    EPW45848   2.612   2.881   5.108 -0.5728  0.2304  0.4104
11286WAT      O45849   1.190   6.677   7.996  0.2056  0.1356 -0.0950
11286WAT     H145850   1.213   6.749   8.040  0.0200  0.8161 -1.0743
11286WAT     H245851   1.115   6.653   8.033  0.4697  0.2026  0.5028
11286WAT    EPW45852   1.182   6.684   8.008 -0.5449 -0.9388  0.3817
11287WAT      O45853   1.327   3.896   3.331 -0.2000  0.1697 -0.3050
11287WAT     H145854   1.243   3.884   3.353 -0.4272  1.1060 -0.6387
11287WAT     H245855   1.322   3.943   3.258  0.6468  2.4458  1.0182
11287WAT    EPW45856   1.314   3.901   3.324  0.0440 -0.1859  0.2405
11288WAT      O45857   0.689   2.057   1.353  0.2433 -0.3537 -0.4084
11288WAT     H145858   0.616   2.009   1.354 -0.2683  0.3987  0.8878
11288WAT     H245859   0.721   2.048   1.434  1.1042  0.0695 -0.6877
11288WAT    EPW45860   0.683   2.048   1.365  0.1968  0.1473 -0.6601
11289WAT      O45861   3.778   4.955   2.909 -0.4573  0.2981 -0.0379
11289WAT     H145862   3.743   5.029   2.938  1.4581  2.2512 -2.3350
11289WAT     H245863   3.864   4.965   2.924 -0.2380 -2.2121  1.0035
11289WAT    EPW45864   3.786   4.967   2.916 -0.2745  0.0409 -0.6793
11290WAT      O45865   4.584   1.357   4.823  0.3287 -0.9582  0.1782
11290WAT     H145866   4.530   1.357   4.892 -0.3768  0.0634 -0.3574
11290WAT     H245867   4.594   1.272   4.806  1.2977 -1.3112  2.1123
11290WAT    EPW45868   4.578   1.345   4.831  0.5046 -0.7210  0.0856
11291WAT      O45869   2.952   6.381   2.880  0.0974  0.1229  0.7625
11291WAT     H145870   2.890   6.439   2.864 -0.6339 -1.4314 -3.1505
11291WAT     H245871   2.909   6.313   2.914  0.2497  0.2655  1.2521
11291WAT    EPW45872   2.937   6.379   2.882  0.0712 -0.1773  0.0596
11292WAT      O45873   2.532   3.032   7.435 -0.0079  0.2449  0.2075
11292WAT     H145874   2.478   3.037   7.367 -0.1063  1.1520  0.3422
11292WAT     H245875   2.611   3.034   7.398 -0.0533  1.4488  0.1460
11292WAT    EPW45876   2.536   3.033   7.420  0.1228 -0.0650  0.0218
11293WAT      O45877   0.482   5.108   3.811  0.0215 -0.3824 -0.2611
11293WAT     H145878   0.400   5.085   3.791 -0.7423 -0.6199  2.6751
11293WAT     H245879   0.478   5.195   3.814 -0.8962 -0.4386  2.3383
11293WAT    EPW45880   0.469   5.118   3.808  0.4626  0.1747 -0.2764
11294WAT      O45881   0.223   2.921   1.465 -0.4545 -0.3415  0.1208
11294WAT     H145882   0.283   2.981   1.444 -1.3205  0.8106  0.7970
11294WAT     H245883   0.163   2.928   1.402  0.3656 -1.9456 -0.9182
11294WAT    EPW45884   0.223   2.931   1.453 -0.5430 -0.2535  0.4209
11295WAT      O45885   4.513   7.953   0.199 -0.3313  0.0405  0.0138
11295WAT     H145886   4.488   7.889   0.252  4.8158 -1.4440  1.2091
11295WAT     H245887   4.568   8.000   0.248  0.2908  2.1112 -2.4294
11295WAT    EPW45888   4.517   7.951   0.214 -0.6702 -0.3321 -0.0916
11296WAT      O45889   1.656   3.417   6.258  0.2111 -0.7728 -0.4729
11296WAT     H145890   1.672   3.477   6.198  1.3277 -2.1050 -1.5618
11296WAT     H245891   1.708   3.351   6.237 -0.6195 -1.9677  0.9496
11296WAT    EPW45892   1.666   3.416   6.246  0.4756  0.0679 -0.3138
11297WAT      O45893   0.695   6.321   4.210  0.1931 -0.1142  0.1410
11297WAT     H145894   0.621   6.281   4.232  0.6438 -1.0953 -0.0486
11297WAT     H245895   0.684   6.337   4.125  1.0485 -2.3190 -0.4662
11297WAT    EPW45896   0.682   6.317   4.200 -0.1284  0.6099 -0.2019
11298WAT      O45897   5.807   7.366   2.478 -0.3579 -0.6343 -0.2146
11298WAT     H145898   5.879   7.397   2.440 -0.2925 -1.1827 -0.5614
11298WAT     H245899   5.743   7.416   2.446  0.0640  1.2577  1.7101
11298WAT    EPW45900   5.808   7.378   2.467  0.0602 -0.5283  0.3435
11299WAT      O45901   4.166   0.268   3.585 -0.6146  0.1442  0.0377
11299WAT     H145902   4.106   0.329   3.571 -0.8048 -0.3541 -1.5349
11299WAT     H245903   4.241   0.307   3.562 -0.5132  0.3120  0.6406
11299WAT    EPW45904   4.168   0.283   3.579  0.2732  0.7010  0.3305
11300WAT      O45905   5.732   2.572   4.834 -0.3275 -0.4331 -0.2478
11300WAT     H145906   5.687   2.503   4.863 -0.5765  0.5473  1.9091
11300WAT     H245907   5.674   2.636   4.835  0.1732  0.0595 -1.1985
11300WAT    EPW45908   5.717   2.571   4.839  0.4197 -0.3627  0.2088
11301WAT      O45909   4.533   2.411   7.951 -0.2499 -0.0831  0.1326
11301WAT     H145910   4.608   2.404   7.995 -0.4238  0.6900  0.5714
11301WAT     H245911   4.536   2.344   7.896  1.6965  1.0711 -1.2966
11301WAT    EPW45912   4.545   2.400   7.950 -0.3042 -0.6291  0.4469
11302WAT      O45913   1.028   7.677   3.939 -0.0798  0.2259 -0.3051
11302WAT     H145914   1.054   7.609   3.891 -1.3745  0.1300 -0.9070
11302WAT     H245915   1.055   7.657   4.019  0.3385 -0.5770 -0.6343
11302WAT    EPW45916   1.036   7.664   3.944  0.2246 -0.4693  0.2746
11303WAT      O45917   4.759   4.488   7.253 -0.3807 -0.3393 -1.0791
11303WAT     H145918   4.845   4.481   7.269 -0.9621 -2.1722  1.8748
11303WAT     H245919   4.734   4.406   7.240 -2.0925 -0.1428  0.6681
11303WAT    EPW45920   4.768   4.475   7.253  0.1269 -0.2121  0.2206
11304WAT      O45921   0.994   0.403   4.061  0.9769  0.0124 -0.0773
11304WAT     H145922   1.041   0.476   4.056  1.3447 -0.1599  0.7573
11304WAT     H245923   1.046   0.347   4.103 -0.0141 -0.1364  1.0190
11304WAT    EPW45924   1.009   0.405   4.066  0.1288 -0.0240  0.5782
11305WAT      O45925   1.462   1.094   5.001 -0.2559  0.5897  0.1569
11305WAT     H145926   1.533   1.145   5.006 -0.3198  0.5383  2.6221
11305WAT     H245927   1.494   1.014   5.016 -0.9423  0.7269  2.7271
11305WAT    EPW45928   1.477   1.090   5.004 -0.6925  0.2345 -0.6286
11306WAT      O45929   0.263   2.840   5.127  0.0366  0.5218  0.7303
11306WAT     H145930   0.235   2.786   5.189 -3.0651  1.3796  0.2117
11306WAT     H245931   0.217   2.913   5.140  0.8254  1.4610 -1.3042
11306WAT    EPW45932   0.252   2.843   5.138  0.1561 -0.4699  0.0158
11307WAT      O45933   0.365   2.706   3.759 -0.4539 -0.5715  0.1783
11307WAT     H145934   0.289   2.678   3.791 -0.0021  0.4099  2.2608
11307WAT     H245935   0.419   2.639   3.776 -0.5784 -0.7450 -0.1080
11307WAT    EPW45936   0.362   2.692   3.766  0.3182 -0.3247  0.1416
11308WAT      O45937   4.045   1.495   1.793  0.3137  0.1110 -0.0008
11308WAT     H145938   4.013   1.441   1.854  1.1338  0.7961  1.0805
11308WAT     H245939   4.028   1.454   1.718 -0.0942 -1.1058  0.7293
11308WAT    EPW45940   4.038   1.481   1.791 -0.0935  0.5485  0.4239
11309WAT      O45941   2.172   5.395   0.367 -0.0000 -0.0548  0.3389
11309WAT     H145942   2.200   5.454   0.424  0.4363 -2.0593  2.3505
11309WAT     H245943   2.139   5.332   0.417  0.4170 -1.9544 -1.6125
11309WAT    EPW45944   2.171   5.394   0.383 -0.2511 -0.1757  0.2918
11310WAT      O45945   5.764   3.740   5.645 -0.2525  0.3571  0.0725
11310WAT     H145946   5.686   3.776   5.634  0.2860  1.4274 -0.4327
11310WAT     H245947   5.816   3.785   5.591  0.5563 -0.9116 -0.2756
11310WAT    EPW45948   5.760   3.752   5.635 -0.1348 -0.4800  0.2858
11311WAT      O45949   0.648   3.299   4.417 -0.7309 -0.8805 -0.0780
11311WAT     H145950   0.598   3.261   4.479 -0.5748 -0.5804  0.2335
11311WAT     H245951   0.706   3.345   4.463 -0.4129 -0.9085 -0.4473
11311WAT    EPW45952   0.649   3.300   4.433  0.1907 -0.0363  0.4959
11312WAT      O45953   3.134   7.603   6.249 -0.2963 -0.4354  0.6144
11312WAT     H145954   3.074   7.543   6.229 -2.1119  1.3437  0.5249
11312WAT     H245955   3.090   7.678   6.249  1.9589  0.9704  0.4652
11312WAT    EPW45956   3.119   7.605   6.246 -0.4188 -0.0283  0.0674
11313WAT      O45957   1.417   1.191   4.743  0.9335  0.0650  0.3362
11313WAT     H145958   1.503   1.185   4.729  1.1836 -0.5777  1.9807
11313WAT     H245959   1.407   1.161   4.824 -0.9602 -0.6128 -0.1071
11313WAT    EPW45960   1.428   1.186   4.753 -0.7384 -0.2872  0.0770
11314WAT      O45961   0.632   1.122   3.037 -0.2022  0.0332  0.4951
11314WAT     H145962   0.582   1.188   3.063 -1.1676 -0.6795  0.4993
11314WAT     H245963   0.650   1.079   3.111  0.6478  0.4309  0.5294
11314WAT    EPW45964   0.627   1.125   3.052  0.1467  0.5046 -0.1187
11315WAT      O45965   1.074   1.865   0.271  0.0765  1.1716  0.4781
11315WAT     H145966   1.096   1.854   0.187 -2.3724 -2.3317  0.0946
11315WAT     H245967   0.991   1.889   0.267 -0.4862 -0.4375  1.8677
11315WAT    EPW45968   1.065   1.867   0.258 -0.0827 -0.0059 -0.0534
11316WAT      O45969   2.039   1.863   1.924 -0.0582  0.2982 -0.2124
11316WAT     H145970   2.059   1.787   1.963  1.2277  0.8658  0.3067
11316WAT     H245971   1.976   1.896   1.974 -0.0523 -0.0608  0.0362
11316WAT    EPW45972   2.033   1.856   1.937  0.0374 -0.1106 -0.1349
11317WAT      O45973   6.464   3.246   4.805 -0.6619 -0.0690  0.4687
11317WAT     H145974   6.486   3.330   4.805 -2.5061  0.4753 -0.8473
11317WAT     H245975   6.420   3.237   4.880  1.5622 -0.5214  1.8022
11317WAT    EPW45976   6.461   3.257   4.816  0.1500 -0.2245  0.7293
11318WAT      O45977   1.508   7.670   5.004 -0.0155  0.1257  0.1083
11318WAT     H145978   1.551   7.607   4.960 -0.2394  0.3680 -0.4630
11318WAT     H245979   1.451   7.701   4.945 -1.9235 -1.0709  1.2116
11318WAT    EPW45980   1.506   7.665   4.989 -0.1533  0.3295 -0.2870
11319WAT      O45981   4.400   6.842   1.558 -0.2489 -0.0987  0.1238
11319WAT     H145982   4.386   6.906   1.615 -0.4345 -0.0899  0.0680
11319WAT     H245983   4.324   6.801   1.553  0.2285 -1.1832  1.1903
11319WAT    EPW45984   4.387   6.846   1.565  0.3181  0.0400 -0.6525
11320WAT      O45985   2.633   2.906   4.395 -0.1487 -0.1330  0.5960
11320WAT     H145986   2.591   2.830   4.391  0.6281 -0.5722  0.4679
11320WAT     H245987   2.666   2.906   4.476  1.6774 -0.9671 -0.0956
11320WAT    EPW45988   2.632   2.895   4.407  0.0804 -0.1357  0.1932
11321WAT      O45989   5.511   1.171   4.626  0.1377  0.0900 -0.2024
11321WAT     H145990   5.536   1.225   4.563  0.7863  1.4351  1.1403
11321WAT     H245991   5.427   1.155   4.608  0.3977  0.1469 -1.5769
11321WAT    EPW45992   5.503   1.177   4.614 -0.1320 -0.0567  0.3561
11322WAT      O45993   6.772   5.855   1.349  0.2173  0.0828 -0.0753
11322WAT     H145994   6.819   5.899   1.290  0.0609  3.6529  2.1534
11322WAT     H245995   6.689   5.873   1.327  0.1546  1.1992  0.9183
11322WAT    EPW45996   6.767   5.864   1.337  0.0605  0.5194 -0.2016
11323WAT      O45997   2.823   3.677   1.679  0.6172  0.0558 -0.0184
11323WAT     H145998   2.886   3.627   1.647 -0.1316 -0.9604  0.0515
11323WAT     H245999   2.789   3.716   1.608  0.0728 -0.8884 -0.2929
11323WAT    EPW46000   2.827   3.675   1.663 -0.3951  0.7599 -0.4423
11324WAT      O46001   2.975   7.137   1.887 -0.9638 -0.6674 -0.4648
11324WAT     H146002   2.944   7.055   1.881 -1.1437 -0.5562 -1.1292
11324WAT     H246003   2.940   7.177   1.818 -0.7291 -0.0732 -0.2437
11324WAT    EPW46004   2.965   7.131   1.876 -0.1777  0.2740 -0.5644
11325WAT      O46005   2.168   1.601   7.789 -0.3465 -0.0190  0.1238
11325WAT     H146006   2.182   1.606   7.703 -1.4222 -0.7321 -0.1164
11325WAT     H246007   2.175   1.515   7.806 -1.7955 -0.1048  0.4191
11325WAT    EPW46008   2.171   1.589   7.779  0.3993 -0.1051 -0.1401
11326WAT      O46009   1.618   5.150   2.726 -0.1112 -0.2905  0.4838
11326WAT     H146010   1.666   5.080   2.704 -0.7076 -0.1922 -1.3578
11326WAT     H246011   1.646   5.211   2.671 -0.8311  0.3847  0.8545
11326WAT    EPW46012   1.629   5.148   2.714  0.2781 -0.2925  0.2336
11327WAT      O46013   0.928   5.982   4.370  0.2396  0.2270  0.8048
11327WAT     H146014   0.987   5.977   4.434  0.4232  1.6924  0.7812
11327WAT     H246015   0.977   6.006   4.301  0.0456 -1.3008  0.0973
11327WAT    EPW46016   0.944   5.985   4.369 -0.5892 -0.4758  0.2391
11328WAT      O46017   7.132   6.203   2.984  0.0787 -0.4981 -0.0257
11328WAT     H146018   7.190   6.139   2.999  1.1500  0.6756  1.0756
11328WAT     H246019   7.078   6.167   2.925  1.6657 -1.7927 -0.8095
11328WAT    EPW46020   7.133   6.188   2.977  0.0615 -0.4893  0.1637
11329WAT      O46021   3.828   2.684   3.560 -0.0683 -0.3538 -0.2644
11329WAT     H146022   3.808   2.694   3.476 -1.2220 -1.0412 -0.0847
11329WAT     H246023   3.911   2.710   3.564 -0.2760  0.5831 -1.4336
11329WAT    EPW46024   3.837   2.690   3.549 -0.3496  0.3947  0.0532
11330WAT      O46025   5.529   2.002   1.827 -0.1410  0.9330 -0.4353
11330WAT     H146026   5.462   1.949   1.846  0.5194  0.7048  1.4674
11330WAT     H246027   5.599   1.950   1.833  0.3985  1.6825  0.0974
11330WAT    EPW46028   5.529   1.986   1.831  0.2798 -0.5066 -0.9352
11331WAT      O46029   2.019   0.904   1.955  0.3233  0.0524  0.6618
11331WAT     H146030   2.078   0.841   1.946 -0.1193 -0.2011 -0.6009
11331WAT     H246031   2.025   0.949   1.881 -0.6140  0.4147  0.7925
11331WAT    EPW46032   2.029   0.901   1.943 -0.4195  0.1378 -0.0902
11332WAT      O46033   4.235   4.822   1.963  0.1399 -0.2255 -0.5551
11332WAT     H146034   4.206   4.891   1.918 -0.9578  1.9347  3.1069
11332WAT     H246035   4.311   4.850   1.996 -0.2435 -0.7987  0.8595
11332WAT    EPW46036   4.242   4.836   1.961 -0.1383 -0.1015  0.2062
11333WAT      O46037   1.929   0.569   7.279 -0.4036 -0.0673 -0.9758
11333WAT     H146038   1.996   0.594   7.328 -0.6541  1.0484 -1.1734
11333WAT     H246039   1.953   0.592   7.198 -1.3411  1.0977 -0.9497
11333WAT    EPW46040   1.942   0.576   7.274 -0.4819 -0.2070 -0.3775
11334WAT      O46041   4.281   7.456   0.410 -0.0862  0.3443 -0.1979
11334WAT     H146042   4.283   7.495   0.331 -2.0199  0.6258 -0.1438
11334WAT     H246043   4.364   7.463   0.437  0.2725  1.7713 -1.4760
11334WAT    EPW46044   4.294   7.463   0.402  0.2816  0.2104 -0.0808
11335WAT      O46045   7.641   4.569   4.317  0.8154 -0.4969  0.4257
11335WAT     H146046   7.663   4.642   4.360 -2.2171  1.0144 -0.2988
11335WAT     H246047   7.653   4.590   4.233  0.5397 -1.0513  0.2400
11335WAT    EPW46048   7.646   4.583   4.311 -0.4896  0.2818 -0.1175
11336WAT      O46049   2.112   6.940   0.155  0.0357 -0.2615 -0.7891
11336WAT     H146050   2.180   6.972   0.110 -0.0873 -1.2774 -1.7598
11336WAT     H246051   2.138   6.860   0.177 -0.3037 -0.1319  0.0948
11336WAT    EPW46052   2.126   6.933   0.151 -0.4834  0.6218  0.4576
11337WAT      O46053   7.991   2.509   2.392 -0.2611 -0.3208  0.1025
11337WAT     H146054   7.953   2.586   2.377 -0.6615 -0.1287  1.8388
11337WAT     H246055   8.065   2.531   2.432 -0.2689 -0.8142  0.3960
11337WAT    EPW46056   7.996   2.524   2.396  0.6253  0.4772  0.1035
11338WAT      O46057   3.415   4.604   0.477 -0.1670  0.5667 -0.2958
11338WAT     H146058   3.387   4.622   0.396 -2.5075 -0.5117  0.1965
11338WAT     H246059   3.346   4.620   0.527  1.2898  1.3461  1.5473
11338WAT    EPW46060   3.401   4.609   0.472 -0.3845 -0.0061 -0.1476
11339WAT      O46061   2.777   3.396   3.460 -0.0011 -0.1468 -0.5018
11339WAT     H146062   2.827   3.468   3.461  1.5115 -1.1234 -1.5221
11339WAT     H246063   2.836   3.332   3.459 -1.3231 -1.3957 -0.1369
11339WAT    EPW46064   2.793   3.397   3.460  0.4050 -1.0126  0.0603
11340WAT      O46065   2.452   3.207   5.000 -0.2102  0.1831  0.2121
11340WAT     H146066   2.436   3.132   4.957  0.3620 -0.1308  0.5324
11340WAT     H246067   2.539   3.217   4.991 -0.5758  2.2839 -2.2163
11340WAT    EPW46068   2.463   3.197   4.992 -0.0786 -0.0263  0.0095
11341WAT      O46069   3.030   2.010   5.741 -0.1711  0.3198  0.4341
11341WAT     H146070   2.959   1.988   5.695  0.1437  0.3210 -0.0564
11341WAT     H246071   3.093   1.962   5.707  0.0366  0.1871  0.9922
11341WAT    EPW46072   3.028   2.000   5.729 -0.2920  0.0279 -0.0853
11342WAT      O46073   7.112   2.531   1.493 -0.6921 -0.3802  0.2804
11342WAT     H146074   7.181   2.569   1.531 -0.0986 -0.5198 -0.6416
11342WAT     H246075   7.122   2.447   1.512  0.2540 -0.6214 -1.1237
11342WAT    EPW46076   7.124   2.524   1.502 -0.2743  0.2726 -0.1066
11343WAT      O46077   0.768   2.264   3.090 -0.3699  0.0804 -0.0213
11343WAT     H146078   0.681   2.271   3.095 -0.5675 -0.7327 -1.5775
11343WAT     H246079   0.789   2.319   3.025  0.2157 -0.1623 -0.0430
11343WAT    EPW46080   0.758   2.273   3.081 -0.0510  0.0246 -0.0779
11344WAT      O46081   0.032   4.551   3.118 -0.1762 -0.4747  0.1584
11344WAT     H146082   0.067   4.516   3.047  0.6723 -1.2779  0.9381
11344WAT     H246083   0.097   4.599   3.151 -1.4324  2.3108 -1.1183
11344WAT    EPW46084   0.047   4.553   3.113  0.0512 -0.1071  0.0299
11345WAT      O46085   0.656   4.252   3.039 -0.2497  0.2927 -0.2561
11345WAT     H146086   0.635   4.186   3.092  0.2627 -0.0332 -0.4451
11345WAT     H246087   0.702   4.213   2.976  0.2236  0.8536 -0.2685
11345WAT    EPW46088   0.660   4.236   3.038  0.3147 -0.3386  1.1159
11346WAT      O46089   0.335   6.026   3.830 -0.1065  0.3244  0.2703
11346WAT     H146090   0.312   6.103   3.866  0.3621  1.4131 -1.6223
11346WAT     H246091   0.418   6.016   3.855 -0.1926  0.3896  0.5895
11346WAT    EPW46092   0.344   6.036   3.839 -0.2284  0.3012 -0.0256
11347WAT      O46093   1.352   5.043   5.007 -0.2609 -0.0559  0.0205
11347WAT     H146094   1.308   5.010   4.940 -1.9878  1.6130  0.2338
11347WAT     H246095   1.317   5.122   5.017  0.3078 -0.0446  2.5604
11347WAT    EPW46096   1.340   5.050   4.999 -0.4440 -0.1405 -0.4156
11348WAT      O46097   3.157   3.688   2.858  0.2523  0.3468  0.0509
11348WAT     H146098   3.232   3.655   2.828  1.2107 -0.9858  3.4425
11348WAT     H246099   3.183   3.748   2.916 -1.3709  1.1805 -0.0205
11348WAT    EPW46100   3.172   3.692   2.862 -0.4319  0.7994 -0.0370
11349WAT      O46101   3.088   3.015   7.410  0.5555 -1.1050 -0.3309
11349WAT     H146102   3.064   3.099   7.405  2.7352 -0.4819 -1.4186
11349WAT     H246103   3.016   2.976   7.441  0.0957  1.4447  2.3691
11349WAT    EPW46104   3.073   3.022   7.414 -0.1406  0.1444 -0.3795
11350WAT      O46105   0.605   3.753   4.527  0.0454 -0.9218 -0.0046
11350WAT     H146106   0.683   3.739   4.564  0.4648 -2.3958 -1.3747
11350WAT     H246107   0.614   3.831   4.489  0.2599 -0.3004  1.2612
11350WAT    EPW46108   0.618   3.763   4.527 -0.9101  0.2090 -0.3069
11351WAT      O46109   7.347   1.516   0.559 -0.4089  0.2018  0.1770
11351WAT     H146110   7.304   1.448   0.525 -1.4467 -0.0526  1.8898
11351WAT     H246111   7.419   1.480   0.593  0.1768  0.3308 -0.8595
11351WAT    EPW46112   7.351   1.501   0.559 -0.0528 -0.2200  0.1906
11352WAT      O46113   6.621   3.897   3.623  0.3797  0.4276 -0.0811
11352WAT     H146114   6.694   3.849   3.623 -0.2775 -0.5805 -0.0069
11352WAT     H246115   6.581   3.875   3.549 -1.1702 -1.0891  1.1327
11352WAT    EPW46116   6.626   3.887   3.612  0.2536  0.3375 -0.4475
11353WAT      O46117   1.517   1.619   3.338  0.5320 -0.8345  0.2308
11353WAT     H146118   1.555   1.632   3.416 -0.4268 -1.0912  0.7549
11353WAT     H246119   1.561   1.552   3.305  0.1312 -1.5512  1.1145
11353WAT    EPW46120   1.529   1.611   3.345 -0.1095  0.0994 -0.1171
11354WAT      O46121   7.157   1.729   2.863  0.4186 -0.4553 -0.1924
11354WAT     H146122   7.092   1.670   2.869  1.5177 -1.6427  0.6848
11354WAT     H246123   7.121   1.794   2.816 -1.3038 -1.1796  0.0263
11354WAT    EPW46124   7.142   1.730   2.857  0.5838  0.4358  0.2770
11355WAT      O46125   5.029   8.001   4.198  0.0831  0.0929 -0.2953
11355WAT     H146126   4.990   7.925   4.180  0.0312 -0.5683  2.3132
11355WAT     H246127   5.113   7.986   4.178 -0.2282  0.0881 -1.7413
11355WAT    EPW46128   5.036   7.988   4.192  0.0369  0.3085 -0.0652
11356WAT      O46129   4.194   2.981   6.892 -0.0883  0.2014 -0.7748
11356WAT     H146130   4.138   3.001   6.956 -1.5266 -0.3326 -1.8036
11356WAT     H246131   4.184   3.046   6.835 -0.5564 -0.4898 -1.5050
11356WAT    EPW46132   4.184   2.993   6.893  0.3096  0.0111  0.3002
11357WAT      O46133   5.442   8.001   4.191  0.4102 -0.2190 -0.2659
11357WAT     H146134   5.514   7.952   4.199  0.7029 -0.2165 -2.3541
11357WAT     H246135   5.471   8.073   4.151 -0.6655  0.0100 -0.6675
11357WAT    EPW46136   5.457   8.005   4.187 -0.8922 -0.3160  0.4828
11358WAT      O46137   0.994   1.665   1.661 -0.4735  0.2716  0.4143
11358WAT     H146138   0.912   1.666   1.632 -0.7685 -0.9138  1.1214
11358WAT     H246139   1.008   1.748   1.684 -1.9842  0.2754  1.5545
11358WAT    EPW46140   0.984   1.677   1.660  0.3209  0.1643 -0.1168
11359WAT      O46141   0.835   4.523   1.692 -0.1901 -0.1654  0.4065
11359WAT     H146142   0.759   4.513   1.649 -0.3819  1.2576  0.3674
11359WAT     H246143   0.895   4.509   1.630 -0.2306 -4.3565  1.0389
11359WAT    EPW46144   0.833   4.520   1.676 -0.1385  0.9332 -0.2235
11360WAT      O46145   3.150   1.235   3.052 -0.7784  0.0768 -0.2351
11360WAT     H146146   3.147   1.249   3.138  1.7971  1.7443 -0.3184
11360WAT     H246147   3.121   1.309   3.017  1.0480  0.6078 -0.7404
11360WAT    EPW46148   3.145   1.248   3.059  0.1444  0.5296 -0.5636
11361WAT      O46149   1.744   7.630   1.883  0.2355  0.5293 -0.3903
11361WAT     H146150   1.800   7.668   1.828 -0.5619  1.4193 -0.6181
11361WAT     H246151   1.689   7.695   1.904 -0.2177 -0.1122  0.4725
11361WAT    EPW46152   1.744   7.645   1.878  0.6190 -0.3994 -0.1842
11362WAT      O46153   5.417   0.808   7.563 -0.5293  0.1021 -0.1510
11362WAT     H146154   5.472   0.872   7.587  0.0876 -1.1347  2.0305
11362WAT     H246155   5.459   0.769   7.497  0.8421 -0.2395  0.8723
11362WAT    EPW46156   5.432   0.812   7.557  0.4416  0.2865 -0.3205
11363WAT      O46157   0.819   0.616   3.309 -0.2302 -0.6774  0.3272
11363WAT     H146158   0.791   0.537   3.335 -1.3554 -0.8538 -1.2733
11363WAT     H246159   0.772   0.671   3.358  0.9486 -0.9590  1.8392
11363WAT    EPW46160   0.808   0.612   3.320 -0.1297  0.7163  0.2245
11364WAT      O46161   1.975   3.800   7.948 -0.2739 -0.4963 -0.3457
11364WAT     H146162   2.019   3.847   8.007  0.1246  0.3783 -1.3165
11364WAT     H246163   1.994   3.717   7.970 -0.8197 -0.2294  1.2567
11364WAT    EPW46164   1.985   3.795   7.960 -0.6085 -0.7364  0.0502
11365WAT      O46165   4.918   7.341   4.338  0.2490  0.4246 -0.0498
11365WAT     H146166   4.893   7.264   4.306  3.0900 -1.1633  1.1367
11365WAT     H246167   4.869   7.351   4.409 -0.3703 -0.1144 -0.3932
11365WAT    EPW46168   4.907   7.331   4.344  0.0231  0.1550  0.7381
11366WAT      O46169   4.159   5.312   7.831 -0.2401  0.4343  0.2907
11366WAT     H146170   4.241   5.335   7.851  0.5569 -0.6647 -1.5084
11366WAT     H246171   4.151   5.335   7.748 -1.3817 -0.4859  0.1286
11366WAT    EPW46172   4.170   5.319   7.822 -0.4873 -0.3279 -0.1660
11367WAT      O46173   1.713   5.702   4.227  0.0269 -0.9353  0.1033
11367WAT     H146174   1.742   5.760   4.285 -2.0654  1.9749 -1.5059
11367WAT     H246175   1.628   5.721   4.220 -0.1433 -2.2354 -2.6648
11367WAT    EPW46176   1.705   5.713   4.235 -0.6014 -0.0335 -0.0380
11368WAT      O46177   2.590   0.181   2.637 -0.0786 -0.2827  0.1279
11368WAT     H146178   2.655   0.193   2.694 -1.1617 -1.1110  1.5966
11368WAT     H246179   2.527   0.234   2.665 -0.4579 -0.3130 -0.6169
11368WAT    EPW46180   2.590   0.190   2.649 -0.1202 -0.5814  0.2576
11369WAT      O46181   2.694   1.405   1.245 -0.1179 -0.0504 -0.9314
11369WAT     H146182   2.670   1.477   1.202  1.8182  1.0027 -0.3345
11369WAT     H246183   2.707   1.433   1.326  0.7300 -1.0512 -0.7010
11369WAT    EPW46184   2.692   1.419   1.251  0.1347 -0.0784  0.3011
11370WAT      O46185   1.706   3.394   6.567 -0.5979  0.1459 -0.5913
11370WAT     H146186   1.656   3.465   6.555 -1.0979 -0.3247 -1.3677
11370WAT     H246187   1.681   3.340   6.503 -0.6597 -0.9772  0.3501
11370WAT    EPW46188   1.695   3.397   6.556 -0.6553 -0.1529  0.0297
11371WAT      O46189   7.909   3.520   1.598  0.4472  0.2085 -0.1044
11371WAT     H146190   7.843   3.465   1.586 -0.6390  1.5926 -0.7814
11371WAT     H246191   7.900   3.544   1.682 -0.2959  0.8338 -0.3509
11371WAT    EPW46192   7.898   3.515   1.609 -0.0103  0.1717 -0.4005
11372WAT      O46193   1.444   1.681   2.597  0.0270 -0.3064  0.1828
11372WAT     H146194   1.461   1.602   2.630 -2.7452 -1.4577 -0.8436
11372WAT     H246195   1.432   1.665   2.512  0.9793  1.5501 -0.3578
11372WAT    EPW46196   1.445   1.667   2.589 -0.1306  0.5182  0.6208
11373WAT      O46197   2.418   3.163   0.623  0.4560 -0.0398  0.2597
11373WAT     H146198   2.390   3.203   0.695  1.7288  2.2204 -0.3843
11373WAT     H246199   2.353   3.107   0.604 -0.3290 -0.0174  2.5841
11373WAT    EPW46200   2.404   3.161   0.631 -0.5505 -0.3047 -0.3163
11374WAT      O46201   7.458   4.321   4.239  0.1389 -0.0490  0.2698
11374WAT     H146202   7.452   4.391   4.290  0.4051 -1.0714  1.7512
11374WAT     H246203   7.399   4.337   4.176  0.1587  1.4642  0.6070
11374WAT    EPW46204   7.448   4.333   4.237  0.1144  0.2797  0.1562
11375WAT      O46205   2.444   4.920   4.272 -0.1978  0.7645 -0.4476
11375WAT     H146206   2.454   4.869   4.202 -0.6397  0.7498 -0.4989
11375WAT     H246207   2.378   4.972   4.251 -0.7945  0.3048  0.2230
11375WAT    EPW46208   2.436   4.920   4.259  0.0303  0.0647 -0.2693
11376WAT      O46209   1.682   1.958   3.259  0.2136  0.4842 -0.3545
11376WAT     H146210   1.671   1.875   3.285 -0.4255  1.2040  1.9358
11376WAT     H246211   1.766   1.973   3.275 -0.2824  1.0919  2.1969
11376WAT    EPW46212   1.693   1.948   3.265  0.5341  0.2015 -0.1196
11377WAT      O46213   5.994   7.594   1.350  0.6026 -0.0217  0.4088
11377WAT     H146214   5.932   7.655   1.360  2.4119  2.4283 -1.8303
11377WAT     H246215   6.005   7.562   1.430 -0.5474  2.5757  1.7317
11377WAT    EPW46216   5.986   7.599   1.363  0.2886 -0.2982  0.0183
11378WAT      O46217   5.866   0.034   5.547  0.3363 -0.4091  0.1487
11378WAT     H146218   5.887  -0.051   5.549  0.2615 -0.4216  0.7736
11378WAT     H246219   5.878   0.059   5.630 -1.7982 -0.3357  0.4836
11378WAT    EPW46220   5.871   0.025   5.560  0.0991 -0.2705 -0.0152
11379WAT      O46221   0.222   7.096   1.783 -0.7046 -0.1037  0.0312
11379WAT     H146222   0.187   7.146   1.721  1.4241 -0.0443 -1.2322
11379WAT     H246223   0.184   7.019   1.771 -0.4467 -0.0536 -1.2906
11379WAT    EPW46224   0.211   7.092   1.772  0.4235  0.0304 -0.0607
11380WAT      O46225   4.770   1.128   0.871  0.2415 -0.3100 -0.5372
11380WAT     H146226   4.796   1.199   0.914 -1.0696 -0.5464  0.7219
11380WAT     H246227   4.842   1.102   0.829  0.7670  1.7232 -1.0100
11380WAT    EPW46228   4.784   1.135   0.871 -0.0824  0.0799 -0.5352
11381WAT      O46229   0.969   0.643   1.773  0.3639 -0.6582  0.4194
11381WAT     H146230   0.945   0.689   1.703 -0.8847  1.7018  2.2411
11381WAT     H246231   0.912   0.576   1.774  1.0521 -1.3504 -1.2752
11381WAT    EPW46232   0.957   0.640   1.763  0.0799 -0.0707 -0.3058
11382WAT      O46233   1.424   3.995   2.260  0.1859 -0.5022  0.7623
11382WAT     H146234   1.467   3.949   2.320 -1.4024 -0.5014  1.9717
11382WAT     H246235   1.363   3.939   2.231 -1.0678  0.4436  1.4677
11382WAT    EPW46236   1.421   3.980   2.265 -0.4362  0.0225 -0.0971
11383WAT      O46237   0.801   3.030   2.479 -0.7171  0.4544 -0.2401
11383WAT     H146238   0.858   3.005   2.540 -1.9759  0.9040  1.1779
11383WAT     H246239   0.813   2.972   2.415 -0.3625 -0.9272  1.0325
11383WAT    EPW46240   0.811   3.018   2.479 -0.5071  0.0121  0.2416
11384WAT      O46241   3.835   4.961   3.839 -0.5096  0.2830 -0.5568
11384WAT     H146242   3.864   5.024   3.786 -1.9103  0.8697 -0.6762
11384WAT     H246243   3.872   4.980   3.916 -0.4208  0.9005 -0.7458
11384WAT    EPW46244   3.845   4.973   3.843  0.3216 -0.2786  0.5006
11385WAT      O46245   3.304   3.371   6.820 -0.3516  0.2075  0.2787
11385WAT     H146246   3.335   3.385   6.740  0.2177 -0.7659  0.3059
11385WAT     H246247   3.373   3.389   6.872 -0.2790 -0.5232  0.4440
11385WAT    EPW46248   3.319   3.376   6.816  0.7935 -0.0744  0.1171
11386WAT      O46249   0.359   1.603   4.909 -0.7386 -0.2386 -1.2724
11386WAT     H146250   0.374   1.644   4.833 -2.0950  1.1220 -0.8521
11386WAT     H246251   0.439   1.586   4.939  0.0490  3.4357 -0.8115
11386WAT    EPW46252   0.373   1.607   4.902 -0.0861  0.0328  0.1537
11387WAT      O46253   4.434   7.427   6.179 -0.1979 -0.0774  0.4859
11387WAT     H146254   4.360   7.459   6.211  0.7194  0.8389  1.7904
11387WAT     H246255   4.440   7.463   6.100  0.0833  1.9189  1.3544
11387WAT    EPW46256   4.424   7.437   6.172 -0.4945  0.1788  0.0022
11388WAT      O46257   1.178   7.216   1.581 -0.3038 -0.8844 -0.1158
11388WAT     H146258   1.229   7.227   1.650 -0.5756 -1.7812  0.2398
11388WAT     H246259   1.102   7.190   1.615 -1.3924  1.4531 -0.5438
11388WAT    EPW46260   1.174   7.214   1.596 -0.3322  0.3857 -0.0800
11389WAT      O46261   3.300   5.576   3.007 -0.6565  0.6372  0.2650
11389WAT     H146262   3.269   5.501   3.041  0.0485 -0.5692 -1.5973
11389WAT     H246263   3.386   5.567   3.016 -0.5374  0.9110 -0.5898
11389WAT    EPW46264   3.308   5.564   3.013 -0.2892  0.2881 -0.2409
11390WAT      O46265   1.886   4.407   8.008 -0.3526  0.2349 -0.3981
11390WAT     H146266   1.812   4.377   7.973 -0.2843 -0.1860 -0.1841
11390WAT     H246267   1.897   4.484   7.968 -0.9299  0.3266 -0.3945
11390WAT    EPW46268   1.876   4.414   7.997  0.1503 -0.0739  0.2155
11391WAT      O46269   6.526   5.953   1.366  0.1825  1.2717 -0.3668
11391WAT     H146270   6.547   5.987   1.288  1.6506  1.9536  0.2869
11391WAT     H246271   6.511   6.024   1.415 -2.2832  0.8444 -0.3676
11391WAT    EPW46272   6.527   5.969   1.362  0.2607  0.4937 -0.1203
11392WAT      O46273   0.540   7.924   1.357 -0.5929  0.0527 -0.0089
11392WAT     H146274   0.466   7.910   1.401 -0.3396 -0.2862  0.3186
11392WAT     H246275   0.600   7.931   1.420 -0.3775  0.5417 -0.2608
11392WAT    EPW46276   0.538   7.923   1.373 -0.2045 -0.0720 -0.7522
11393WAT      O46277   4.883   5.706   0.462  0.2745 -0.6863  0.2497
11393WAT     H146278   4.952   5.713   0.514  1.2423 -0.3240 -1.0249
11393WAT     H246279   4.917   5.717   0.382 -1.3165 -0.0671 -0.3767
11393WAT    EPW46280   4.898   5.709   0.458  0.2345  0.0189  0.2008
11394WAT      O46281   7.953   6.374   2.743 -0.4003 -0.5432  0.1093
11394WAT     H146282   7.908   6.422   2.800  0.1437 -0.5518  0.5508
11394WAT     H246283   7.972   6.431   2.679  0.9602  0.0762  1.0192
11394WAT    EPW46284   7.950   6.390   2.742  0.7409 -0.2468  0.2678
11395WAT      O46285   5.498   2.398   6.994 -0.1251  0.3630  0.1682
11395WAT     H146286   5.526   2.452   6.931 -1.9014  2.0180  0.6745
11395WAT     H246287   5.418   2.374   6.966 -0.5400  0.3578  1.3223
11395WAT    EPW46288   5.490   2.403   6.980  0.4233 -0.4400  0.2906
11396WAT      O46289   3.809   4.509   1.379  0.0010 -0.3554  0.4657
11396WAT     H146290   3.754   4.567   1.416 -0.0936 -0.5161  0.5758
11396WAT     H246291   3.809   4.442   1.435  0.4347 -0.2912  0.5461
11396WAT    EPW46292   3.801   4.508   1.393  0.4837 -0.7328  0.6387
11397WAT      O46293   7.632   7.265   0.954 -0.1156  0.7475  0.1475
11397WAT     H146294   7.628   7.281   1.040  0.4866  1.6287  0.0260
11397WAT     H246295   7.617   7.342   0.918 -0.3908  0.3727 -0.5526
11397WAT    EPW46296   7.630   7.279   0.961  0.0248 -0.4017 -0.8141
11398WAT      O46297   3.962   4.930   1.907  0.0045 -0.2815  0.0261
11398WAT     H146298   3.953   4.973   1.831  1.3915 -1.6585 -0.9821
11398WAT     H246299   3.940   4.848   1.887 -0.4061 -0.5237  1.3536
11398WAT    EPW46300   3.957   4.924   1.893  0.0136 -0.2976 -0.0085
11399WAT      O46301   1.388   5.099   3.329  0.0751  0.0630  0.1810
11399WAT     H146302   1.401   5.047   3.398  0.4443  0.0533  0.1065
11399WAT     H246303   1.336   5.161   3.361 -1.6002 -1.1177 -0.0979
11399WAT    EPW46304   1.382   5.100   3.344  0.0313  0.3416  0.0764
11400WAT      O46305   3.434   2.059   6.028 -0.3074 -0.3364  0.2039
11400WAT     H146306   3.379   2.118   5.996  0.8900  1.3485  1.1092
11400WAT     H246307   3.412   2.054   6.113 -1.5492 -2.5995 -0.1424
11400WAT    EPW46308   3.422   2.067   6.036  0.6109  0.4990  0.4944
11401WAT      O46309   0.296   0.847   3.538  0.1409  0.4762 -0.6260
11401WAT     H146310   0.237   0.826   3.599  0.0263  1.1780 -0.4887
11401WAT     H246311   0.362   0.880   3.585  0.1985  0.6874 -0.8581
11401WAT    EPW46312   0.297   0.849   3.554 -0.2934  0.3062 -0.2823
11402WAT      O46313   3.987   7.915   1.357 -0.1379 -0.7971 -0.2756
11402WAT     H146314   3.917   7.966   1.362  0.5944  0.1527  1.1061
11402WAT     H246315   3.982   7.880   1.277 -1.2250  0.6359 -0.8768
11402WAT    EPW46316   3.976   7.917   1.346  0.1019 -0.3288 -1.1662
11403WAT      O46317   1.262   7.967   3.313  0.2697  0.3917 -0.1202
11403WAT     H146318   1.273   8.042   3.269  0.1302 -0.1975 -1.2163
11403WAT     H246319   1.319   7.913   3.274  1.9217  0.4477  2.0543
11403WAT    EPW46320   1.272   7.970   3.301 -0.3955 -0.3551  0.5121
11404WAT      O46321   2.707   3.072   3.757  0.0225  0.5563  0.4136
11404WAT     H146322   2.791   3.073   3.735  0.4926 -1.0086  1.9093
11404WAT     H246323   2.706   3.112   3.834 -0.5305  0.2034  0.5977
11404WAT    EPW46324   2.719   3.078   3.765  0.1562  0.3622  0.5679
11405WAT      O46325   3.376   4.458   6.162 -0.5742 -0.3998 -0.4384
11405WAT     H146326   3.364   4.376   6.136 -0.5832 -0.6859  0.4383
11405WAT     H246327   3.345   4.459   6.243  0.9546  0.0430  0.1786
11405WAT    EPW46328   3.369   4.446   6.170  0.9628 -0.1004 -0.1180
11406WAT      O46329   0.516   0.936   3.724 -0.0523 -0.1016  0.4519
11406WAT     H146330   0.478   0.915   3.800 -0.6389 -0.9757 -0.0741
11406WAT     H246331   0.574   0.997   3.747 -2.8553  2.5939  1.1038
11406WAT    EPW46332   0.519   0.942   3.739 -0.4107 -0.2505  0.2566
11407WAT      O46333   3.623   3.775   7.321  0.0723  0.2373 -0.1771
11407WAT     H146334   3.542   3.803   7.306 -0.1775 -0.3329  0.0710
11407WAT     H246335   3.659   3.775   7.242 -0.2267  0.3272 -0.3153
11407WAT    EPW46336   3.616   3.779   7.307  0.1480  0.2229  0.4606
11408WAT      O46337   7.663   7.546   0.860 -0.1496  0.2144 -0.0618
11408WAT     H146338   7.691   7.501   0.791  0.4779  0.7269 -0.1572
11408WAT     H246339   7.606   7.603   0.826  1.6355  1.8255 -0.5083
11408WAT    EPW46340   7.659   7.548   0.845  0.7425  0.0951 -0.0017
11409WAT      O46341   3.815   7.662   0.924  0.0307 -0.3071  0.1363
11409WAT     H146342   3.858   7.726   0.965 -1.9804  1.0349  0.3006
11409WAT     H246343   3.733   7.693   0.919 -0.4856 -1.8400 -1.9978
11409WAT    EPW46344   3.809   7.676   0.930  0.3833 -0.2405 -0.0828
11410WAT      O46345   5.609   7.438   2.274 -0.5568 -0.0196  0.2546
11410WAT     H146346   5.647   7.436   2.195  1.8482 -0.5047  1.3567
11410WAT     H246347   5.594   7.523   2.287 -1.0869  0.0600 -0.7358
11410WAT    EPW46348   5.612   7.451   2.264 -0.3948 -0.3573  0.5582
11411WAT      O46349   2.899   2.738   3.085 -0.4401 -0.5373  0.1807
11411WAT     H146350   2.813   2.731   3.078 -0.4870 -0.0722  0.3025
11411WAT     H246351   2.917   2.818   3.055 -0.1966 -0.1307  1.3456
11411WAT    EPW46352   2.889   2.748   3.079  0.0599 -0.2522 -0.5449
11412WAT      O46353   6.809   5.089   4.643  0.4282 -0.2532 -0.2460
11412WAT     H146354   6.764   5.123   4.577  0.6984  0.9765  0.1822
11412WAT     H246355   6.892   5.106   4.623  0.5026  0.2873  0.4831
11412WAT    EPW46356   6.814   5.097   4.630 -0.0165 -0.0628 -0.1720
11413WAT      O46357   7.891   7.948   2.651 -0.0974  0.5940 -0.3057
11413WAT     H146358   7.962   7.940   2.701  0.0764 -2.3886 -0.8050
11413WAT     H246359   7.902   8.025   2.611  2.2245  0.7983  0.5746
11413WAT    EPW46360   7.903   7.958   2.652 -0.1077  0.5365  0.3239
11414WAT      O46361   2.336   4.732   1.544  0.3834 -0.7953  0.4430
11414WAT     H146362   2.338   4.806   1.498 -0.8911 -1.1385 -0.2090
11414WAT     H246363   2.259   4.696   1.523  0.7205 -2.0305  1.1831
11414WAT    EPW46364   2.325   4.738   1.534  0.3641  0.2588  0.6029
11415WAT      O46365   7.460   5.422   1.492  0.0220  0.2219 -0.3209
11415WAT     H146366   7.452   5.352   1.544  2.2812 -0.6270 -0.9979
11415WAT     H246367   7.411   5.401   1.422  0.5944 -0.6505 -0.4724
11415WAT    EPW46368   7.451   5.408   1.489 -0.2826 -0.2747 -0.4118
11416WAT      O46369   7.467   1.944   4.367 -0.3488 -0.3993  0.1886
11416WAT     H146370   7.482   1.875   4.417  0.3451 -0.2999  0.1404
11416WAT     H246371   7.460   2.010   4.423 -3.1009 -0.7828  0.3888
11416WAT    EPW46372   7.468   1.944   4.383  0.1161 -0.2193  0.2074
11417WAT      O46373   1.657   4.670   1.407 -0.2504  0.4715  0.2539
11417WAT     H146374   1.713   4.612   1.442 -0.4657  1.6951  2.8281
11417WAT     H246375   1.650   4.643   1.324  2.0391 -1.3281  0.5224
11417WAT    EPW46376   1.664   4.657   1.400  0.4443 -0.3294 -0.8083
11418WAT      O46377   0.271   1.815   0.349 -0.5133  0.1299  0.4110
11418WAT     H146378   0.233   1.804   0.427 -2.4846 -0.6215 -0.5716
11418WAT     H246379   0.258   1.739   0.309 -1.3556  1.1156 -1.3455
11418WAT    EPW46380   0.263   1.802   0.354 -0.6131 -0.2269 -0.4745
11419WAT      O46381   2.348   3.993   2.602 -0.3015 -0.3478  0.4146
11419WAT     H146382   2.404   3.926   2.604  2.1482  1.5146 -0.1276
11419WAT     H246383   2.377   4.046   2.666  0.2551  1.8340 -1.4878
11419WAT    EPW46384   2.361   3.991   2.612  0.9460 -0.4137  0.1260
11420WAT      O46385   1.973   2.102   6.090 -0.1615  0.2982  0.8626
11420WAT     H146386   1.996   2.175   6.132 -0.5484 -0.2146  2.0038
11420WAT     H246387   1.933   2.055   6.151  1.2078 -1.4341  0.4966
11420WAT    EPW46388   1.970   2.106   6.105 -0.5495  0.2207  0.4205
11421WAT      O46389   0.116   3.877   0.468 -0.0167  0.5399  0.1183
11421WAT     H146390   0.149   3.892   0.388  3.1038  1.5447  1.4487
11421WAT     H246391   0.122   3.790   0.476 -0.0169  0.4651 -0.5816
11421WAT    EPW46392   0.121   3.866   0.457  0.5977 -0.6742  0.7802
11422WAT      O46393   1.174   6.990   0.967  0.2815 -0.5539 -0.1431
11422WAT     H146394   1.154   7.043   1.034  0.2154 -1.4260  0.5482
11422WAT     H246395   1.261   6.994   0.963  0.2745 -0.3633 -0.1280
11422WAT    EPW46396   1.184   6.998   0.976 -0.3330 -0.0748 -1.2979
11423WAT      O46397   4.290   4.161   1.833  0.1787  0.1895 -0.0516
11423WAT     H146398   4.352   4.219   1.815 -2.4814  2.3924 -3.5335
11423WAT     H246399   4.257   4.189   1.909  2.4103 -0.2239  1.1400
11423WAT    EPW46400   4.294   4.174   1.842  0.0551  0.2190 -0.1019
11424WAT      O46401   1.312   4.880   1.210  0.0280  0.3119 -0.1599
11424WAT     H146402   1.266   4.824   1.161 -0.3404 -0.1242  0.6485
11424WAT     H246403   1.258   4.949   1.218 -0.2879  0.0161  0.3519
11424WAT    EPW46404   1.297   4.882   1.204  0.8184 -0.4324  0.1365
11425WAT      O46405   2.353   2.873   1.946  0.1479 -0.2891  0.0265
11425WAT     H146406   2.368   2.958   1.932 -0.2030 -0.1852  0.2528
11425WAT     H246407   2.412   2.851   2.005  0.0943 -0.1462  0.1346
11425WAT    EPW46408   2.364   2.882   1.952  0.1165 -0.3125 -0.0114
11426WAT      O46409   5.804   2.041   1.569  0.2543  0.2161 -0.5811
11426WAT     H146410   5.722   2.033   1.541  0.5242 -2.0504 -0.9346
11426WAT     H246411   5.817   1.968   1.614  2.7688 -0.6750 -2.5211
11426WAT    EPW46412   5.794   2.029   1.572  0.0116 -0.0520  0.5811
11427WAT      O46413   0.502   4.395   2.507  0.0249  0.1193  0.6743
11427WAT     H146414   0.485   4.428   2.586 -1.0057 -2.1047  1.4574
11427WAT     H246415   0.573   4.347   2.520  0.5552  0.6869 -0.0606
11427WAT    EPW46416   0.510   4.393   2.520  0.3418  0.1409 -0.5774
11428WAT      O46417   2.894   2.747   6.209  0.3138  0.0766 -0.4660
11428WAT     H146418   2.829   2.708   6.252  0.8809 -0.7789 -0.3501
11428WAT     H246419   2.853   2.788   6.143 -0.2673 -1.4038 -1.0782
11428WAT    EPW46420   2.879   2.747   6.205  0.2800  0.5351  0.4774
11429WAT      O46421   3.654   2.366   4.093 -0.9191 -0.2441  0.5100
11429WAT     H146422   3.598   2.366   4.026 -0.4264 -2.7388  0.0347
11429WAT     H246423   3.693   2.444   4.087 -2.3137  0.3986 -0.8474
11429WAT    EPW46424   3.651   2.378   4.082 -0.0772 -0.0602  0.6355
11430WAT      O46425   3.303   0.954   4.402  0.5345 -0.2267 -0.2832
11430WAT     H146426   3.365   1.015   4.395 -0.1330  0.2984 -2.5544
11430WAT     H246427   3.320   0.900   4.335 -0.2169 -1.2962  0.3538
11430WAT    EPW46428   3.315   0.955   4.391  0.4372  0.2929  0.5426
11431WAT      O46429   2.054   5.666   5.272 -0.3117  0.0285 -0.0769
11431WAT     H146430   2.110   5.691   5.335  0.6638  2.1720 -1.6728
11431WAT     H246431   1.998   5.614   5.315  2.2093 -1.3654  1.8420
11431WAT    EPW46432   2.054   5.662   5.288  0.3444  0.2160  1.0277
11432WAT      O46433   3.080   3.120   6.563  0.2373 -0.6397  0.5418
11432WAT     H146434   3.108   3.100   6.644  0.8744 -0.8774  0.2722
11432WAT     H246435   3.084   3.207   6.561  3.1610 -0.6709 -0.1884
11432WAT    EPW46436   3.085   3.130   6.575 -0.2169 -0.0739  0.8527
11433WAT      O46437   2.404   0.825   5.853  0.6388 -0.5327  0.3998
11433WAT     H146438   2.457   0.889   5.879 -1.4337  1.1041  0.8347
11433WAT     H246439   2.370   0.795   5.927 -2.0257  1.2260  0.0157
11433WAT    EPW46440   2.407   0.830   5.868  0.6959 -0.4501 -0.2939
11434WAT      O46441   2.782   3.831   2.716 -0.5165 -0.0871  0.0189
11434WAT     H146442   2.843   3.889   2.739 -0.1985 -0.9455  1.4692
11434WAT     H246443   2.828   3.766   2.679 -0.6668 -0.2810  0.1715
11434WAT    EPW46444   2.798   3.830   2.714 -0.0732 -0.0633  0.5391
11435WAT      O46445   6.394   0.412   4.220 -0.0873 -0.1568 -0.1093
11435WAT     H146446   6.422   0.341   4.263  0.2044 -1.3759 -2.1899
11435WAT     H246447   6.467   0.456   4.203  0.4773 -2.0373 -3.2780
11435WAT    EPW46448   6.409   0.408   4.224  0.3749  0.3975 -0.1626
11436WAT      O46449   4.001   7.312   7.779  0.1250  0.1661 -0.2921
11436WAT     H146450   3.981   7.385   7.822 -1.9638 -1.3383  1.5655
11436WAT     H246451   3.927   7.292   7.737 -0.2467 -2.0782  1.2333
11436WAT    EPW46452   3.987   7.320   7.779 -0.7821 -0.6368  0.1979
11437WAT      O46453   2.699   1.766   1.562  0.8539  0.5244  0.6296
11437WAT     H146454   2.676   1.785   1.644 -1.8494 -3.1909  0.9767
11437WAT     H246455   2.782   1.741   1.569  0.7403  0.4963  2.1940
11437WAT    EPW46456   2.707   1.765   1.575  0.1893 -0.5278  0.4170
11438WAT      O46457   4.860   3.371   1.145  0.8482 -0.1252  0.6844
11438WAT     H146458   4.925   3.364   1.087  1.7481  0.3101  1.6099
11438WAT     H246459   4.878   3.445   1.188 -0.1140 -0.1372  1.1371
11438WAT    EPW46460   4.872   3.381   1.143 -0.2037  0.4809 -0.6633
11439WAT      O46461   2.828   2.013   0.882  0.4753 -0.2138 -0.0430
11439WAT     H146462   2.841   2.034   0.965 -1.0795  0.0179  0.1654
11439WAT     H246463   2.788   1.936   0.886 -0.8088  0.3991 -0.5010
11439WAT    EPW46464   2.824   2.005   0.895  0.2814 -0.2984  0.0594
11440WAT      O46465   1.042   6.246   7.975 -0.0478  0.0207  0.2155
11440WAT     H146466   1.023   6.212   7.897  1.1874 -0.1590 -0.0276
11440WAT     H246467   1.117   6.290   7.961  0.2687 -0.1265  1.3204
11440WAT    EPW46468   1.051   6.248   7.961 -0.1391  0.4530 -0.2647
11441WAT      O46469   5.100   2.406   2.528  0.3054 -0.0096 -0.2212
11441WAT     H146470   5.013   2.413   2.531  0.3580  0.7241 -0.0649
11441WAT     H246471   5.116   2.329   2.564 -0.2955 -0.2489 -0.4537
11441WAT    EPW46472   5.089   2.396   2.534 -0.2732  0.4671  0.3921
11442WAT      O46473   0.187   1.940   1.402 -0.0548  0.1563 -0.1906
11442WAT     H146474   0.125   1.888   1.370 -2.2053  1.1989  1.9538
11442WAT     H246475   0.260   1.909   1.366 -1.6433 -1.8808 -1.9624
11442WAT    EPW46476   0.188   1.928   1.392 -0.2341 -0.0268 -0.0074
11443WAT      O46477   4.409   2.483   1.569 -0.5154  0.0673 -0.3639
11443WAT     H146478   4.426   2.512   1.650  0.4102 -1.8556  0.2121
11443WAT     H246479   4.349   2.422   1.582 -0.4048 -0.2100 -1.1331
11443WAT    EPW46480   4.403   2.478   1.583  0.3507 -0.7304  0.4724
11444WAT      O46481   1.261   0.278   3.921 -0.0904  0.2156 -0.3397
11444WAT     H146482   1.282   0.361   3.904  0.3895  0.2566  0.4180
11444WAT     H246483   1.176   0.274   3.901 -0.4245  1.2183  0.7870
11444WAT    EPW46484   1.251   0.290   3.915  0.4378 -0.3604 -0.4534
11445WAT      O46485   3.788   1.797   2.018  0.0200 -0.2717  0.4435
11445WAT     H146486   3.711   1.804   1.978 -0.3149 -0.0979  1.1006
11445WAT     H246487   3.791   1.868   2.069  0.3745 -0.5572  0.8228
11445WAT    EPW46488   3.777   1.808   2.020  1.1280  0.5835 -0.4188
11446WAT      O46489   2.809   1.117   4.240 -0.2993 -0.1527  0.3967
11446WAT     H146490   2.889   1.097   4.266  0.4164 -0.0188 -1.5618
11446WAT     H246491   2.814   1.201   4.217 -0.9657 -0.1567  0.1977
11446WAT    EPW46492   2.821   1.126   4.240 -0.0819 -0.0091 -0.0228
11447WAT      O46493   0.234   7.316   3.441 -0.0268  0.2742 -0.0267
11447WAT     H146494   0.186   7.349   3.506 -1.2807 -1.9067  0.2723
11447WAT     H246495   0.174   7.292   3.382  0.6943 -1.7412 -0.0223
11447WAT    EPW46496   0.218   7.317   3.442 -0.9181 -0.3474 -0.0125
11448WAT      O46497   5.342   2.199   5.098  0.0016  0.2537 -0.1029
11448WAT     H146498   5.311   2.280   5.097  0.1171  0.3083  0.4723
11448WAT     H246499   5.272   2.151   5.118 -0.0929  0.1964 -0.5610
11448WAT    EPW46500   5.327   2.204   5.101 -0.0749  0.4764  0.3467
11449WAT      O46501   3.057   7.262   1.138 -0.0512 -0.1223  0.2447
11449WAT     H146502   3.060   7.179   1.112 -0.1575 -0.0122 -0.1099
11449WAT     H246503   2.974   7.285   1.127  0.0156  0.0872  0.1796
11449WAT    EPW46504   3.045   7.253   1.133 -0.1895  0.3811  0.5213
11450WAT      O46505   2.615   2.270   3.513  0.1071  0.0733  0.0579
11450WAT     H146506   2.702   2.277   3.520  0.1531 -1.0657  0.9747
11450WAT     H246507   2.594   2.334   3.457  1.4957  0.5459  0.0219
11450WAT    EPW46508   2.625   2.281   3.506 -0.1728  0.1562  0.3668
11451WAT      O46509   7.440   2.776   2.504 -0.2192 -0.1540 -0.5452
11451WAT     H146510   7.398   2.801   2.576  0.8577  0.9038 -0.2416
11451WAT     H246511   7.459   2.692   2.519  1.2525  0.4003  1.0919
11451WAT    EPW46512   7.436   2.767   2.517 -0.6843  0.0715 -0.1196
11452WAT      O46513   5.311   4.662   1.701 -0.1657 -0.0263 -0.2249
11452WAT     H146514   5.313   4.709   1.775 -0.9664  1.0528 -0.8554
11452WAT     H246515   5.392   4.669   1.670 -0.3325  1.2023 -0.4359
11452WAT    EPW46516   5.323   4.670   1.707  0.8555  0.1501  0.0382
11453WAT      O46517   1.064   1.565   3.321 -0.5528 -0.1612  0.5112
11453WAT     H146518   1.091   1.647   3.309  0.0128 -0.4190 -0.0770
11453WAT     H246519   1.074   1.553   3.407 -1.8167  0.7673  0.8228
11453WAT    EPW46520   1.070   1.575   3.332  0.7372  0.0548  0.3794
11454WAT      O46521   4.263   0.481   2.348  0.2688  0.7254  0.1780
11454WAT     H146522   4.286   0.502   2.266 -1.1664  2.2077  0.1041
11454WAT     H246523   4.336   0.495   2.394  0.0301  4.0492 -0.2271
11454WAT    EPW46524   4.277   0.486   2.343 -0.0258  0.0188  0.5721
11455WAT      O46525   6.545   6.902   1.712 -0.3466 -0.0092  0.3366
11455WAT     H146526   6.581   6.823   1.714  0.5223  0.3753  0.5052
11455WAT     H246527   6.508   6.910   1.790  1.1491  0.4351  1.0509
11455WAT    EPW46528   6.545   6.892   1.723  0.2003 -0.0480  0.3825
11456WAT      O46529   0.578   0.196   3.147  0.1568 -0.6148 -0.1177
11456WAT     H146530   0.567   0.111   3.135  2.7859 -1.0090 -0.4446
11456WAT     H246531   0.664   0.207   3.135 -0.1116  2.0971 -0.1773
11456WAT    EPW46532   0.589   0.185   3.143  0.1731 -0.1808 -0.1429
11457WAT      O46533   7.907   6.576   0.741  0.3927  0.2592 -0.0269
11457WAT     H146534   7.945   6.502   0.769  0.8510  0.8509  0.9636
11457WAT     H246535   7.973   6.621   0.706  0.0601  0.0965 -0.8971
11457WAT    EPW46536   7.923   6.572   0.740 -0.5257 -0.4419  0.0785
11458WAT      O46537   2.176   2.682   6.506 -0.2115 -0.5586  0.0736
11458WAT     H146538   2.098   2.720   6.512 -1.3932 -2.7578 -0.4966
11458WAT     H246539   2.197   2.692   6.422  0.5112  0.6372  0.3623
11458WAT    EPW46540   2.168   2.689   6.495 -0.0918  0.1616  0.3701
11459WAT      O46541   0.406   4.021   3.992  0.8159 -0.0237  0.4165
11459WAT     H146542   0.394   3.997   3.909 -0.5430  2.3071 -0.1327
11459WAT     H246543   0.372   3.954   4.037  0.7530 -0.9210 -0.9084
11459WAT    EPW46544   0.399   4.007   3.986  0.1771 -0.5023 -0.3930
11460WAT      O46545   4.099   6.398   4.104 -0.1276 -0.6066 -0.2880
11460WAT     H146546   4.055   6.473   4.110  0.4895 -0.3231  1.0450
11460WAT     H246547   4.101   6.382   4.019  0.4508  1.3151 -0.6754
11460WAT    EPW46548   4.093   6.406   4.093 -0.3810  0.0199 -0.9612
11461WAT      O46549   8.079   6.741   0.599 -1.1793  0.1698  0.0973
11461WAT     H146550   8.029   6.719   0.531 -1.7771  0.2137  0.5146
11461WAT     H246551   8.152   6.696   0.586 -1.6819 -0.6231 -0.0366
11461WAT    EPW46552   8.082   6.731   0.587 -0.2656 -0.0422 -0.0588
11462WAT      O46553   6.156   4.652   1.894 -0.1839  0.0433  0.2243
11462WAT     H146554   6.120   4.675   1.818 -3.1098 -2.2398  0.7411
11462WAT     H246555   6.230   4.698   1.896 -1.5533  2.7559 -2.4353
11462WAT    EPW46556   6.161   4.662   1.883 -0.1989  0.4226  0.3894
11463WAT      O46557   4.385   2.595   3.111 -0.2633  0.0387  0.1236
11463WAT     H146558   4.398   2.518   3.149  0.4132  0.2066  0.2373
11463WAT     H246559   4.377   2.650   3.178 -2.0219 -0.1039  0.0832
11463WAT    EPW46560   4.386   2.592   3.126  0.1952 -0.0966  0.2533
11464WAT      O46561   0.509   3.443   0.324  0.5602  0.7095 -0.2005
11464WAT     H146562   0.540   3.510   0.371  1.5889 -0.2733  0.5795
11464WAT     H246563   0.556   3.445   0.251  0.7110  0.7357 -0.1028
11464WAT    EPW46564   0.520   3.453   0.320 -0.1619  0.5005 -0.0669
11465WAT      O46565   1.170   6.949   0.039 -0.2068 -0.1765 -0.5498
11465WAT     H146566   1.116   6.927  -0.026 -1.1188  0.4114 -0.0115
11465WAT     H246567   1.116   6.979   0.100  0.7423  0.4263  0.0030
11465WAT    EPW46568   1.154   6.950   0.038  0.0566  0.1029  0.0824
11466WAT      O46569   3.145   6.570   0.133  0.1952  0.2960 -0.1497
11466WAT     H146570   3.083   6.508   0.133 -0.1058  0.5892  0.3855
11466WAT     H246571   3.219   6.524   0.132 -0.0134 -0.0568 -1.5528
11466WAT    EPW46572   3.147   6.554   0.133 -0.0835  0.1072 -0.9516
11467WAT      O46573   2.632   1.481   1.514 -0.0684  0.3105 -0.3732
11467WAT     H146574   2.623   1.568   1.515  0.7437  0.4223 -1.2508
11467WAT     H246575   2.549   1.452   1.514 -0.3452  1.0616  0.4597
11467WAT    EPW46576   2.618   1.489   1.514  0.0411  0.1961 -0.5609
11468WAT      O46577   4.966   1.180   4.218  0.1096  0.0331  0.2390
11468WAT     H146578   4.949   1.263   4.237 -1.7941 -0.1951 -0.2204
11468WAT     H246579   4.896   1.155   4.171  0.1391 -2.0873  1.1794
11468WAT    EPW46580   4.953   1.188   4.214  0.5746 -0.2977 -0.0513
11469WAT      O46581   3.447   2.429   4.915  0.3195  0.3006  0.1639
11469WAT     H146582   3.508   2.457   4.860  0.7028  0.5209  0.6860
11469WAT     H246583   3.437   2.496   4.970  0.5524 -0.2177  0.8587
11469WAT    EPW46584   3.454   2.443   4.915  0.2706  0.5339  0.1461
11470WAT      O46585   5.884   0.859   0.175 -0.3173 -0.0884  0.1921
11470WAT     H146586   5.867   0.853   0.090 -2.3602  1.1634  0.4592
11470WAT     H246587   5.971   0.850   0.179 -0.2767 -1.2357 -1.8835
11470WAT    EPW46588   5.894   0.856   0.163  0.0270  0.0136  0.5622
11471WAT      O46589   3.472   1.408   4.598 -0.5890 -0.1470 -0.5670
11471WAT     H146590   3.496   1.396   4.681 -0.8418  1.0100 -0.3068
11471WAT     H246591   3.385   1.399   4.601 -0.6334  0.2645 -0.6364
11471WAT    EPW46592   3.463   1.405   4.611 -0.2321  0.1409 -0.5016
11472WAT      O46593   2.565   3.849   1.498  0.0573  0.8055  0.0265
11472WAT     H146594   2.609   3.909   1.544 -2.0203  1.8580  0.7703
11472WAT     H246595   2.517   3.896   1.443  1.4824 -0.3912 -2.4078
11472WAT    EPW46596   2.564   3.865   1.497 -0.6344  0.3579  0.0153
11473WAT      O46597   4.344   2.645   0.700  0.3363 -0.6332  0.4533
11473WAT     H146598   4.424   2.647   0.735  0.5765  0.6053 -0.1291
11473WAT     H246599   4.296   2.691   0.756  0.3019 -0.3335  0.1831
11473WAT    EPW46600   4.349   2.652   0.713  0.3554  0.4526  0.2110
11474WAT      O46601   7.703   0.196   2.326 -1.0579 -0.6423  0.0554
11474WAT     H146602   7.643   0.232   2.274 -1.8321  0.9584  1.9159
11474WAT     H246603   7.774   0.245   2.313 -1.4619  0.2242  0.9565
11474WAT    EPW46604   7.704   0.208   2.317 -0.2306  0.1256  0.3803
11475WAT      O46605   3.383   3.051   5.639  0.2055  0.3028  0.4082
11475WAT     H146606   3.393   3.042   5.552  1.3374 -0.4903  0.5970
11475WAT     H246607   3.443   2.997   5.672 -1.1186 -0.4778  1.6964
11475WAT    EPW46608   3.393   3.041   5.631 -0.7803 -0.3298  0.1498
11476WAT      O46609   2.896   2.962   0.401 -0.0960  0.4622  0.3150
11476WAT     H146610   2.920   3.011   0.334 -0.2619  0.8222  0.5163
11476WAT     H246611   2.857   2.893   0.364 -1.0548  1.1232  0.0618
11476WAT    EPW46612   2.894   2.959   0.386 -0.2439  0.1411  0.6813
11477WAT      O46613   0.044   0.544   3.443 -0.3480  0.3017  0.2414
11477WAT     H146614  -0.040   0.523   3.439 -0.6621  1.7059 -2.2354
11477WAT     H246615   0.059   0.585   3.368  2.0739  1.8171  1.4172
11477WAT    EPW46616   0.034   0.547   3.432  0.0617 -0.4404  0.0105
11478WAT      O46617   0.423   7.082   3.286  0.1035  0.3547  0.0455
11478WAT     H146618   0.456   7.144   3.338 -0.0107 -0.6188  1.3343
11478WAT     H246619   0.487   7.022   3.281 -0.5503 -0.4155  0.5873
11478WAT    EPW46620   0.437   7.082   3.293 -0.3814 -0.3624  0.2443
11479WAT      O46621   2.880   6.658   1.325 -0.1823 -0.5046 -0.1357
11479WAT     H146622   2.965   6.656   1.305  0.0256 -0.8554  0.7139
11479WAT     H246623   2.856   6.574   1.321 -0.3707 -0.4617  0.0876
11479WAT    EPW46624   2.889   6.645   1.322  0.4318  0.4158 -0.1348
11480WAT      O46625   7.147   7.861   3.652 -0.1590 -0.4623  0.1818
11480WAT     H146626   7.159   7.780   3.624 -0.3632 -0.7634  0.9307
11480WAT     H246627   7.090   7.852   3.718 -0.2090  0.2904  0.2550
11480WAT    EPW46628   7.140   7.848   3.658  0.1274 -0.1366  0.2005
11481WAT      O46629   1.995   3.415   4.154 -0.1165  0.7354 -0.0993
11481WAT     H146630   2.036   3.456   4.089  1.4398 -0.5010  0.0385
11481WAT     H246631   2.014   3.331   4.142 -1.1909  0.2916  1.0011
11481WAT    EPW46632   2.004   3.409   4.143  0.1199  0.2913 -0.2231
11482WAT      O46633   3.311   2.645   3.037 -0.5700  0.3076 -0.1385
11482WAT     H146634   3.392   2.631   3.066 -0.7002  1.2742  0.7559
11482WAT     H246635   3.322   2.701   2.971 -0.5800  1.5774  0.8902
11482WAT    EPW46636   3.324   2.651   3.032  0.3497  0.1469  0.4722
11483WAT      O46637   4.987   1.330   4.760  0.4074 -0.2086  0.1080
11483WAT     H146638   4.966   1.282   4.690 -0.1631 -0.5004  0.4754
11483WAT     H246639   4.919   1.383   4.770  0.0565 -0.8062  1.0022
11483WAT    EPW46640   4.974   1.331   4.751 -0.8338  0.5848 -0.1184
11484WAT      O46641   6.766   0.428   8.002  0.4486 -0.1707 -0.0641
11484WAT     H146642   6.828   0.368   7.998 -0.8531 -1.4853 -2.6384
11484WAT     H246643   6.699   0.385   8.039  0.1788  0.3406  0.0467
11484WAT    EPW46644   6.765   0.413   8.007 -0.1212  0.6154  0.0894
11485WAT      O46645   2.257   2.820   0.761  0.2297 -0.3291 -0.5876
11485WAT     H146646   2.305   2.793   0.829 -0.1568 -1.1418 -0.6288
11485WAT     H246647   2.248   2.905   0.775  2.6374  0.1086 -1.1560
11485WAT    EPW46648   2.263   2.828   0.773 -0.7921 -0.0488  0.3187
11486WAT      O46649   7.494   2.042   3.579 -0.0641 -0.0285 -0.4339
11486WAT     H146650   7.473   2.057   3.662  0.1775 -2.9912  0.2631
11486WAT     H246651   7.417   2.028   3.541 -0.2038  1.6429 -0.8587
11486WAT    EPW46652   7.479   2.042   3.585  0.1762  0.7297  0.0508
11487WAT      O46653   1.770   5.153   4.622 -0.5921 -0.2617 -0.3837
11487WAT     H146654   1.754   5.225   4.575  0.2939 -0.4780 -1.0425
11487WAT     H246655   1.719   5.162   4.692 -1.0278  0.6578 -0.8095
11487WAT    EPW46656   1.760   5.165   4.625  0.1576 -0.1744  0.3669
11488WAT      O46657   6.193   2.517   2.715 -0.2102 -0.0896 -0.0518
11488WAT     H146658   6.240   2.541   2.784 -0.8423 -2.2394  1.2113
11488WAT     H246659   6.248   2.466   2.670 -1.2952 -3.1498  1.7615
11488WAT    EPW46660   6.208   2.513   2.718  0.0434  0.4254  0.0004
11489WAT      O46661   4.359   0.980   3.416  0.0614 -0.6236  0.3310
11489WAT     H146662   4.302   0.916   3.432  0.0331 -0.5224  0.6454
11489WAT     H246663   4.435   0.939   3.407  0.0507 -0.7011  0.5788
11489WAT    EPW46664   4.362   0.965   3.417 -0.5857 -0.4154  0.0726
11490WAT      O46665   4.106   3.949   1.690  0.1815 -0.0277  0.4331
11490WAT     H146666   4.152   4.005   1.739 -0.0876  1.2529 -0.7471
11490WAT     H246667   4.168   3.904   1.649  0.3907 -0.2198  0.9397
11490WAT    EPW46668   4.122   3.951   1.691  0.1597  0.5673 -0.8942
11491WAT      O46669   2.106   2.392   3.173 -0.0231  0.4893  0.5105
11491WAT     H146670   2.153   2.325   3.145  0.2659  1.3621 -1.2329
11491WAT     H246671   2.116   2.390   3.260 -0.3796 -1.9232  0.5424
11491WAT    EPW46672   2.115   2.382   3.182  0.4779  0.6503 -0.9507
11492WAT      O46673   4.208   8.017   6.320  0.3737  0.3134  0.5749
11492WAT     H146674   4.186   8.067   6.388 -2.2701  0.1180 -0.0336
11492WAT     H246675   4.149   8.037   6.260  1.1317 -1.3081 -0.7962
11492WAT    EPW46676   4.196   8.027   6.321 -0.1823 -0.1862  0.0580
11493WAT      O46677   4.196   5.972   3.038  0.0840 -0.1569  0.2070
11493WAT     H146678   4.259   6.026   3.012 -0.5595 -0.0446 -1.2306
11493WAT     H246679   4.195   5.911   2.975 -1.5334  0.1101 -0.0713
11493WAT    EPW46680   4.205   5.971   3.025  0.1342 -0.5949 -0.0020
11494WAT      O46681   1.732   6.946   4.105  0.2722  0.4026 -1.3518
11494WAT     H146682   1.651   6.914   4.114  0.2153  0.7553 -0.5633
11494WAT     H246683   1.721   7.032   4.119  1.0699  0.2223  0.7197
11494WAT    EPW46684   1.718   6.954   4.108 -0.3967  0.1462  0.1582
11495WAT      O46685   0.232   2.948   2.849 -0.2055 -0.1355 -0.3137
11495WAT     H146686   0.280   2.906   2.908 -1.2090  0.9305  1.3817
11495WAT     H246687   0.289   2.971   2.787  1.0695 -0.5839  0.6581
11495WAT    EPW46688   0.247   2.945   2.849  0.3362 -0.3146  0.3238
11496WAT      O46689   4.110   6.550   2.740  0.2396 -0.0861 -0.0081
11496WAT     H146690   4.053   6.611   2.766 -0.4473 -0.5244 -0.4444
11496WAT     H246691   4.187   6.582   2.766 -0.0882  1.0141 -0.3124
11496WAT    EPW46692   4.113   6.564   2.748  0.2787 -0.5624 -0.0754
11497WAT      O46693   1.649   2.233   7.567 -0.7271 -0.4322 -0.1151
11497WAT     H146694   1.727   2.214   7.533 -1.0993 -1.1167 -0.6156
11497WAT     H246695   1.668   2.265   7.646  0.0022 -1.8115  0.3061
11497WAT    EPW46696   1.663   2.235   7.573 -0.2253  0.0197  0.1546
11498WAT      O46697   3.775   2.018   3.505  0.7829  0.1152 -0.0473
11498WAT     H146698   3.738   2.048   3.432  0.4917 -0.8931 -0.3223
11498WAT     H246699   3.823   1.951   3.477  0.9901 -0.0245  0.6397
11498WAT    EPW46700   3.777   2.013   3.490 -0.7433 -0.2489  0.4314
11499WAT      O46701   4.220   2.389   2.581  0.5530 -0.6701  0.2592
11499WAT     H146702   4.229   2.475   2.593 -4.1837  0.5785 -2.5737
11499WAT     H246703   4.262   2.374   2.506 -0.5262 -0.2013 -0.4698
11499WAT    EPW46704   4.227   2.400   2.572 -0.4055  0.2751 -0.1928
11500WAT      O46705   2.345   4.039   7.797  0.0072  0.5422  0.1526
11500WAT     H146706   2.342   4.089   7.726  2.3480 -0.6026 -0.8519
11500WAT     H246707   2.282   3.980   7.783 -0.2837  0.9786 -0.4325
11500WAT    EPW46708   2.335   4.037   7.784 -0.0530  0.3029 -0.7992
11501WAT      O46709   7.855   0.281   1.813 -0.0451  0.2171 -0.1641
11501WAT     H146710   7.939   0.275   1.837  0.0428  1.5213 -0.0637
11501WAT     H246711   7.854   0.349   1.759 -0.5861 -1.4507 -2.3798
11501WAT    EPW46712   7.867   0.290   1.809  0.5602  0.2911  0.1617
11502WAT      O46713   0.643   1.171   3.833 -0.1158 -0.0313  0.1945
11502WAT     H146714   0.640   1.250   3.796 -1.0989 -0.1234  0.0502
11502WAT     H246715   0.588   1.178   3.900  0.8266 -0.1944  0.9950
11502WAT    EPW46716   0.634   1.184   3.837 -0.0983  0.6052 -0.0947
11503WAT      O46717   2.275   0.918   7.984  0.1662 -0.4573  0.5010
11503WAT     H146718   2.312   0.984   8.028 -2.0000 -0.2878  2.2560
11503WAT     H246719   2.234   0.957   7.918  1.6750 -0.4753 -0.4875
11503WAT    EPW46720   2.275   0.933   7.981 -0.1594  0.3998  1.1566
11504WAT      O46721   1.698   0.707   2.631  0.1509 -0.3270  0.3234
11504WAT     H146722   1.678   0.667   2.706 -0.3778  0.4619  0.6185
11504WAT     H246723   1.762   0.761   2.654 -2.0614  2.2128  0.9691
11504WAT    EPW46724   1.705   0.709   2.646  0.2277  0.3336 -0.4023
11505WAT      O46725   3.727   8.016   4.606  0.0453  0.4043 -0.0665
11505WAT     H146726   3.702   8.016   4.690 -1.6819 -0.3728 -0.5438
11505WAT     H246727   3.698   8.093   4.576 -1.1127 -0.1401 -0.4073
11505WAT    EPW46728   3.719   8.028   4.614  0.8252  0.1712 -0.0120
11506WAT      O46729   1.658   3.107   1.370  0.0171  0.7673  0.0832
11506WAT     H146730   1.654   3.026   1.336 -2.0583  1.4844 -1.5749
11506WAT     H246731   1.732   3.105   1.416  0.9766 -1.5271 -1.3359
11506WAT    EPW46732   1.668   3.095   1.371  0.1558 -0.2766  0.1239
11507WAT      O46733   3.887   2.760   6.329 -0.0539  0.3356  0.2393
11507WAT     H146734   3.954   2.779   6.380  0.9092 -1.0390 -0.4606
11507WAT     H246735   3.869   2.677   6.349 -0.7664  0.3173 -0.4409
11507WAT    EPW46736   3.894   2.751   6.339 -0.8125 -0.0105 -0.0328
11508WAT      O46737   0.840   5.423   3.050 -0.1331  0.0961  0.0655
11508WAT     H146738   0.850   5.509   3.062  0.4268 -0.0089  0.3902
11508WAT     H246739   0.769   5.403   3.097 -1.5844  0.7369 -1.7014
11508WAT    EPW46740   0.831   5.433   3.059  0.2325 -0.2218  0.3747
11509WAT      O46741   3.360   6.889   3.153 -0.0874  0.0901  0.2274
11509WAT     H146742   3.316   6.865   3.081 -0.2530  2.3214 -0.5170
11509WAT     H246743   3.301   6.885   3.216 -1.0680  1.6862 -0.5098
11509WAT    EPW46744   3.345   6.885   3.151  0.1539 -0.2215 -0.1444
11510WAT      O46745   4.290   3.850   3.172  0.4694 -0.1557  0.0082
11510WAT     H146746   4.375   3.840   3.156  1.1259  2.6744  1.1216
11510WAT     H246747   4.277   3.802   3.244  1.4628  0.4602  0.6163
11510WAT    EPW46748   4.301   3.841   3.180  0.3478 -0.2583 -0.2294
11511WAT      O46749   3.842   1.218   4.479  0.1063 -0.2206 -0.5150
11511WAT     H146750   3.886   1.189   4.409 -1.6010  0.8372 -2.1098
11511WAT     H246751   3.805   1.291   4.451 -3.1671 -1.3248  0.4976
11511WAT    EPW46752   3.843   1.224   4.464  1.1934 -0.3209 -0.5929
11512WAT      O46753   5.570   6.222   1.755  0.4122 -0.0195 -0.6486
11512WAT     H146754   5.630   6.246   1.814  1.4980 -0.9341 -1.3320
11512WAT     H246755   5.506   6.280   1.766 -0.6493 -1.5628  3.2280
11512WAT    EPW46756   5.570   6.234   1.765 -0.0319 -0.3369  0.1834
11513WAT      O46757   1.980   1.202   3.047  0.1334  0.1237  0.7088
11513WAT     H146758   1.927   1.270   3.033  1.6987  0.9772 -1.7786
11513WAT     H246759   2.032   1.203   2.977  1.1594 -2.7916  1.3193
11513WAT    EPW46760   1.980   1.212   3.034 -0.2261 -0.4121  0.0574
11514WAT      O46761   5.486   0.607   7.321 -0.3162  0.0441  0.1476
11514WAT     H146762   5.539   0.555   7.275 -1.9597  1.0844 -3.2760
11514WAT     H246763   5.512   0.687   7.299 -1.3723  0.5824  0.7970
11514WAT    EPW46764   5.498   0.611   7.311 -0.5238  0.6503  0.1800
11515WAT      O46765   3.641   2.468   4.702  0.3110  0.5058  0.1535
11515WAT     H146766   3.676   2.548   4.703  0.2457  0.5575 -0.8485
11515WAT     H246767   3.584   2.471   4.636  2.4151 -1.2113 -1.9819
11515WAT    EPW46768   3.638   2.480   4.692  0.1700 -0.1997  0.1466
11516WAT      O46769   1.556   0.181   0.085  0.1546 -0.5151  0.5484
11516WAT     H146770   1.531   0.117   0.031 -1.3548 -1.0974  1.8501
11516WAT     H246771   1.541   0.147   0.164  0.6598  0.9519  1.3061
11516WAT    EPW46772   1.550   0.167   0.089  0.5652 -0.1956  0.1973
11517WAT      O46773   4.875   7.710   6.764  0.4385  0.5304 -0.4226
11517WAT     H146774   4.809   7.653   6.759 -0.2754  1.3667 -0.7612
11517WAT     H246775   4.909   7.694   6.843  1.6320 -1.8154 -1.3120
11517WAT    EPW46776   4.870   7.699   6.775  0.4054 -0.1231 -0.0389
11518WAT      O46777   1.970   4.930   1.687  0.4809  0.4867 -0.4055
11518WAT     H146778   1.898   4.934   1.638 -0.3341 -1.5868  0.4816
11518WAT     H246779   2.035   4.939   1.630 -0.4625  1.8043 -1.3192
11518WAT    EPW46780   1.969   4.932   1.672  0.6359 -0.1300  0.4174
11519WAT      O46781   2.934   2.832   2.205 -0.7652 -0.6265  0.1931
11519WAT     H146782   2.882   2.877   2.152  0.1729  0.2440  0.0140
11519WAT     H246783   2.890   2.833   2.281 -1.6896 -1.1392 -0.3139
11519WAT    EPW46784   2.920   2.839   2.209 -0.2318  0.1559 -0.5231
11520WAT      O46785   0.695   6.081   7.978  0.0360 -0.2844  0.1131
11520WAT     H146786   0.685   5.998   7.952  0.9620 -0.6346  0.8154
11520WAT     H246787   0.769   6.106   7.940  1.8327 -1.0492  2.8489
11520WAT    EPW46788   0.704   6.072   7.968  0.0804 -0.9064  0.0126
11521WAT      O46789   7.196   3.463   1.115  0.0053  0.2840 -0.0400
11521WAT     H146790   7.199   3.414   1.042 -0.4316 -0.1692  0.2395
11521WAT     H246791   7.256   3.524   1.101  0.7071 -0.4545 -0.3137
11521WAT    EPW46792   7.205   3.465   1.102 -0.6435  0.1669  0.1665
11522WAT      O46793   4.870   7.569   1.646 -0.3404 -0.1468  0.0719
11522WAT     H146794   4.868   7.483   1.633  0.4292 -0.2216  0.4082
11522WAT     H246795   4.873   7.602   1.565 -0.7685 -0.4307 -0.0573
11522WAT    EPW46796   4.870   7.561   1.632 -0.4216  0.4605  0.4340
11523WAT      O46797   1.451   2.311   1.258  0.6267  0.8171 -0.1014
11523WAT     H146798   1.456   2.234   1.217  0.4210  0.5687  0.3456
11523WAT     H246799   1.487   2.366   1.200  2.0471  0.1748  0.1242
11523WAT    EPW46800   1.457   2.308   1.243  0.0672  0.3059 -0.4318
11524WAT      O46801   1.275   3.329   4.441  0.1407 -0.4072  0.0713
11524WAT     H146802   1.344   3.309   4.392 -0.7073  1.0488 -1.8719
11524WAT     H246803   1.219   3.264   4.425  0.0151 -0.1340 -0.6657
11524WAT    EPW46804   1.277   3.317   4.432  0.0988  0.2667 -0.0902
11525WAT      O46805   7.309   6.632   3.235 -1.0582 -0.5190  0.0033
11525WAT     H146806   7.302   6.612   3.151 -0.8417 -0.3352 -0.0576
11525WAT     H246807   7.287   6.716   3.239 -1.3854 -0.6121  0.1768
11525WAT    EPW46808   7.305   6.641   3.223 -0.2632 -0.1869  0.0508
11526WAT      O46809   1.891   8.008   1.930  0.4960 -0.3903 -0.2728
11526WAT     H146810   1.949   7.994   1.994 -0.0867 -0.2504  0.2976
11526WAT     H246811   1.895   8.094   1.918  1.1965 -0.5224 -0.9980
11526WAT    EPW46812   1.900   8.019   1.938  0.5176 -0.2241  0.4585
11527WAT      O46813   3.128   1.572   0.040 -0.4098  0.2680 -0.1656
11527WAT     H146814   3.098   1.491   0.052 -1.0738  0.4266 -0.7078
11527WAT     H246815   3.134   1.604   0.121  1.4668 -0.8652  0.1962
11527WAT    EPW46816   3.124   1.565   0.054 -0.6906  0.5034  0.2026
11528WAT      O46817   3.198   4.815   3.913  0.1299  0.2607 -0.4165
11528WAT     H146818   3.248   4.754   3.951  0.8998 -0.6466 -2.6793
11528WAT     H246819   3.119   4.802   3.949  0.6862 -0.8618  0.4739
11528WAT    EPW46820   3.193   4.804   3.924  0.2965  0.3736  0.1142
11529WAT      O46821   2.150   1.817   3.267  0.0189 -0.0768 -0.1264
11529WAT     H146822   2.222   1.831   3.313 -0.2397 -0.9393  0.5736
11529WAT     H246823   2.117   1.897   3.256 -0.6848  0.0762  2.4855
11529WAT    EPW46824   2.156   1.831   3.273  0.1542  0.3250  0.5448
11530WAT      O46825   7.274   2.707   0.253  0.6443  0.1677  0.0527
11530WAT     H146826   7.310   2.651   0.197 -0.1204 -1.3181  0.9889
11530WAT     H246827   7.330   2.709   0.320  0.5853  0.3962  0.0974
11530WAT    EPW46828   7.288   2.699   0.255 -0.3178  1.0274 -0.1534
11531WAT      O46829   1.170   4.595   4.161  0.3179 -0.3714 -0.0027
11531WAT     H146830   1.245   4.634   4.181 -0.5804  2.1402 -1.1211
11531WAT     H246831   1.125   4.598   4.236  0.8050 -0.6742  0.3110
11531WAT    EPW46832   1.174   4.601   4.175 -0.1293  0.3106 -0.1405
11532WAT      O46833   6.297   0.213   0.674  0.6198  0.8274  0.0677
11532WAT     H146834   6.214   0.239   0.672  0.8938  1.7063 -0.0113
11532WAT     H246835   6.292   0.129   0.650 -0.1160  1.2184 -1.2524
11532WAT    EPW46836   6.284   0.204   0.670  0.1608  0.3057 -0.3315
11533WAT      O46837   4.174   2.513   3.686  0.3318 -0.6066  0.0775
11533WAT     H146838   4.162   2.528   3.601 -0.3203 -1.7098 -0.0516
11533WAT     H246839   4.222   2.440   3.686  0.8142 -0.2896  0.6548
11533WAT    EPW46840   4.179   2.504   3.673 -0.3080  0.4452  0.4318
11534WAT      O46841   3.407   6.262   4.075  0.2060  0.0579 -0.6638
11534WAT     H146842   3.328   6.227   4.080  0.7372 -1.0028  1.3007
11534WAT     H246843   3.446   6.218   4.010 -0.4433 -0.1579 -0.9103
11534WAT    EPW46844   3.401   6.251   4.066  0.9474 -0.3969 -0.0785
11535WAT      O46845   1.098   0.505   0.140 -0.3858  0.5616  0.0160
11535WAT     H146846   1.167   0.467   0.176 -1.5608 -1.4955  0.2631
11535WAT     H246847   1.125   0.523   0.059  1.3614  2.6490  0.9559
11535WAT    EPW46848   1.112   0.502   0.133 -0.4210 -0.4286 -0.3125
11536WAT      O46849   1.105   4.801   2.272 -0.3634 -0.0311  0.1222
11536WAT     H146850   1.139   4.876   2.243  0.7065 -1.5290 -2.8902
11536WAT     H246851   1.019   4.810   2.255 -0.3427  0.7203  0.3843
11536WAT    EPW46852   1.097   4.814   2.265  0.1416  0.0466 -0.1180
11537WAT      O46853   1.914   7.707   1.354 -0.0258  0.1070 -0.0441
11537WAT     H146854   1.980   7.670   1.399  0.3153 -0.5679 -1.0790
11537WAT     H246855   1.912   7.663   1.279 -0.2061  1.5781 -0.9586
11537WAT    EPW46856   1.924   7.695   1.350  0.1915  0.4208 -0.1195
11538WAT      O46857   7.555   7.914   1.410 -0.0869  0.5504 -0.2799
11538WAT     H146858   7.596   7.967   1.354  1.4899 -1.0559 -0.7359
11538WAT     H246859   7.541   7.842   1.363 -1.8533  0.4010  0.4225
11538WAT    EPW46860   7.559   7.911   1.395  0.2474 -0.2931  0.7688
11539WAT      O46861   0.031   2.644   0.844  0.4414  0.0069 -0.3352
11539WAT     H146862  -0.041   2.605   0.815 -0.1314  1.0320 -0.3528
11539WAT     H246863   0.057   2.693   0.777 -0.0521  1.2445  0.3358
11539WAT    EPW46864   0.024   2.646   0.830 -0.2266 -0.1782  0.2520
11540WAT      O46865   5.985   1.417   6.521 -0.7637  1.0249 -0.3570
11540WAT     H146866   6.005   1.393   6.602  1.9495  0.9542 -0.9515
11540WAT     H246867   5.919   1.364   6.499  2.1543 -3.2323 -0.1437
11540WAT    EPW46868   5.979   1.406   6.529  0.2385 -0.2348 -0.4532
11541WAT      O46869   1.218   4.485   0.290 -0.1408  0.9583  0.4601
11541WAT     H146870   1.261   4.560   0.290  2.4851 -0.3691 -1.9830
11541WAT     H246871   1.241   4.448   0.366  0.5837  1.5448  0.5284
11541WAT    EPW46872   1.228   4.490   0.302 -0.2253  0.7477 -0.0188
11542WAT      O46873   1.932   4.319   0.203  0.3272  0.3956 -0.0154
11542WAT     H146874   1.898   4.240   0.187  1.0229  0.3215 -1.2809
11542WAT     H246875   1.953   4.349   0.123  1.0533  1.4171  0.5280
11542WAT    EPW46876   1.930   4.312   0.189 -0.3056  0.1448  0.6752
11543WAT      O46877   2.276   1.842   7.079 -0.2244 -0.4433 -0.5504
11543WAT     H146878   2.320   1.795   7.021 -0.6217  1.0529 -2.1545
11543WAT     H246879   2.194   1.814   7.072 -0.2721 -0.2642 -0.7207
11543WAT    EPW46880   2.270   1.831   7.069  0.2483  0.5163  0.3587
11544WAT      O46881   1.522   2.909   5.485 -0.4285  0.4408  0.6097
11544WAT     H146882   1.491   2.938   5.409 -3.8130 -2.4536  0.5777
11544WAT     H246883   1.562   2.835   5.464 -0.8531 -0.0721  1.5132
11544WAT    EPW46884   1.523   2.902   5.471  0.4266  0.7247  0.2782
11545WAT      O46885   0.716   3.506   2.922 -0.5232 -1.0050 -0.2787
11545WAT     H146886   0.789   3.554   2.929  0.1942 -2.1629  0.5170
11545WAT     H246887   0.653   3.566   2.911  0.2667  0.1798  1.1542
11545WAT    EPW46888   0.717   3.522   2.922 -0.0557 -0.0161  0.0905
11546WAT      O46889   4.472   1.397   1.053 -0.5884 -0.0729 -0.3006
11546WAT     H146890   4.507   1.356   0.984  0.7547  0.1819  0.2003
11546WAT     H246891   4.441   1.332   1.103  1.5776 -0.5391  0.5199
11546WAT    EPW46892   4.472   1.381   1.050 -0.0338  0.5778  0.6035
11547WAT      O46893   2.346   1.169   0.447  0.2658 -0.4136  0.0876
11547WAT     H146894   2.422   1.127   0.448  0.9264  0.7443  0.9525
11547WAT     H246895   2.287   1.105   0.438  1.2817 -1.4048  0.2518
11547WAT    EPW46896   2.348   1.153   0.446 -0.1499  0.2325  0.0803
11548WAT      O46897   1.138   2.718   3.471 -0.0726  0.1485 -0.0759
11548WAT     H146898   1.218   2.688   3.454  0.1122  0.4614  0.2424
11548WAT     H246899   1.102   2.654   3.518 -0.0546 -0.0453 -0.3217
11548WAT    EPW46900   1.144   2.704   3.475 -0.0921  0.3806  0.0901
11549WAT      O46901   5.467   2.895   0.959 -0.3716 -0.3309 -0.0469
11549WAT     H146902   5.397   2.898   0.906  0.2901 -1.4050 -1.0139
11549WAT     H246903   5.522   2.953   0.923 -0.6728  0.3951  0.6240
11549WAT    EPW46904   5.465   2.904   0.946 -0.4652 -0.0056 -0.2114
11550WAT      O46905   6.220   7.618   3.327  0.1521  0.0362  0.2198
11550WAT     H146906   6.186   7.652   3.255  0.2085 -1.1952 -0.4282
11550WAT     H246907   6.237   7.687   3.377 -0.3023  0.8853 -0.7606
11550WAT    EPW46908   6.217   7.633   3.324  0.4223 -0.0779  0.9495
11551WAT      O46909   2.747   3.323   2.738  1.0915  0.4544 -0.2157
11551WAT     H146910   2.781   3.388   2.785 -0.6219  1.1805  0.0977
11551WAT     H246911   2.665   3.350   2.723  0.0212 -2.0552  0.7230
11551WAT    EPW46912   2.740   3.337   2.742 -0.5308 -0.3190 -0.4977
11552WAT      O46913   4.816   5.280   4.965 -0.4847 -0.3647  0.0837
11552WAT     H146914   4.808   5.194   4.969 -1.2285 -0.3724 -0.8980
11552WAT     H246915   4.773   5.309   5.035  0.2144 -0.8063  0.6930
11552WAT    EPW46916   4.808   5.272   4.976  0.1269 -0.0754 -0.4034
11553WAT      O46917   6.750   6.656   0.828 -0.1098 -0.2593  0.3140
11553WAT     H146918   6.833   6.659   0.800 -0.4870  1.4083 -0.8092
11553WAT     H246919   6.750   6.707   0.899  0.1311 -1.6294  1.3344
11553WAT    EPW46920   6.762   6.664   0.834  0.1567  0.2456  0.4770
11554WAT      O46921   1.742   8.064   7.713 -0.3645 -1.0038  0.1224
11554WAT     H146922   1.697   8.006   7.666 -1.4712 -0.0826 -0.0008
11554WAT     H246923   1.742   8.029   7.793 -0.2980 -1.5658 -0.1158
11554WAT    EPW46924   1.736   8.050   7.718 -0.1692  0.5036  0.6020
11555WAT      O46925   1.728   4.883   6.000  0.4887  0.3435  0.2235
11555WAT     H146926   1.714   4.800   5.977 -0.9106  0.5145  0.3894
11555WAT     H246927   1.768   4.917   5.930 -1.2590  0.1609 -0.9482
11555WAT    EPW46928   1.732   4.876   5.986  0.2530 -0.5657  0.1779
11556WAT      O46929   7.450   6.899   2.953 -0.1094 -0.3976  0.7238
11556WAT     H146930   7.504   6.967   2.948  0.8679 -1.0381  1.8812
11556WAT     H246931   7.373   6.935   2.973  0.3770  0.3767  1.2584
11556WAT    EPW46932   7.446   6.914   2.955  0.2555  0.3744 -0.4311
11557WAT      O46933   4.409   4.474   6.902  0.4916 -0.0507 -0.5814
11557WAT     H146934   4.402   4.468   6.989  0.9290  0.3459 -0.5189
11557WAT     H246935   4.345   4.422   6.874  1.3768 -1.5261 -0.0227
11557WAT    EPW46936   4.399   4.465   6.911  0.3981 -0.0583 -0.6721
11558WAT      O46937   1.419   2.761   2.043  0.1873  0.1950  0.2230
11558WAT     H146938   1.494   2.807   2.039  0.2014  0.2227  0.8148
11558WAT     H246939   1.446   2.681   2.067  0.1519 -0.1083 -0.7073
11558WAT    EPW46940   1.434   2.756   2.046  0.5173  0.9065  0.5598
11559WAT      O46941   2.076   3.755   0.285 -0.5593 -0.0589 -0.4912
11559WAT     H146942   2.094   3.692   0.228  0.4339  1.1059 -1.5316
11559WAT     H246943   2.139   3.749   0.344 -0.0086  0.4251 -1.0165
11559WAT    EPW46944   2.088   3.745   0.285  0.5893 -0.7329 -0.3192
11560WAT      O46945   0.941   4.022   0.005 -0.0401  0.1106 -0.1841
11560WAT     H146946   0.964   3.941   0.027  1.2859  0.7686  0.9622
11560WAT     H246947   0.865   4.034   0.046 -0.9259 -0.9630 -1.4168
11560WAT    EPW46948   0.933   4.012   0.014  0.0369  0.4500 -0.3519
11561WAT      O46949   5.723   5.290   4.823 -0.2003 -0.0142 -0.2193
11561WAT     H146950   5.790   5.239   4.846 -1.1901 -0.8802  0.8742
11561WAT     H246951   5.664   5.234   4.793 -0.8220  0.6295 -0.2267
11561WAT    EPW46952   5.724   5.275   4.822  0.0075 -0.2395 -0.5398
11562WAT      O46953   1.153   3.659   2.329  0.2899  0.0493  0.0832
11562WAT     H146954   1.133   3.728   2.379  0.5465  0.1992 -0.0166
11562WAT     H246955   1.133   3.591   2.379 -0.0689  0.1976  0.1407
11562WAT    EPW46956   1.147   3.659   2.344  0.1431 -0.3792  0.3311
11563WAT      O46957   1.459   6.434   2.073 -0.1774  0.0097  0.2879
11563WAT     H146958   1.421   6.467   2.144 -1.0241 -0.3830  0.0324
11563WAT     H246959   1.392   6.421   2.018  0.5848  1.4391 -1.0495
11563WAT    EPW46960   1.443   6.437   2.075 -0.0175 -0.0722  0.1590
11564WAT      O46961   1.604   2.921   7.503  0.3198 -0.0744  0.2391
11564WAT     H146962   1.642   2.945   7.577 -0.7064  3.3628 -0.1487
11564WAT     H246963   1.665   2.937   7.442 -0.5763  2.6927 -0.0906
11564WAT    EPW46964   1.618   2.927   7.505 -0.0916  0.6057  0.0895
11565WAT      O46965   1.097   4.358   3.705 -0.6234  0.8968 -0.1651
11565WAT     H146966   1.147   4.429   3.714 -0.2557  1.3088 -3.9747
11565WAT     H246967   1.150   4.293   3.730  0.5799  1.6347 -0.6769
11565WAT    EPW46968   1.112   4.359   3.710  0.3179  0.3436  0.0494
11566WAT      O46969   3.178   3.321   0.166 -0.4182 -0.1221 -0.4661
11566WAT     H146970   3.148   3.264   0.224 -0.3277 -1.3791 -1.6020
11566WAT     H246971   3.106   3.346   0.123 -0.3319 -0.1757 -0.6441
11566WAT    EPW46972   3.163   3.317   0.168  0.1530  0.4045 -0.0707
11567WAT      O46973   4.040   7.738   6.677  0.2646  0.7432  0.0744
11567WAT     H146974   3.956   7.728   6.700 -0.4339  0.1997 -2.3954
11567WAT     H246975   4.037   7.803   6.618  1.4961  0.3665 -0.4321
11567WAT    EPW46976   4.027   7.746   6.672  0.1709 -0.3354 -0.4650
11568WAT      O46977   1.997   0.790   1.682  0.0946 -0.7665  0.4718
11568WAT     H146978   1.928   0.753   1.719  0.4114 -2.6583 -0.7051
11568WAT     H246979   2.037   0.724   1.641  0.4991  0.8855 -2.0521
11568WAT    EPW46980   1.992   0.775   1.681  0.6030  0.2250  0.4228
11569WAT      O46981   5.499   4.860   1.358 -0.0925  0.1151 -0.2315
11569WAT     H146982   5.460   4.923   1.405 -0.0935  0.5997 -0.8708
11569WAT     H246983   5.439   4.841   1.298  0.7917  1.1763 -1.5044
11569WAT    EPW46984   5.484   4.867   1.356 -0.6775  0.3347  0.4355
11570WAT      O46985   2.033   2.934   3.299  0.6597  0.1825  0.8510
11570WAT     H146986   2.039   2.960   3.215  2.7960  0.1895  0.9664
11570WAT     H246987   2.092   2.870   3.305 -1.8688 -2.2914  1.5400
11570WAT    EPW46988   2.042   2.928   3.287  0.2951 -0.0299 -0.3639
11571WAT      O46989   4.188   0.785   5.900  0.2866 -0.2382  0.4285
11571WAT     H146990   4.136   0.848   5.870  0.5954  1.5836  3.3477
11571WAT     H246991   4.246   0.774   5.837 -1.2609  0.5643 -1.2188
11571WAT    EPW46992   4.189   0.793   5.887 -0.4901 -0.3899  0.1481
11572WAT      O46993   5.157   5.015   6.220 -0.1916 -0.0904 -0.0394
11572WAT     H146994   5.167   4.999   6.135  0.4285 -1.0673  0.1897
11572WAT     H246995   5.091   5.071   6.224  0.3745  0.6893 -1.2203
11572WAT    EPW46996   5.149   5.021   6.208 -0.2421  0.2745  0.1738
11573WAT      O46997   5.058   2.802   1.694  0.0104 -0.0053  0.1426
11573WAT     H146998   5.132   2.814   1.651  1.1465 -0.0815  1.9838
11573WAT     H246999   5.030   2.884   1.711 -1.0258  0.0535 -1.5812
11573WAT    EPW47000   5.065   2.816   1.690  0.2662  0.2728 -0.5184
11574WAT      O47001   2.003   4.408   4.912  0.2543 -0.3949  0.4828
11574WAT     H147002   2.077   4.381   4.950  0.2956 -0.5882  0.2681
11574WAT     H247003   1.941   4.360   4.951  0.2074 -0.0270  0.8687
11574WAT    EPW47004   2.005   4.397   4.923 -0.5393 -0.6488  0.5056
11575WAT      O47005   2.140   4.767   2.759 -0.1346  0.3331  0.2446
11575WAT     H147006   2.089   4.836   2.742  0.5346  1.2485  1.7641
11575WAT     H247007   2.085   4.700   2.755 -1.4940  1.2800  1.7718
11575WAT    EPW47008   2.125   4.767   2.756 -0.3952  0.1665  0.1945
11576WAT      O47009   1.651   2.189   4.152 -0.1235  0.1506 -0.0570
11576WAT     H147010   1.723   2.235   4.171 -1.2336  0.8439  3.2551
11576WAT     H247011   1.639   2.140   4.224 -3.0548  0.2674 -0.3590
11576WAT    EPW47012   1.660   2.189   4.166 -0.2197 -0.5884  0.5771
11577WAT      O47013   1.778   2.718   6.232 -0.8984  0.6514  0.1853
11577WAT     H147014   1.840   2.662   6.208  0.0329  0.3774  2.9670
11577WAT     H247015   1.798   2.791   6.189  0.3466  0.0759 -0.2405
11577WAT    EPW47016   1.790   2.721   6.222  0.4637  0.0978  0.0978
11578WAT      O47017   2.602   4.124   4.177 -0.4601 -0.1503  0.3935
11578WAT     H147018   2.656   4.058   4.158  0.0906 -0.0022  1.4037
11578WAT     H247019   2.649   4.176   4.228 -1.2502  0.4744  0.5162
11578WAT    EPW47020   2.617   4.122   4.182  0.3492 -0.2468 -0.2055
11579WAT      O47021   6.810   1.533   0.222 -0.2193  0.5015 -0.3398
11579WAT     H147022   6.825   1.448   0.207 -0.4984 -0.1027  2.3280
11579WAT     H247023   6.723   1.540   0.212 -0.5060 -0.0529  1.4602
11579WAT    EPW47024   6.799   1.521   0.218  0.1276  0.4049  0.6101
11580WAT      O47025   7.884   2.351   1.380 -0.2627 -0.1122  0.0653
11580WAT     H147026   7.887   2.264   1.372 -0.9049 -0.2553  1.2744
11580WAT     H247027   7.963   2.371   1.412 -0.0706 -0.2309 -0.3240
11580WAT    EPW47028   7.896   2.341   1.383 -0.2612  0.5726 -0.3358
11581WAT      O47029   1.878   3.075   3.645 -0.0441  0.6299  0.7566
11581WAT     H147030   1.897   3.124   3.575 -2.9821 -0.2623 -0.8188
11581WAT     H247031   1.890   2.994   3.617 -1.5922  0.2504  1.1170
11581WAT    EPW47032   1.883   3.070   3.631 -0.0990  0.2015 -0.3147
11582WAT      O47033   3.428   5.581   7.355 -0.6450  0.0204  0.0335
11582WAT     H147034   3.384   5.648   7.318 -0.7112  0.0339  0.1359
11582WAT     H247035   3.510   5.595   7.330 -0.4332  0.8728  1.1204
11582WAT    EPW47036   3.433   5.593   7.346 -0.0695 -0.1734 -0.3329
11583WAT      O47037   5.512   2.845   4.484  0.1867  0.6289  0.2595
11583WAT     H147038   5.483   2.916   4.525 -0.5565  1.6446 -1.8782
11583WAT     H247039   5.447   2.824   4.431  0.9254 -0.8782 -0.0972
11583WAT    EPW47040   5.498   2.853   4.482 -0.4633  0.0539  0.4157
11584WAT      O47041   1.356   7.950   2.953  0.5630 -0.2320 -0.4795
11584WAT     H147042   1.377   7.910   2.878  0.5692  1.5735 -1.5136
11584WAT     H247043   1.288   8.000   2.931 -0.0806 -0.4086  0.9936
11584WAT    EPW47044   1.349   7.951   2.939  0.4886  0.5410 -0.7548
11585WAT      O47045   3.227   2.073   8.025 -0.2847  0.2127 -0.3705
11585WAT     H147046   3.282   2.077   8.092 -0.2025  0.6202 -0.4624
11585WAT     H247047   3.191   2.153   8.022 -0.9772 -0.0810 -0.2331
11585WAT    EPW47048   3.230   2.085   8.034  0.0713 -0.1097  0.1853
11586WAT      O47049   2.195   7.744   6.414  0.1472 -0.1925  0.1687
11586WAT     H147050   2.228   7.713   6.488  2.4998 -1.1967 -1.1806
11586WAT     H247051   2.238   7.820   6.402 -0.3735  0.0716 -0.0641
11586WAT    EPW47052   2.206   7.751   6.423 -0.0627  0.2888  0.3128
11587WAT      O47053   1.232   5.492   1.802  0.3707 -0.5216 -0.3317
11587WAT     H147054   1.313   5.496   1.769  0.4970 -1.0249 -0.0878
11587WAT     H247055   1.202   5.573   1.792  1.0710 -0.2143  0.0047
11587WAT    EPW47056   1.240   5.504   1.795 -0.3171  0.0842  0.1731
11588WAT      O47057   2.542   1.599   2.125  0.4656  0.0668  0.6695
11588WAT     H147058   2.609   1.648   2.099 -0.0065  0.7465  0.6958
11588WAT     H247059   2.503   1.576   2.050  1.1146 -0.9088  0.6168
11588WAT    EPW47060   2.546   1.603   2.110  0.2255 -0.3432 -0.7814
11589WAT      O47061   0.144   5.610   0.528  0.2763  0.0220  0.2100
11589WAT     H147062   0.064   5.591   0.559  0.0571  1.0044  0.2784
11589WAT     H247063   0.130   5.617   0.442  0.4587 -0.6141  0.1259
11589WAT    EPW47064   0.130   5.608   0.520 -0.2742 -0.1770 -0.0046
11590WAT      O47065   7.481   2.698   4.093 -0.1537  0.0405 -0.6863
11590WAT     H147066   7.545   2.758   4.091  0.8966 -0.7110  3.1408
11590WAT     H247067   7.515   2.631   4.048  0.2606  0.8768 -1.6588
11590WAT    EPW47068   7.496   2.697   4.086  0.3660 -0.3794 -0.3433
11591WAT      O47069   0.274   3.221   0.660 -0.0455  0.0479  0.1226
11591WAT     H147070   0.345   3.267   0.639 -1.1182  2.6704  1.7776
11591WAT     H247071   0.303   3.165   0.720  0.8117  0.3768  0.0249
11591WAT    EPW47072   0.289   3.220   0.666 -0.3360 -0.4182 -0.0530
11592WAT      O47073   0.948  -0.011   4.342  0.1565 -0.5294 -0.1469
11592WAT     H147074   0.984   0.064   4.314  4.1873 -2.4632 -0.8624
11592WAT     H247075   0.900  -0.036   4.274  1.5638 -0.1632 -1.3435
11592WAT    EPW47076   0.946  -0.003   4.328  0.0624  0.2066  0.0351
11593WAT      O47077   1.912   2.834   1.491  0.1788 -0.7414  0.4291
11593WAT     H147078   1.996   2.847   1.468  0.1970 -1.5733 -0.0383
11593WAT     H247079   1.911   2.854   1.576  0.9647 -1.1714  0.5539
11593WAT    EPW47080   1.924   2.839   1.500  0.1224  0.8408 -0.6503
11594WAT      O47081   1.687   0.699   4.936 -0.0987  0.1970 -0.3790
11594WAT     H147082   1.708   0.620   4.905  1.0319  0.9356 -1.6398
11594WAT     H247083   1.765   0.738   4.945 -0.5616  0.8326  1.2531
11594WAT    EPW47084   1.702   0.693   4.933 -0.4724 -0.0625  0.3646
11595WAT      O47085   3.114   1.896   2.823  0.5098  0.0679 -1.0727
11595WAT     H147086   3.098   1.982   2.815  3.8340  0.8500 -0.9479
11595WAT     H247087   3.139   1.888   2.906 -2.1652 -1.6314 -0.3122
11595WAT    EPW47088   3.115   1.908   2.834 -0.0657 -0.0886 -0.2557
11596WAT      O47089   7.106   2.010   3.971  0.1617  0.0474 -0.1587
11596WAT     H147090   7.172   2.022   4.027 -0.5338  0.1577  0.6607
11596WAT     H247091   7.136   1.951   3.914  1.3557  0.9047 -0.4535
11596WAT    EPW47092   7.120   2.003   3.971  0.3870  0.3514 -0.5262
11597WAT      O47093   3.049   3.248   3.977 -0.3048  0.6784  0.1253
11597WAT     H147094   3.094   3.179   3.947 -0.9679 -0.3470  1.3845
11597WAT     H247095   3.098   3.277   4.043 -1.2045 -0.1541  1.1994
11597WAT    EPW47096   3.063   3.242   3.982 -0.1962  0.5490 -0.3007
11598WAT      O47097   2.766   2.435   3.762 -0.5023 -0.3265 -0.0355
11598WAT     H147098   2.844   2.415   3.794 -0.5615 -1.2108 -0.4218
11598WAT     H247099   2.774   2.519   3.739 -0.0589 -0.0447  1.0480
11598WAT    EPW47100   2.778   2.445   3.764  0.4693 -0.3625  0.2426
11599WAT      O47101   1.699   4.452   0.253 -0.9917  0.4142 -0.1499
11599WAT     H147102   1.678   4.500   0.183 -2.3347 -2.7189 -2.1165
11599WAT     H247103   1.766   4.404   0.224 -0.8007 -0.1124  1.1333
11599WAT    EPW47104   1.706   4.452   0.238  0.0903  0.1954  0.1847
11600WAT      O47105   0.342   7.624   4.057  0.4106  0.3695 -0.4523
11600WAT     H147106   0.315   7.687   4.111 -1.8221  0.1721 -1.2179
11600WAT     H247107   0.407   7.586   4.100 -0.8791  0.5929  1.8513
11600WAT    EPW47108   0.348   7.628   4.071  0.1150 -0.2463 -0.3402
11601WAT      O47109   2.472   2.659   5.230  0.3735  0.1407  0.0493
11601WAT     H147110   2.522   2.730   5.237  1.3315 -0.6574  2.1648
11601WAT     H247111   2.411   2.671   5.292  0.0337 -0.5095 -0.1469
11601WAT    EPW47112   2.470   2.671   5.240 -0.1950 -0.0138  0.4298
11602WAT      O47113   1.591   4.465   3.521 -0.5091 -0.3763  0.3511
11602WAT     H147114   1.584   4.462   3.608  0.6512 -0.1910  0.4719
11602WAT     H247115   1.614   4.548   3.505 -1.3187 -0.2434 -0.1975
11602WAT    EPW47116   1.593   4.477   3.531 -0.1305 -0.2425  0.1428
11603WAT      O47117   3.044   1.044   4.402 -0.0497 -0.3825 -0.8468
11603WAT     H147118   3.129   1.031   4.395 -0.3357 -2.3772 -1.0753
11603WAT     H247119   3.038   1.120   4.445  1.8178 -0.2848 -0.7080
11603WAT    EPW47120   3.055   1.054   4.408 -0.4432 -0.0681 -0.5485
11604WAT      O47121   3.102   3.756   7.860 -0.8557  0.3157  0.3670
11604WAT     H147122   3.030   3.778   7.904 -0.7001  2.6721 -0.4122
11604WAT     H247123   3.126   3.831   7.822  1.3080 -0.7026 -0.4101
11604WAT    EPW47124   3.095   3.770   7.861 -0.3744 -0.4186 -0.3869
11605WAT      O47125   0.504   1.029   2.244 -0.2347 -0.1548 -0.2092
11605WAT     H147126   0.437   1.030   2.189  1.7414  0.0923 -2.8214
11605WAT     H247127   0.475   0.983   2.312 -2.6369 -1.0484 -1.7302
11605WAT    EPW47128   0.490   1.023   2.246 -0.6175 -0.1086  0.3222
11606WAT      O47129   6.719   7.502   2.988 -0.2918 -0.0629 -0.2753
11606WAT     H147130   6.766   7.429   2.975 -0.6086  0.0512 -2.5123
11606WAT     H247131   6.686   7.492   3.068  2.3280 -0.8172  0.8311
11606WAT    EPW47132   6.721   7.490   2.998  0.3768  0.2064  0.1009
11607WAT      O47133   0.805   0.576   0.119  0.1450 -0.5541 -0.5657
11607WAT     H147134   0.885   0.568   0.153  0.4082 -0.6433 -1.1880
11607WAT     H247135   0.804   0.657   0.086 -0.7221  0.1968  1.1683
11607WAT    EPW47136   0.817   0.587   0.119 -0.2273  0.3281 -0.3321
11608WAT      O47137   0.599   1.243   2.423 -0.4460 -0.3715 -0.1928
11608WAT     H147138   0.520   1.225   2.389 -0.6704  0.3981 -0.1081
11608WAT     H247139   0.651   1.183   2.386 -0.7286  0.2707 -1.7244
11608WAT    EPW47140   0.595   1.231   2.412  0.1453  0.8375 -0.3198
11609WAT      O47141   6.230   4.754   0.636  0.2548 -0.2536 -0.3058
11609WAT     H147142   6.198   4.691   0.688  1.8436 -0.0674  0.9811
11609WAT     H247143   6.160   4.802   0.617 -0.6437 -1.2432  0.3648
11609WAT    EPW47144   6.215   4.752   0.641  0.0739  0.6920  0.6418
11610WAT      O47145   2.302   6.755   2.934  0.7847  0.5214  0.2855
11610WAT     H147146   2.256   6.763   3.008  1.1408  1.9038  0.3860
11610WAT     H247147   2.241   6.759   2.872  0.3658 -1.6622  0.4842
11610WAT    EPW47148   2.286   6.757   2.936  0.6058  0.5871 -0.0971
11611WAT      O47149   3.627   6.415   5.200 -0.4186  0.3605  0.0347
11611WAT     H147150   3.584   6.462   5.259  1.5336  1.6211  0.5394
11611WAT     H247151   3.588   6.436   5.125 -1.1577  0.8578  0.5478
11611WAT    EPW47152   3.615   6.425   5.197 -0.3747  0.1222 -0.4377
11612WAT      O47153   6.109   0.642   0.521 -0.0012 -0.2356  0.3376
11612WAT     H147154   6.112   0.688   0.447 -1.4721 -0.3730  0.1574
11612WAT     H247155   6.071   0.567   0.497 -0.8395 -0.1422  1.2738
11612WAT    EPW47156   6.104   0.637   0.507 -0.2821 -0.4564 -0.1359
11613WAT      O47157   2.338   6.491   7.530  0.4640  0.0914  0.0884
11613WAT     H147158   2.410   6.470   7.575  0.9730  1.4570 -0.0291
11613WAT     H247159   2.327   6.575   7.548 -1.0774 -0.0781  0.0267
11613WAT    EPW47160   2.347   6.500   7.540 -0.1372 -0.3880  0.0619
11614WAT      O47161   3.851   4.266   7.639  0.5831  0.1415 -0.0564
11614WAT     H147162   3.921   4.232   7.599  0.4455  0.5301 -0.6521
11614WAT     H247163   3.789   4.206   7.625  1.0344 -0.6822  1.3487
11614WAT    EPW47164   3.852   4.252   7.631 -0.4108  0.0796 -0.5750
11615WAT      O47165   7.288   5.917   2.942 -0.0321  0.1616  0.0336
11615WAT     H147166   7.349   5.972   2.968  0.7130 -0.8360  0.4551
11615WAT     H247167   7.311   5.899   2.859 -0.3526  0.5719 -0.1490
11615WAT    EPW47168   7.300   5.922   2.933  0.1910  0.0978  0.0668
11616WAT      O47169   0.834   2.372   0.985  0.7800 -0.2094  0.7929
11616WAT     H147170   0.859   2.297   0.948  1.5664  0.0504  0.7858
11616WAT     H247171   0.747   2.363   0.990  0.7824 -0.8137  0.1178
11616WAT    EPW47172   0.825   2.359   0.980 -0.6975  0.3690 -0.1003
11617WAT      O47173   1.764   2.021   3.967 -0.0486  0.4536  0.1330
11617WAT     H147174   1.765   2.053   3.885 -0.6510 -0.0989 -0.1059
11617WAT     H247175   1.739   2.089   4.015  3.2879  1.6926  0.3267
11617WAT    EPW47176   1.760   2.035   3.962  0.6176 -0.4518 -0.5968
11618WAT      O47177   7.635   6.901   1.546 -0.0462  0.1921 -0.3874
11618WAT     H147178   7.625   6.962   1.485  0.8983  0.6392 -0.1135
11618WAT     H247179   7.691   6.845   1.510  2.6989  1.8450  0.9971
11618WAT    EPW47180   7.642   6.902   1.532  0.1208 -0.0264  0.0028
11619WAT      O47181   1.568   2.384   3.732 -0.2850  0.7913  0.8772
11619WAT     H147182   1.609   2.396   3.656 -2.7927  3.1741 -0.2890
11619WAT     H247183   1.546   2.299   3.731 -0.2386  0.7621 -1.0792
11619WAT    EPW47184   1.571   2.373   3.721 -0.3804  0.5690 -0.6608
11620WAT      O47185   2.516   1.194   1.258  0.2568 -0.2101  0.0987
11620WAT     H147186   2.568   1.263   1.245  1.1947 -1.0910 -1.0381
11620WAT     H247187   2.517   1.153   1.181  0.6591 -2.1134  1.0678
11620WAT    EPW47188   2.524   1.198   1.244  1.1306  0.2949  0.5005
11621WAT      O47189   2.746   4.427   0.867 -0.1529  0.0779  0.7501
11621WAT     H147190   2.735   4.483   0.801 -0.9017 -0.8552  0.0572
11621WAT     H247191   2.830   4.407   0.862 -0.6279 -1.8279 -1.5177
11621WAT    EPW47192   2.757   4.433   0.856 -0.0980  0.2188 -0.1466
11622WAT      O47193   7.031   1.848   2.121  0.6029 -0.6202  0.0384
11622WAT     H147194   6.990   1.787   2.168  2.1446 -1.4272  0.4041
11622WAT     H247195   7.043   1.913   2.178 -1.1856  0.1473 -0.3938
11622WAT    EPW47196   7.027   1.849   2.136 -0.5008 -0.1415 -0.6014
11623WAT      O47197   1.532   0.760   6.052 -0.1271  0.5079  0.2544
11623WAT     H147198   1.580   0.769   5.980 -0.9268  0.5935 -0.2753
11623WAT     H247199   1.466   0.816   6.040 -1.9650 -1.6363 -0.3808
11623WAT    EPW47200   1.529   0.770   6.040 -0.1672  0.3798 -0.1879
11624WAT      O47201   5.818   5.731   1.256 -0.2805 -0.2174 -0.5754
11624WAT     H147202   5.768   5.802   1.252 -1.3807 -0.7826  1.4118
11624WAT     H247203   5.896   5.761   1.280 -0.3430  0.4361 -1.1714
11624WAT    EPW47204   5.822   5.746   1.259  0.2440  0.0363  0.5973
11625WAT      O47205   4.129   1.679   5.786 -0.6471 -0.1879 -0.0238
11625WAT     H147206   4.125   1.751   5.835 -0.4444  0.0600 -0.3684
11625WAT     H247207   4.149   1.616   5.843 -0.4172  0.0995  0.2104
11625WAT    EPW47208   4.131   1.680   5.802 -0.2886 -0.0304 -0.2214
11626WAT      O47209   2.254   0.673   0.045  0.1383  0.2124 -0.2446
11626WAT     H147210   2.185   0.630   0.013  0.3810 -0.2001 -0.2197
11626WAT     H247211   2.241   0.755   0.017 -1.1851  0.5021  1.1038
11626WAT    EPW47212   2.242   0.679   0.036 -0.5014  0.0665 -0.2025
11627WAT      O47213   2.816   1.192   3.600 -0.0359 -0.4281  0.0729
11627WAT     H147214   2.814   1.247   3.532 -1.1885 -1.2731 -0.6060
11627WAT     H247215   2.735   1.195   3.632  0.2594 -0.7043  0.8743
11627WAT    EPW47216   2.804   1.200   3.595 -0.5016 -0.3881  0.0954
11628WAT      O47217   2.808   6.132   5.950  0.2070  0.1922  0.5896
11628WAT     H147218   2.783   6.061   5.906  0.1062  0.5663  0.0210
11628WAT     H247219   2.860   6.101   6.012  0.8698 -0.2967 -0.1949
11628WAT    EPW47220   2.812   6.117   5.952 -0.5670  0.0402  0.1944
11629WAT      O47221   2.677   2.492   6.567 -0.5152  0.0424  0.0834
11629WAT     H147222   2.729   2.488   6.497 -0.5538  0.4845  0.0232
11629WAT     H247223   2.720   2.445   6.627 -1.7504 -2.6509 -1.0011
11629WAT    EPW47224   2.691   2.485   6.565 -0.2250  0.1082  0.1083
11630WAT      O47225   7.590   1.400   0.654 -0.0792  0.1655  0.2757
11630WAT     H147226   7.626   1.433   0.582  1.2350 -0.7662  0.4741
11630WAT     H247227   7.635   1.438   0.719  1.0130 -1.4579  0.5155
11630WAT    EPW47228   7.602   1.411   0.653  0.8118  0.3347  0.5637
11631WAT      O47229   3.244   4.524   1.703  0.6329 -0.4786  0.0352
11631WAT     H147230   3.276   4.576   1.765 -0.7291 -0.7738  1.0150
11631WAT     H247231   3.217   4.580   1.642 -1.7664  0.1116  1.5230
11631WAT    EPW47232   3.245   4.540   1.703  0.4617 -0.0383  0.4607
11632WAT      O47233   3.383   1.694   2.947 -0.0182  0.1427  0.3176
11632WAT     H147234   3.308   1.658   2.919  0.2182 -1.5261  1.6625
11632WAT     H247235   3.434   1.692   2.876 -1.2968  1.6657 -0.7340
11632WAT    EPW47236   3.380   1.688   2.932  0.2777  0.0888 -0.0757
11633WAT      O47237   4.128   1.325   5.561 -0.3835 -0.2859  0.2141
11633WAT     H147238   4.142   1.411   5.565 -1.5501 -0.0736 -0.0191
11633WAT     H247239   4.183   1.292   5.620 -0.5760  0.6985  0.9540
11633WAT    EPW47240   4.139   1.333   5.570  0.4823 -0.2181 -0.5576
11634WAT      O47241   4.999   2.231   0.693  0.3524  0.3404 -0.7886
11634WAT     H147242   4.921   2.243   0.730 -0.3596 -1.9311 -1.3640
11634WAT     H247243   5.038   2.309   0.700 -0.0859  0.3986  3.7032
11634WAT    EPW47244   4.993   2.244   0.699  0.2900 -0.0943 -0.3997
11635WAT      O47245   4.213   0.382   4.897 -0.6492 -0.1537  0.1457
11635WAT     H147246   4.143   0.376   4.948 -1.6607 -0.1958 -1.1853
11635WAT     H247247   4.181   0.413   4.821  0.5406 -1.3516 -0.9040
11635WAT    EPW47248   4.198   0.386   4.893  0.0957  0.0754  0.3402
11636WAT      O47249   1.149   4.841   0.771 -0.3326  0.2476  0.1885
11636WAT     H147250   1.190   4.911   0.739 -1.3182  0.4969 -0.5866
11636WAT     H247251   1.179   4.776   0.722 -0.4522  0.3450 -0.0154
11636WAT    EPW47252   1.160   4.842   0.759  0.1990  0.3805 -0.3284
11637WAT      O47253   2.008   2.295   5.794  0.1954  0.4378 -0.2760
11637WAT     H147254   2.013   2.217   5.754  1.5080  0.9830 -1.2069
11637WAT     H247255   1.922   2.306   5.804 -0.0216 -1.4180  0.4826
11637WAT    EPW47256   1.996   2.285   5.790 -0.1997 -0.0345 -0.2582
11638WAT      O47257   4.632   7.674   1.242  0.0185  0.3567 -0.1585
11638WAT     H147258   4.585   7.711   1.178 -0.5670 -0.9613 -0.5454
11638WAT     H247259   4.572   7.636   1.292  0.5112  0.9746  0.9229
11638WAT    EPW47260   4.616   7.674   1.240  0.3831  0.1774 -0.3315
11639WAT      O47261   5.434   4.395   7.855  0.0960  0.0223  0.0180
11639WAT     H147262   5.353   4.365   7.848  0.4304 -1.2064  0.9331
11639WAT     H247263   5.451   4.390   7.940  2.4468 -3.7134 -0.3912
11639WAT    EPW47264   5.425   4.390   7.866  0.0514 -0.1365  0.0444
11640WAT      O47265   5.031   4.492   7.293 -0.4031  0.3600 -0.0480
11640WAT     H147266   5.068   4.565   7.323 -0.5020  0.3663  0.0587
11640WAT     H247267   5.063   4.485   7.212 -0.5418  0.6275 -0.1285
11640WAT    EPW47268   5.041   4.502   7.285 -0.2291 -0.7017 -0.2668
11641WAT      O47269   5.008   6.052   7.661 -0.2563  0.0503 -0.3187
11641WAT     H147270   5.034   6.070   7.579 -0.1683  0.0508 -0.2911
11641WAT     H247271   5.080   6.019   7.698 -0.3585 -0.1570 -0.3064
11641WAT    EPW47272   5.022   6.050   7.654  0.0430 -0.3439  0.2590
11642WAT      O47273   1.248   7.140   7.479 -0.0069  0.2497 -0.1227
11642WAT     H147274   1.174   7.133   7.433  0.7960 -0.3878 -1.3534
11642WAT     H247275   1.249   7.224   7.503 -0.6928  0.4794 -0.8568
11642WAT    EPW47276   1.237   7.152   7.476  0.2184  0.3382 -0.1789
11643WAT      O47277   3.409   7.483   7.524 -0.2220 -0.6827 -0.4129
11643WAT     H147278   3.462   7.507   7.589 -2.8975 -0.2583  1.7476
11643WAT     H247279   3.403   7.556   7.476  1.1704 -0.7726 -0.7701
11643WAT    EPW47280   3.416   7.497   7.526  0.1414  0.2144 -0.4428
11644WAT      O47281   7.413   0.986   1.353  0.2036  0.4521  0.1824
11644WAT     H147282   7.388   0.951   1.277  0.7308 -1.5576  0.8824
11644WAT     H247283   7.457   0.922   1.392  1.0971  1.8672  1.6417
11644WAT    EPW47284   7.416   0.972   1.347 -0.4076  0.1521  0.2263
11645WAT      O47285   1.902   1.886   7.990 -0.4434 -0.9376 -0.7179
11645WAT     H147286   1.818   1.893   8.009 -0.2057 -0.5264  0.2823
11645WAT     H247287   1.908   1.915   7.908 -1.0426  0.6502 -0.2369
11645WAT    EPW47288   1.891   1.891   7.981 -0.5352 -0.2722 -0.3296
11646WAT      O47289   3.140   3.128   4.796 -0.1400  0.1242 -0.3688
11646WAT     H147290   3.147   3.174   4.869  0.1282  1.2473 -1.0825
11646WAT     H247291   3.220   3.130   4.762 -0.1627 -0.7265 -0.4989
11646WAT    EPW47292   3.153   3.135   4.801  0.0764  0.5527 -0.6344
11647WAT      O47293   3.979   3.436   0.989  0.1863  0.7492  0.2665
11647WAT     H147294   4.032   3.405   0.927  1.2803  0.8045  1.1389
11647WAT     H247295   4.025   3.426   1.062 -0.5378  1.9051  0.9118
11647WAT    EPW47296   3.993   3.430   0.990 -0.0503  0.6884 -0.2002
11648WAT      O47297   3.278   0.167   5.911  0.4339  0.2201 -0.5407
11648WAT     H147298   3.230   0.165   5.838  1.0033 -0.7516 -0.9110
11648WAT     H247299   3.331   0.098   5.902 -0.2872 -0.6476  1.3348
11648WAT    EPW47300   3.279   0.156   5.898  0.0873  0.0314 -0.1667
11649WAT      O47301   3.800   2.292   0.562  0.4436 -0.1249  0.0548
11649WAT     H147302   3.790   2.368   0.520 -0.8538 -0.5680 -0.5103
11649WAT     H247303   3.720   2.275   0.593  1.0707 -0.5032  1.5364
11649WAT    EPW47304   3.787   2.301   0.560  0.3659 -0.2368 -0.0344
11650WAT      O47305   4.320   1.593   6.848 -0.0716  0.6318  0.3161
11650WAT     H147306   4.273   1.647   6.898  2.2958  1.9265  1.2732
11650WAT     H247307   4.373   1.553   6.905  0.2806 -0.5209 -0.7706
11650WAT    EPW47308   4.321   1.595   6.864 -0.3199  0.1018  0.1063
11651WAT      O47309   1.390   3.921   0.004  0.9783 -0.0091  0.4851
11651WAT     H147310   1.392   3.874  -0.069  1.2209  0.7708 -0.0211
11651WAT     H247311   1.373   3.862   0.066 -2.5216 -0.2858 -0.5301
11651WAT    EPW47312   1.387   3.905   0.003  0.0045 -0.5816 -0.0590
11652WAT      O47313   3.902   7.970   3.664  0.1888  0.1629  0.2998
11652WAT     H147314   3.938   7.964   3.585 -0.8375  0.7850 -0.2359
11652WAT     H247315   3.961   8.014   3.710  0.6712  0.0530 -0.1970
11652WAT    EPW47316   3.916   7.975   3.659 -0.0317 -0.1902  0.5516
11653WAT      O47317   5.662   2.163   5.717  0.1056  0.3022  0.0292
11653WAT     H147318   5.601   2.101   5.711  0.3815  0.1536 -1.5127
11653WAT     H247319   5.652   2.193   5.799 -0.1325 -1.6535  0.7869
11653WAT    EPW47320   5.652   2.158   5.729 -0.6278  0.2213 -0.4802
11654WAT      O47321   2.050   7.439   3.212 -0.6836  0.0839 -0.5336
11654WAT     H147322   2.071   7.500   3.270  0.5919 -1.1717  0.4040
11654WAT     H247323   1.969   7.459   3.188 -0.6744  1.5064  0.5345
11654WAT    EPW47324   2.041   7.451   3.217  0.2694 -0.0009 -0.8647
11655WAT      O47325   5.411   0.230   0.708  0.6454 -0.6231 -0.2884
11655WAT     H147326   5.427   0.289   0.771 -0.3920  0.0237 -0.5957
11655WAT     H247327   5.416   0.277   0.635  0.4148 -1.0533 -0.5836
11655WAT    EPW47328   5.414   0.246   0.707 -0.1562  0.7521 -0.3878
11656WAT      O47329   1.885   7.124   8.003 -0.4111 -0.2623 -0.5938
11656WAT     H147330   1.868   7.152   8.085 -0.3120  0.3429 -0.7725
11656WAT     H247331   1.898   7.039   8.013  2.9221  0.1980  0.6028
11656WAT    EPW47332   1.885   7.116   8.017  0.5327 -0.4880  0.2700
11657WAT      O47333   1.565   1.681   7.991 -0.3550 -0.5667  0.1398
11657WAT     H147334   1.481   1.673   7.970 -0.4812  0.1329  0.3599
11657WAT     H247335   1.590   1.754   7.950  0.0604 -0.5960  0.3337
11657WAT    EPW47336   1.556   1.691   7.982  0.2214  0.1208 -0.6060
11658WAT      O47337   1.918   2.576   0.054 -0.5312  0.2900 -0.8059
11658WAT     H147338   1.883   2.504   0.090 -0.4830  0.2420 -0.8547
11658WAT     H247339   1.930   2.553  -0.030 -0.6374  0.3985 -0.8511
11658WAT    EPW47340   1.914   2.562   0.047  0.3940  0.0569  0.2542
11659WAT      O47341   3.139   1.749   4.579  0.2160  0.1064 -0.0154
11659WAT     H147342   3.225   1.736   4.592 -0.0320 -1.0151  0.7214
11659WAT     H247343   3.135   1.830   4.549  1.4911  0.4329  0.5957
11659WAT    EPW47344   3.151   1.759   4.577  0.3888  0.1926 -0.4289
11660WAT      O47345   8.001   5.954   3.345  0.5660 -0.6549  0.5045
11660WAT     H147346   8.014   5.929   3.262  1.6400  1.9175 -0.2118
11660WAT     H247347   7.922   5.923   3.364  0.1545 -1.0589 -1.6236
11660WAT    EPW47348   7.991   5.946   3.335 -0.0169 -0.4728 -0.3410
11661WAT      O47349   8.074   0.064   1.444 -0.2904 -0.3989  0.1876
11661WAT     H147350   8.067   0.150   1.438 -0.8805 -0.3447  1.4109
11661WAT     H247351   8.064   0.048   1.529  1.7860 -1.5238  0.2844
11661WAT    EPW47352   8.071   0.074   1.456 -0.1911  0.4919  0.2512
11662WAT      O47353   3.108   7.405   6.888  0.4002  0.4011  0.2988
11662WAT     H147354   3.092   7.488   6.866 -1.6486  0.4454  1.6593
11662WAT     H247355   3.138   7.411   6.970 -0.9950 -0.2037  0.8976
11662WAT    EPW47356   3.110   7.418   6.897  0.1511 -0.4581  0.1879
11663WAT      O47357   3.225   6.747   0.742 -0.5165  0.2341  0.6889
11663WAT     H147358   3.286   6.809   0.746 -1.1591  0.8697  0.8707
11663WAT     H247359   3.175   6.772   0.675 -1.1406  0.2621  1.1575
11663WAT    EPW47360   3.227   6.760   0.733  0.0777  0.2270  0.5725
11664WAT      O47361   8.037   1.519   0.140 -1.4038  0.5988  0.7445
11664WAT     H147362   8.112   1.475   0.149 -1.1660  0.2938 -2.0624
11664WAT     H247363   8.033   1.567   0.214  1.1395  0.0626  1.3335
11664WAT    EPW47364   8.047   1.520   0.152 -0.6369 -0.1803 -0.0281
11665WAT      O47365   2.206   4.448   5.226 -0.3934 -0.1602  0.1252
11665WAT     H147366   2.285   4.421   5.253 -0.7966  0.7427  2.5099
11665WAT     H247367   2.151   4.403   5.277 -1.3052  0.9252  0.1451
11665WAT    EPW47368   2.210   4.437   5.238  0.2499 -0.5862 -1.0165
11666WAT      O47369   2.096   3.324   4.837 -0.3361  0.6337  0.8345
11666WAT     H147370   2.028   3.379   4.840  0.1581  1.3963 -0.9533
11666WAT     H247371   2.066   3.257   4.791 -0.2555  0.3846  1.1412
11666WAT    EPW47372   2.082   3.322   4.831 -0.2513  0.6710 -0.1654
11667WAT      O47373   0.513   0.471   7.842  0.1433 -0.0022 -0.1105
11667WAT     H147374   0.480   0.428   7.774  1.1737 -0.0126 -0.6160
11667WAT     H247375   0.476   0.432   7.911 -1.4209  0.4290 -0.6476
11667WAT    EPW47376   0.502   0.459   7.842 -0.1640 -0.0001 -0.2189
11668WAT      O47377   1.343   1.407   3.298  0.5878 -0.0964  0.1076
11668WAT     H147378   1.386   1.480   3.319 -0.4941  1.7304 -3.1763
11668WAT     H247379   1.260   1.434   3.293  0.1882 -1.4556 -1.3328
11668WAT    EPW47380   1.337   1.422   3.300 -0.2870  0.7716 -0.2647
11669WAT      O47381   1.859   6.533   6.551 -0.2292 -0.4656  0.2697
11669WAT     H147382   1.922   6.473   6.545  0.5269  0.4054 -1.3595
11669WAT     H247383   1.827   6.538   6.470 -0.5275  1.0214  0.4397
11669WAT    EPW47384   1.864   6.525   6.538  0.6062  0.1368 -0.1762
11670WAT      O47385   3.423   6.132   5.390 -0.7057 -1.3825 -0.0327
11670WAT     H147386   3.500   6.127   5.349 -0.5181 -0.2909  0.1660
11670WAT     H247387   3.428   6.069   5.449  0.1153 -1.2145  0.0900
11670WAT    EPW47388   3.436   6.122   5.392 -0.2175  0.1111 -0.3356
11671WAT      O47389   1.873   0.255   5.957 -0.3802 -0.3745  0.2796
11671WAT     H147390   1.822   0.269   6.026 -0.9337 -0.8367 -0.0315
11671WAT     H247391   1.880   0.168   5.953  1.7854 -0.3300  1.2952
11671WAT    EPW47392   1.867   0.244   5.967  0.3299 -0.4782  0.9242
11672WAT      O47393   2.789   1.409   3.411 -0.4937  0.3191  0.7352
11672WAT     H147394   2.730   1.464   3.446 -0.6131  2.1219 -2.0395
11672WAT     H247395   2.858   1.460   3.395 -0.6919 -0.1650 -2.1648
11672WAT    EPW47396   2.790   1.424   3.414  0.4216 -0.3653  0.1362
11673WAT      O47397   3.242   7.408   7.872 -0.3001 -0.0284 -0.2892
11673WAT     H147398   3.273   7.346   7.818 -0.9941  0.3640 -1.1534
11673WAT     H247399   3.196   7.460   7.820  1.4356  2.0931  0.1353
11673WAT    EPW47400   3.240   7.406   7.856  0.2380 -0.2775 -0.2631
11674WAT      O47401   3.465   7.741   6.664 -0.0699  0.2922 -0.5211
11674WAT     H147402   3.530   7.700   6.706 -0.0625  0.1812 -0.6379
11674WAT     H247403   3.505   7.782   6.599  0.1450  1.8259  0.5201
11674WAT    EPW47404   3.481   7.741   6.661 -0.0596  0.1375 -0.5821
11675WAT      O47405   3.192   1.228   5.751 -0.8514 -0.6126 -0.3629
11675WAT     H147406   3.241   1.238   5.823 -0.3038 -0.4918 -0.7476
11675WAT     H247407   3.111   1.244   5.779 -0.7044 -1.0549  0.3347
11675WAT    EPW47408   3.188   1.232   5.766 -0.3921 -0.3799 -0.3128
11676WAT      O47409   3.542   8.005   1.653  0.4505  0.2539 -0.1418
11676WAT     H147410   3.598   8.024   1.717 -0.1935  0.1253  0.4697
11676WAT     H247411   3.535   8.080   1.609  0.8036  0.3788  0.0139
11676WAT    EPW47412   3.549   8.019   1.656 -0.1118  0.5008  0.1096
11677WAT      O47413   4.280   0.530   2.983  0.2873  0.1008 -0.0132
11677WAT     H147414   4.238   0.556   2.911  1.3715  0.7607 -0.4508
11677WAT     H247415   4.304   0.605   3.021  0.5647 -0.2442  0.5084
11677WAT    EPW47416   4.278   0.545   2.978 -0.2528  0.7050 -0.7532
11678WAT      O47417   2.105   7.725   2.492  0.2401  0.5429  0.2956
11678WAT     H147418   2.032   7.740   2.537  0.1256 -0.5343  0.4962
11678WAT     H247419   2.152   7.797   2.506 -0.5520  1.0192  0.6165
11678WAT    EPW47420   2.101   7.737   2.501  0.1241  0.3050  0.0989
11679WAT      O47421   3.810   3.884   2.358  0.4691 -0.1448  1.1509
11679WAT     H147422   3.831   3.820   2.413 -0.2853  0.0236  1.6390
11679WAT     H247423   3.767   3.941   2.408  0.5538  0.4318  0.5778
11679WAT    EPW47424   3.807   3.883   2.374  0.1900  0.3928  0.1535
11680WAT      O47425   2.016   1.079   5.725  0.2416 -0.6068  0.0702
11680WAT     H147426   1.981   1.079   5.645 -0.9647 -2.0556  0.5567
11680WAT     H247427   1.997   1.158   5.756  0.0105 -0.3271 -0.7543
11680WAT    EPW47428   2.008   1.090   5.718 -0.3882  0.0574  0.8039
11681WAT      O47429   0.820   0.065   2.052  0.3157 -0.1724  0.7392
11681WAT     H147430   0.886   0.122   2.050 -0.4443  0.8050  2.0124
11681WAT     H247431   0.851  -0.003   2.007  1.1843  1.2768 -1.0101
11681WAT    EPW47432   0.835   0.063   2.045  0.5129  0.4520 -0.0140
11682WAT      O47433   3.746   1.372   7.498 -0.2327 -0.1202 -0.3893
11682WAT     H147434   3.826   1.341   7.481 -0.2092  0.2287 -0.9387
11682WAT     H247435   3.723   1.411   7.423 -0.2777  1.1500  0.2520
11682WAT    EPW47436   3.755   1.373   7.484  0.4861 -0.3999  0.0309
11683WAT      O47437   5.434   0.428   1.104  0.0215 -0.5608  0.0822
11683WAT     H147438   5.493   0.381   1.059 -1.8137 -1.8044 -1.1521
11683WAT     H247439   5.458   0.418   1.187  0.4483 -2.6364 -0.2552
11683WAT    EPW47440   5.447   0.420   1.110  0.0860 -0.4672  0.1789
11684WAT      O47441   5.194   7.700   2.878 -0.4251  0.3796  0.4246
11684WAT     H147442   5.225   7.646   2.817  0.2149  0.2810  0.8219
11684WAT     H247443   5.162   7.767   2.833  0.8605  0.7401 -0.0001
11684WAT    EPW47444   5.194   7.702   2.862 -0.1373  0.8350  0.1558
11685WAT      O47445   1.559   1.924   1.231  0.9556 -0.1230 -0.0734
11685WAT     H147446   1.523   1.989   1.185  1.2552  0.5492  0.6204
11685WAT     H247447   1.600   1.965   1.297  2.2656 -0.9114 -0.3522
11685WAT    EPW47448   1.560   1.940   1.234 -0.0641  0.0729  0.3295
11686WAT      O47449   1.801   1.979   2.002  0.6629 -1.1318  0.3756
11686WAT     H147450   1.724   1.939   1.999 -0.9200  1.7114 -0.8843
11686WAT     H247451   1.785   2.053   2.046  1.4553  1.5734 -3.3554
11686WAT    EPW47452   1.787   1.984   2.008 -0.5981 -0.0316  0.5452
11687WAT      O47453   1.312   1.707   2.969 -0.0149  0.8783  0.0875
11687WAT     H147454   1.351   1.629   2.962  0.2310  1.1091 -1.6581
11687WAT     H247455   1.306   1.719   3.055  0.0826 -0.9907  0.4110
11687WAT    EPW47456   1.317   1.697   2.981  0.4393 -0.0126 -0.2081
11688WAT      O47457   3.671   3.005   1.312 -0.2158 -0.5373  0.1457
11688WAT     H147458   3.590   3.028   1.334  0.1059  0.0762  0.7199
11688WAT     H247459   3.721   3.046   1.371  0.5638 -0.1695 -0.7434
11688WAT    EPW47460   3.666   3.014   1.324  0.1002  0.2662 -0.3954
11689WAT      O47461   4.942   3.472   6.147  0.0671 -0.8085 -0.0434
11689WAT     H147462   4.863   3.437   6.142 -0.5244  0.4105  0.2808
11689WAT     H247463   4.926   3.557   6.161  1.4107 -0.8318  2.1840
11689WAT    EPW47464   4.928   3.479   6.148 -0.0617 -0.0553  0.6865
11690WAT      O47465   3.457   2.988   6.239  0.7896 -0.4603 -0.1497
11690WAT     H147466   3.464   3.059   6.290  0.3547 -1.2773  1.0885
11690WAT     H247467   3.526   2.940   6.260 -0.1790 -1.4908  0.8232
11690WAT    EPW47468   3.468   2.992   6.250  0.4158  0.3246  0.5626
11691WAT      O47469   4.672   0.605   4.998 -0.0290 -0.0177 -0.1865
11691WAT     H147470   4.594   0.640   4.985  0.5209  2.1514  1.6369
11691WAT     H247471   4.714   0.618   4.922 -0.9949  0.0281 -0.7204
11691WAT    EPW47472   4.667   0.612   4.985 -0.0761 -0.1462 -0.6354
11692WAT      O47473   2.580   1.102   5.012 -0.0438  0.3183  0.6977
11692WAT     H147474   2.508   1.080   5.055 -0.5085  1.2912  0.4632
11692WAT     H247475   2.644   1.059   5.053 -0.5467  0.7529  1.9799
11692WAT    EPW47476   2.579   1.093   5.024  0.4285  0.2567  0.0561
11693WAT      O47477   4.626   1.107   2.724 -0.1584 -0.7762 -0.2973
11693WAT     H147478   4.589   1.032   2.751 -2.6991  0.7452  0.8022
11693WAT     H247479   4.669   1.135   2.795 -0.1160 -0.6762 -0.3637
11693WAT    EPW47480   4.627   1.100   2.739 -0.2564  0.2229  0.1599
11694WAT      O47481   5.709   3.134   1.160  0.0900 -0.5939 -0.1625
11694WAT     H147482   5.623   3.116   1.163  0.0115 -0.1252  2.3743
11694WAT     H247483   5.711   3.216   1.130 -0.2735 -0.8833 -1.0175
11694WAT    EPW47484   5.696   3.144   1.156  0.0024  0.3594 -0.1828
11695WAT      O47485   2.173   6.696   6.884 -0.2067 -0.5823 -0.0442
11695WAT     H147486   2.256   6.722   6.877 -0.5866  0.9958  0.8070
11695WAT     H247487   2.147   6.733   6.958 -2.2356  0.6939 -1.2882
11695WAT    EPW47488   2.182   6.706   6.894 -0.5813 -0.5501  0.0674
11696WAT      O47489   3.155   1.798   1.818 -0.3526  0.9769  0.1243
11696WAT     H147490   3.081   1.752   1.818  1.5839 -2.4433 -0.7855
11696WAT     H247491   3.172   1.808   1.903 -2.3441  2.9109  0.3896
11696WAT    EPW47492   3.146   1.793   1.831 -0.3230  1.4004 -0.2353
11697WAT      O47493   3.649   5.766   7.329 -0.8558 -0.1380  0.5165
11697WAT     H147494   3.613   5.825   7.382  1.3431  0.9028  0.9352
11697WAT     H247495   3.659   5.810   7.254  1.7733  0.4599  1.1404
11697WAT    EPW47496   3.645   5.781   7.326 -0.1785 -0.0857 -0.5357
11698WAT      O47497   1.012   6.153   2.254 -0.0679 -0.1249 -0.1630
11698WAT     H147498   1.052   6.208   2.309 -3.0305  1.0701  1.0331
11698WAT     H247499   1.006   6.198   2.180  0.5807 -0.2292 -0.2830
11698WAT    EPW47500   1.017   6.168   2.251 -0.1144  0.0131 -0.3041
11699WAT      O47501   2.048   7.725   4.055 -0.1824  0.0224 -0.4307
11699WAT     H147502   2.077   7.652   4.094 -0.3651 -0.4912 -1.2211
11699WAT     H247503   2.119   7.759   4.019  0.3642  1.5360  1.8855
11699WAT    EPW47504   2.063   7.719   4.055  0.1929 -0.2378 -0.2015
11700WAT      O47505   1.718   0.304   6.186 -0.6030 -0.0423  0.2219
11700WAT     H147506   1.771   0.312   6.255  0.3460  0.0992 -0.4897
11700WAT     H247507   1.681   0.382   6.179 -0.9170 -0.1442  0.7358
11700WAT    EPW47508   1.720   0.316   6.195 -0.3232  0.0400  0.2180
11701WAT      O47509   2.634   6.163   2.721 -0.3133 -0.2723 -0.2682
11701WAT     H147510   2.677   6.123   2.656 -1.0903 -0.9872 -0.3691
11701WAT     H247511   2.556   6.124   2.720 -0.3764 -0.2154  1.0335
11701WAT    EPW47512   2.629   6.151   2.711  0.1864  0.5886  0.1540
11702WAT      O47513   2.933   7.830   7.169 -0.2682  0.1945 -0.1687
11702WAT     H147514   3.002   7.778   7.154 -0.9629 -0.9309  0.4555
11702WAT     H247515   2.889   7.826   7.093  0.0853  0.5231 -0.3973
11702WAT    EPW47516   2.937   7.822   7.155  0.3429 -0.4336 -0.1626
11703WAT      O47517   3.849   7.283   0.375  0.3244 -0.2674 -0.1850
11703WAT     H147518   3.833   7.360   0.412  0.0711 -0.3810 -0.0494
11703WAT     H247519   3.876   7.303   0.295  1.2589 -0.0046  0.1883
11703WAT    EPW47520   3.850   7.297   0.369  0.3582  0.5080 -0.5409
11704WAT      O47521   2.488   0.123   5.101 -0.0346  0.0276  0.5533
11704WAT     H147522   2.572   0.134   5.125 -0.0690 -0.5493  0.9480
11704WAT     H247523   2.446   0.120   5.177 -0.1447 -1.8524  0.4493
11704WAT    EPW47524   2.494   0.125   5.115  0.6450  0.0139 -0.4138
11705WAT      O47525   2.254   7.215   5.967  0.9810  0.2208  0.1484
11705WAT     H147526   2.198   7.175   5.915  0.6797  0.6095  0.1700
11705WAT     H247527   2.226   7.194   6.047  0.7800  0.5221  0.1607
11705WAT    EPW47528   2.242   7.206   5.971  0.0837  0.0688 -0.5792
11706WAT      O47529   1.471   7.443   4.174  0.4133 -0.4101  0.4995
11706WAT     H147530   1.482   7.390   4.242  0.8192  1.3676  1.8817
11706WAT     H247531   1.438   7.515   4.209 -2.4000 -0.5131 -1.6457
11706WAT    EPW47532   1.468   7.446   4.189 -0.2634 -0.8808 -0.3917
11707WAT      O47533   4.115   6.269   4.635  0.2237 -0.1352  0.4616
11707WAT     H147534   4.046   6.301   4.679 -0.5273 -0.8097 -0.1973
11707WAT     H247535   4.082   6.200   4.593  1.0381  0.1815 -0.7442
11707WAT    EPW47536   4.100   6.264   4.635 -0.5409  0.7723 -0.5867
11708WAT      O47537   6.563   5.731   4.903  0.1937  0.2167  0.5252
11708WAT     H147538   6.564   5.798   4.847  0.3468  2.4575  2.9962
11708WAT     H247539   6.480   5.703   4.901  0.5252 -0.8163 -1.8411
11708WAT    EPW47540   6.551   5.737   4.895  0.7530 -0.3699  0.4375
11709WAT      O47541   3.492   0.078   4.022 -0.0857  0.5964 -0.3256
11709WAT     H147542   3.499   0.018   4.085 -1.6169  0.2687 -0.4191
11709WAT     H247543   3.467   0.150   4.065 -2.3925  0.0502 -0.6282
11709WAT    EPW47544   3.489   0.080   4.038  0.0779 -0.4618 -0.0837
11710WAT      O47545   3.473   7.724   7.147  0.4035 -0.0232 -0.0086
11710WAT     H147546   3.556   7.748   7.156  0.8117 -1.5845  0.6962
11710WAT     H247547   3.475   7.663   7.085  0.2154 -1.8751  1.7045
11710WAT    EPW47548   3.486   7.719   7.139  0.2899  0.7043 -0.7509
11711WAT      O47549   2.556   2.172   3.143 -0.1380 -0.5860  0.3678
11711WAT     H147550   2.575   2.097   3.183 -0.4796 -0.2892  1.1178
11711WAT     H247551   2.629   2.219   3.151 -0.2278 -0.5001  0.7314
11711WAT    EPW47552   2.569   2.168   3.150 -0.3150 -0.1258  0.4471
11712WAT      O47553   1.209   0.809   3.075 -0.1316  0.1741 -0.3279
11712WAT     H147554   1.237   0.810   3.158  1.5037  1.0093 -0.8577
11712WAT     H247555   1.166   0.885   3.068 -1.5164 -0.5246  0.1103
11712WAT    EPW47556   1.207   0.820   3.086 -0.0010 -0.1251  0.2344
11713WAT      O47557   2.511   7.024   4.715 -0.1269  0.0317  0.7553
11713WAT     H147558   2.572   7.025   4.653 -0.0530 -1.4942  0.7708
11713WAT     H247559   2.539   7.085   4.772  1.5544 -0.8307  0.9169
11713WAT    EPW47560   2.524   7.033   4.714 -0.2003 -0.2032  0.2387
11714WAT      O47561   2.591   1.078   4.391  0.1519  0.1041  0.1954
11714WAT     H147562   2.649   1.081   4.326 -0.4864 -1.7668 -0.5354
11714WAT     H247563   2.554   1.000   4.382 -1.9477  0.9119  1.1096
11714WAT    EPW47564   2.594   1.067   4.380  0.0505 -0.2808 -0.1519
11715WAT      O47565   2.013   7.679   7.594 -0.3592  0.2249 -0.0722
11715WAT     H147566   2.087   7.659   7.552 -0.8194  0.7525 -1.1845
11715WAT     H247567   1.968   7.724   7.535 -1.0820  0.9295  0.9792
11715WAT    EPW47568   2.018   7.683   7.579 -0.0712 -0.1977 -0.1584
11716WAT      O47569   7.511   1.516   2.827 -0.0152  0.1023  0.3180
11716WAT     H147570   7.478   1.493   2.749 -2.2125 -0.3757  1.2840
11716WAT     H247571   7.583   1.467   2.834 -0.5048 -0.8465 -0.8595
11716WAT    EPW47572   7.517   1.505   2.817 -0.0858  0.2136 -1.0470
11717WAT      O47573   5.961   2.330   4.992 -0.6305  0.0396  0.0246
11717WAT     H147574   5.875   2.341   4.981 -0.4277  2.3314  0.2622
11717WAT     H247575   5.996   2.392   4.942  0.8588 -0.1447  0.7742
11717WAT    EPW47576   5.954   2.341   4.983 -0.4465 -0.1829  0.0787
11718WAT      O47577   6.826   1.181   0.792  0.0613  0.6393  0.0003
11718WAT     H147578   6.902   1.142   0.775 -0.4363  0.1390 -1.1669
11718WAT     H247579   6.811   1.160   0.875  0.2912 -0.8472 -0.3023
11718WAT    EPW47580   6.835   1.172   0.802  0.2568 -0.1104 -0.5720
11719WAT      O47581   2.961   0.974   7.499 -0.5315 -0.7014 -0.5895
11719WAT     H147582   3.033   1.008   7.463  0.1213 -1.0406  0.3570
11719WAT     H247583   2.904   1.039   7.495 -0.0997 -0.3454 -1.1352
11719WAT    EPW47584   2.963   0.989   7.493 -0.2025  0.8531 -0.0752
11720WAT      O47585   3.569   7.005   3.384  0.0099 -0.1261  0.0598
11720WAT     H147586   3.622   6.977   3.447  2.0562 -3.1384 -2.6736
11720WAT     H247587   3.493   6.965   3.401 -0.0124  0.4588  1.4487
11720WAT    EPW47588   3.565   6.995   3.396 -0.3357 -0.2613 -0.7017
11721WAT      O47589   5.274   3.109   2.150 -0.0970 -0.0124  0.1455
11721WAT     H147590   5.295   3.059   2.082 -0.3463 -1.2382  0.9398
11721WAT     H247591   5.247   3.052   2.210  0.6854  0.9778  1.4867
11721WAT    EPW47592   5.273   3.093   2.149 -0.1064 -0.3413 -0.1629
11722WAT      O47593   1.663   2.067   1.427  0.0661  0.4910 -0.1809
11722WAT     H147594   1.746   2.094   1.434 -0.0937  1.8172 -2.2865
11722WAT     H247595   1.629   2.084   1.505  1.6717  0.2889  0.5954
11722WAT    EPW47596   1.670   2.074   1.440  0.3576  0.1051  0.2346
11723WAT      O47597   6.204   3.134   3.569  0.1192  0.1590  0.2367
11723WAT     H147598   6.233   3.095   3.496  1.1833 -2.8601  2.0787
11723WAT     H247599   6.278   3.161   3.607  0.0635 -1.9569  2.0168
11723WAT    EPW47600   6.219   3.132   3.564  0.3454 -0.6803  0.2810
11724WAT      O47601   2.267   7.930   5.590 -0.2150 -0.1649  0.5337
11724WAT     H147602   2.284   7.854   5.550 -1.1806  0.8071 -1.8948
11724WAT     H247603   2.280   7.989   5.528 -3.2281  1.3577  1.1902
11724WAT    EPW47604   2.271   7.927   5.575 -0.1470 -0.0956  0.4055
11725WAT      O47605   2.742   0.465   6.378 -0.0347  0.2000 -0.4563
11725WAT     H147606   2.777   0.401   6.425 -0.8770 -0.9414 -1.2900
11725WAT     H247607   2.795   0.471   6.308 -0.9048 -0.8673 -1.2500
11725WAT    EPW47608   2.755   0.456   6.374  0.2270 -0.7530  0.3227
11726WAT      O47609   0.478   7.938   4.124  0.4997  0.9691  0.0189
11726WAT     H147610   0.525   8.010   4.139  1.1169  0.6327 -0.2476
11726WAT     H247611   0.396   7.966   4.125  0.7214  1.6258  0.2043
11726WAT    EPW47612   0.473   7.953   4.126 -0.8751  0.1434 -0.7155
11727WAT      O47613   5.194   1.328   5.501  0.0523  0.0369 -0.0941
11727WAT     H147614   5.153   1.267   5.455 -2.3137 -1.3664  3.4156
11727WAT     H247615   5.140   1.396   5.497 -0.7548 -0.4676  1.3059
11727WAT    EPW47616   5.180   1.329   5.494  0.6065 -0.3919  0.1901
11728WAT      O47617   5.393   6.343   4.737  0.3093  0.0663  0.1094
11728WAT     H147618   5.358   6.319   4.661 -0.9849  1.2059  0.2988
11728WAT     H247619   5.471   6.375   4.713  0.3598 -0.5426 -0.5970
11728WAT    EPW47620   5.399   6.345   4.722 -0.0661 -0.3753 -0.5750
11729WAT      O47621   4.138   2.177   1.866  0.5476 -0.1177 -0.3224
11729WAT     H147622   4.065   2.214   1.899  1.4750  0.5376  1.1019
11729WAT     H247623   4.159   2.117   1.926  1.8196  0.5096 -0.1220
11729WAT    EPW47624   4.130   2.174   1.880 -0.5645  0.3839 -0.3049
11730WAT      O47625   3.822   7.893   7.735 -0.4159  0.3961 -0.5409
11730WAT     H147626   3.884   7.851   7.691  1.2795  3.1279 -0.9818
11730WAT     H247627   3.748   7.867   7.696  0.4604 -2.1703 -0.6650
11730WAT    EPW47628   3.820   7.883   7.723  0.1196 -0.2538  0.2230
11731WAT      O47629   4.432   1.289   5.998 -0.1490 -0.4551  0.0515
11731WAT     H147630   4.387   1.215   5.984  0.4914 -0.7715 -0.3891
11731WAT     H247631   4.422   1.302   6.084 -2.8952  0.7106 -0.3540
11731WAT    EPW47632   4.424   1.280   6.009  0.0708  0.6022 -0.4647
11732WAT      O47633   7.250   1.484   0.907  0.2423  0.1722 -0.1578
11732WAT     H147634   7.291   1.408   0.912 -0.6726 -0.3652 -0.5676
11732WAT     H247635   7.204   1.487   0.982  1.0796  0.8160  0.3480
11732WAT    EPW47636   7.249   1.474   0.919 -0.0187  0.4616  0.1335
11733WAT      O47637   4.524   0.490   0.275  0.0170 -0.4121  0.6948
11733WAT     H147638   4.545   0.574   0.273  1.8069 -0.6121 -4.4808
11733WAT     H247639   4.438   0.489   0.257  0.1085  0.3500  0.1915
11733WAT    EPW47640   4.514   0.502   0.272  0.8092  0.2484 -0.4212
11734WAT      O47641   3.859   0.774   5.712 -0.0681 -0.4164  0.1725
11734WAT     H147642   3.915   0.808   5.654 -0.1900 -1.4656 -0.5753
11734WAT     H247643   3.797   0.835   5.718 -0.0672 -0.3059 -0.8240
11734WAT    EPW47644   3.858   0.788   5.705 -0.4375  0.4484  0.1186
11735WAT      O47645   4.135   7.705   1.826  0.0026  1.4255  0.1524
11735WAT     H147646   4.151   7.733   1.745  2.4467 -2.2248 -0.8652
11735WAT     H247647   4.213   7.679   1.854 -1.1733  0.4283  2.8233
11735WAT    EPW47648   4.149   7.705   1.818 -0.1344  0.1107  0.1865
11736WAT      O47649   0.518   2.164   0.711 -0.0066  0.5951 -0.5589
11736WAT     H147650   0.581   2.141   0.767 -0.2541  1.5340  0.1378
11736WAT     H247651   0.524   2.104   0.647  0.1183 -0.6518  0.5829
11736WAT    EPW47652   0.528   2.152   0.710  0.1690  0.0668  0.6232
11737WAT      O47653   6.964   0.987   4.955  0.0378 -0.9574  0.2522
11737WAT     H147654   6.951   0.920   5.010  2.4658 -1.4528  0.3108
11737WAT     H247655   7.046   0.977   4.929  0.8913  2.6383  1.0677
11737WAT    EPW47656   6.974   0.975   4.959 -0.3010 -0.3911  0.5498
11738WAT      O47657   7.288   4.260   2.044 -0.2665  0.3183  0.2672
11738WAT     H147658   7.259   4.179   2.057 -1.1559  0.6889  0.6303
11738WAT     H247659   7.227   4.310   2.081  1.2256  1.1052  1.7496
11738WAT    EPW47660   7.275   4.255   2.051  0.0064  0.5816 -0.2122
11739WAT      O47661   4.701   5.043   1.096  0.1503  0.1810 -0.0424
11739WAT     H147662   4.719   4.992   1.028  1.0888  0.5587 -0.0929
11739WAT     H247663   4.672   5.117   1.059 -1.2722 -0.3113  0.0313
11739WAT    EPW47664   4.699   5.046   1.080 -0.9614  0.3344 -0.2622
11740WAT      O47665   2.965   7.078   4.661 -0.8438 -0.5143 -0.2804
11740WAT     H147666   2.962   7.136   4.725  0.8110  0.6862 -1.2146
11740WAT     H247667   3.004   7.009   4.698 -0.2971  0.0036  0.1286
11740WAT    EPW47668   2.971   7.076   4.676 -0.3551 -0.3165  0.0800
11741WAT      O47669   2.098   6.198   0.315 -0.2675  0.0105 -0.0432
11741WAT     H147670   2.084   6.159   0.391  0.3477  1.4610  0.8586
11741WAT     H247671   2.138   6.273   0.337 -0.9724  0.9378 -1.6998
11741WAT    EPW47672   2.102   6.203   0.329  0.4009 -0.1987  0.0883
11742WAT      O47673   1.848   7.505   5.006  0.2382 -0.3881  0.3840
11742WAT     H147674   1.888   7.435   4.973 -0.0725 -0.3310 -0.1242
11742WAT     H247675   1.775   7.474   5.040  0.7229 -0.4964  1.3435
11742WAT    EPW47676   1.843   7.490   5.006 -0.2361 -0.0087  0.1073
11743WAT      O47677   0.176   5.614   3.810  0.2121 -0.6145  0.5113
11743WAT     H147678   0.134   5.539   3.820 -0.1713 -0.6636 -1.2070
11743WAT     H247679   0.247   5.604   3.860  0.0049 -1.9804  0.5735
11743WAT    EPW47680   0.181   5.601   3.819  0.0005 -0.2386  1.0141
11744WAT      O47681   1.987   3.170   3.400 -0.2262  0.2654  0.3833
11744WAT     H147682   2.003   3.085   3.388  4.4744  1.0120 -0.5187
11744WAT     H247683   1.910   3.182   3.360 -1.3493 -3.5413  0.9900
11744WAT    EPW47684   1.978   3.159   3.392 -0.0972 -0.3204  0.6450
11745WAT      O47685   2.599   2.858   0.726  0.1260 -0.7268  0.5953
11745WAT     H147686   2.635   2.784   0.698 -0.9306 -0.9915 -0.1231
11745WAT     H247687   2.551   2.833   0.794 -0.6441 -0.8103  0.0372
11745WAT    EPW47688   2.597   2.844   0.732 -0.2087 -0.1062 -0.1032
11746WAT      O47689   4.557   7.668   2.304 -0.5407 -0.2630  0.0865
11746WAT     H147690   4.584   7.593   2.339 -2.2522 -1.0401 -0.1374
11746WAT     H247691   4.484   7.645   2.261 -0.6952  1.3988 -0.6171
11746WAT    EPW47692   4.550   7.653   2.303  0.6584 -0.2820  0.3479
11747WAT      O47693   3.338   3.490   0.314 -0.4689 -0.0110 -0.0718
11747WAT     H147694   3.288   3.437   0.267 -1.4514  0.0377  0.8974
11747WAT     H247695   3.338   3.454   0.393 -0.2232  0.8187  0.3182
11747WAT    EPW47696   3.331   3.477   0.318  0.1236  0.0772  0.5282
11748WAT      O47697   3.903   1.409   7.012 -0.2070 -0.0194  0.0951
11748WAT     H147698   3.952   1.378   6.947  1.3659  0.1636  1.1404
11748WAT     H247699   3.961   1.430   7.073 -1.4834  1.6491  0.8149
11748WAT    EPW47700   3.918   1.407   7.011  0.1590  0.4963  0.2920
11749WAT      O47701   4.549   7.420   5.077 -0.0647 -0.0964 -0.0520
11749WAT     H147702   4.572   7.486   5.128  0.9747 -0.4330 -0.0475
11749WAT     H247703   4.579   7.350   5.120 -1.5810 -0.6245  0.1873
11749WAT    EPW47704   4.557   7.419   5.091  0.0097  0.6242 -0.6805
11750WAT      O47705   5.337   0.443   6.133  0.3646  0.2688  0.2092
11750WAT     H147706   5.408   0.409   6.095 -0.6409 -0.5855 -1.0061
11750WAT     H247707   5.304   0.376   6.179  0.1162  0.5295  0.4160
11750WAT    EPW47708   5.342   0.428   6.134  0.0453 -0.9064  0.2132
11751WAT      O47709   1.631   4.725   0.509 -0.2411 -0.4238 -0.1292
11751WAT     H147710   1.709   4.710   0.473  0.2439  0.5768  0.4498
11751WAT     H247711   1.575   4.708   0.444  0.6115  1.8389 -1.6006
11751WAT    EPW47712   1.634   4.720   0.494 -0.6070  0.1897 -0.1250
11752WAT      O47713   5.230   0.653   5.558 -0.5722  0.2501 -0.3014
11752WAT     H147714   5.224   0.728   5.601  0.7255 -0.1067  0.5534
11752WAT     H247715   5.159   0.608   5.585 -0.7576  0.7353  0.0270
11752WAT    EPW47716   5.218   0.657   5.569  0.1588  0.5700  0.0242
11753WAT      O47717   2.133   5.893   3.986 -0.1376  0.5368 -0.2691
11753WAT     H147718   2.173   5.848   3.923 -1.0279  0.5091 -0.8347
11753WAT     H247719   2.061   5.845   4.002 -1.4325  2.0371 -1.3125
11753WAT    EPW47720   2.128   5.879   3.979  0.2998 -0.2656  0.8970
11754WAT      O47721   5.182   2.633   4.170  0.1048 -0.2771 -0.1835
11754WAT     H147722   5.112   2.679   4.195  0.2813 -0.4495  0.6594
11754WAT     H247723   5.223   2.687   4.115 -1.2625 -0.5971 -1.6270
11754WAT    EPW47724   5.178   2.648   4.165  0.2538  0.3069  0.2829
11755WAT      O47725   3.788   7.929   6.232  0.4283  0.2704  0.0865
11755WAT     H147726   3.725   7.945   6.174 -0.6794  1.7723  1.6015
11755WAT     H247727   3.841   7.997   6.224  0.0535  0.6941  1.0764
11755WAT    EPW47728   3.786   7.941   6.223  0.0357 -0.2257  0.2487
11756WAT      O47729   4.916   1.212   1.701 -0.1241  0.3321  0.3895
11756WAT     H147730   4.970   1.211   1.633  0.1149  0.2396  0.5787
11756WAT     H247731   4.843   1.250   1.670 -0.7869 -1.5493 -0.5025
11756WAT    EPW47732   4.913   1.217   1.687 -0.2304  0.6911  0.2771
11757WAT      O47733   1.069   5.179   7.944  0.0695  0.7917  0.3487
11757WAT     H147734   1.046   5.258   7.914 -0.4074  0.8830  0.9436
11757WAT     H247735   1.013   5.164   8.009  1.9182  1.2214  2.1649
11757WAT    EPW47736   1.058   5.189   7.949  0.1905  0.3271  0.3032
11758WAT      O47737   5.060   1.593   0.710  0.1063  0.0857  0.9044
11758WAT     H147738   4.977   1.620   0.712 -0.4721 -1.4431 -0.2499
11758WAT     H247739   5.053   1.506   0.700  1.8380 -0.5538  3.8776
11758WAT    EPW47740   5.046   1.584   0.709  0.5129  0.1854  0.3913
11759WAT      O47741   2.451   2.496   5.937 -0.1464  0.9773 -0.5143
11759WAT     H147742   2.493   2.461   6.004  0.3554  0.7165 -0.9571
11759WAT     H247743   2.390   2.436   5.918  0.9869  0.0754 -1.5500
11759WAT    EPW47744   2.448   2.482   5.944  0.1624  0.3412 -0.0147
11760WAT      O47745   2.789   7.779   6.923 -0.5612  0.5441  0.0294
11760WAT     H147746   2.804   7.842   6.864  1.1981  1.5941  1.5223
11760WAT     H247747   2.830   7.710   6.889  0.2268  1.0668 -0.1066
11760WAT    EPW47748   2.797   7.778   6.909 -0.5756 -0.2676  0.0909
11761WAT      O47749   0.325   8.000   2.050  0.1697 -0.2539 -0.1232
11761WAT     H147750   0.374   8.023   2.119 -0.7802  0.2819  0.3874
11761WAT     H247751   0.254   8.049   2.058  0.3444  0.3318 -1.8902
11761WAT    EPW47752   0.322   8.010   2.062 -0.0566 -0.1119 -0.7735
11762WAT      O47753   2.661   5.099   0.761 -0.1933  0.1938 -0.0887
11762WAT     H147754   2.609   5.057   0.817 -0.6012 -0.7402 -1.1158
11762WAT     H247755   2.740   5.088   0.795 -0.4478 -0.2415  0.3813
11762WAT    EPW47756   2.665   5.091   0.775  0.0362  0.1676  0.8687
11763WAT      O47757   1.868   1.446   4.083 -0.5483 -0.5533 -0.2259
11763WAT     H147758   1.903   1.380   4.038 -1.0077 -2.1955  1.6543
11763WAT     H247759   1.926   1.511   4.072  0.1714 -1.3986 -1.7514
11763WAT    EPW47760   1.882   1.446   4.075 -0.4296  0.0321 -0.3470
11764WAT      O47761   4.211   5.621   4.820 -0.3251 -0.1144 -0.4261
11764WAT     H147762   4.137   5.604   4.863 -0.6597  0.3270 -0.8262
11764WAT     H247763   4.201   5.580   4.744  0.1617 -0.6782 -0.1994
11764WAT    EPW47764   4.199   5.613   4.815  0.3003  0.9100  0.4165
11765WAT      O47765   1.698   7.513   2.578  0.6143 -0.5251  0.0504
11765WAT     H147766   1.684   7.599   2.577  1.2464 -0.4144  0.2668
11765WAT     H247767   1.727   7.498   2.659 -1.5111 -1.2901  0.7530
11765WAT    EPW47768   1.700   7.524   2.590  0.5305 -0.0066  0.0297
11766WAT      O47769   2.119   3.087   3.808  0.1776 -0.6322  0.3811
11766WAT     H147770   2.164   3.162   3.803 -0.1356 -0.4430  0.3882
11766WAT     H247771   2.048   3.102   3.760 -0.0509 -0.8051  0.6588
11766WAT    EPW47772   2.115   3.100   3.800 -0.0396  0.4065  0.2169
11767WAT      O47773   1.459   5.790   2.455  0.5919  0.2222  0.2328
11767WAT     H147774   1.410   5.719   2.441  0.8704 -0.1980  1.3342
11767WAT     H247775   1.539   5.758   2.465  0.8893  0.7951 -0.2780
11767WAT    EPW47776   1.464   5.775   2.454  0.2340  0.0289  0.5915
11768WAT      O47777   5.558   0.591   7.908  0.3257 -0.4896  0.3861
11768WAT     H147778   5.574   0.672   7.881 -3.5620 -0.3444 -2.3823
11768WAT     H247779   5.538   0.601   7.993 -0.9034  1.6711 -0.0735
11768WAT    EPW47780   5.557   0.604   7.917  0.9046 -0.4524  0.3809
11769WAT      O47781   2.578   0.276   3.438  0.0050 -0.2729 -0.2303
11769WAT     H147782   2.565   0.191   3.426 -2.2321  0.1662 -1.6577
11769WAT     H247783   2.596   0.283   3.523 -2.7784 -1.9465  0.6516
11769WAT    EPW47784   2.578   0.265   3.449 -0.1789  0.3676  0.0959
11770WAT      O47785   1.339   4.353   7.517  0.1129 -0.2910 -0.2764
11770WAT     H147786   1.379   4.359   7.594  0.9514 -1.8922 -0.5319
11770WAT     H247787   1.263   4.394   7.530  1.3199  1.7932  0.5742
11770WAT    EPW47788   1.334   4.360   7.530  0.5827  0.3155 -0.3845
11771WAT      O47789   2.939   1.349   3.806  0.3179 -0.1099 -0.1420
11771WAT     H147790   2.986   1.422   3.800 -0.8675  0.8442  1.5422
11771WAT     H247791   2.904   1.341   3.727  0.4245  1.1638 -0.3409
11771WAT    EPW47792   2.941   1.359   3.793  0.5703 -0.0826  0.1412
11772WAT      O47793   1.816   6.541   6.262  0.2384 -0.2186 -0.0312
11772WAT     H147794   1.735   6.564   6.240 -0.0703 -1.1917  0.0276
11772WAT     H247795   1.864   6.611   6.243 -0.4124 -0.1048 -1.3437
11772WAT    EPW47796   1.811   6.555   6.256 -0.0448 -0.4284  0.1156
11773WAT      O47797   3.300   7.244   7.589 -0.1319  0.4365 -0.3546
11773WAT     H147798   3.344   7.187   7.541 -0.1908  0.7458 -0.7825
11773WAT     H247799   3.342   7.319   7.576 -1.1441  0.8802 -1.2932
11773WAT    EPW47800   3.313   7.247   7.580  0.1662 -0.1062 -0.3692
11774WAT      O47801   7.376   0.098   1.926  0.3322 -0.2383  0.0397
11774WAT     H147802   7.307   0.049   1.947 -0.7253 -0.1672 -2.8502
11774WAT     H247803   7.342   0.166   1.884  2.1182  0.0732 -1.0186
11774WAT    EPW47804   7.361   0.101   1.923  0.4817 -0.0651  0.4730
11775WAT      O47805   4.699   3.512   0.089  0.8073 -0.2357 -0.4965
11775WAT     H147806   4.774   3.529   0.129  0.3056  1.0299 -0.0220
11775WAT     H247807   4.642   3.506   0.155  0.5976 -1.9900 -0.7830
11775WAT    EPW47808   4.701   3.514   0.105  0.1532 -0.6249  0.3287
11776WAT      O47809   3.639   6.837   5.311 -0.3019 -0.4366  0.1796
11776WAT     H147810   3.713   6.811   5.273 -1.3424  0.0170 -2.3383
11776WAT     H247811   3.596   6.876   5.246 -3.5559 -2.2903  1.0432
11776WAT    EPW47812   3.644   6.839   5.296  0.2279 -0.4296 -0.0641
11777WAT      O47813   0.542   4.434   4.309  0.2374 -0.3256  0.2557
11777WAT     H147814   0.492   4.397   4.248  0.0747 -0.1559  0.2849
11777WAT     H247815   0.499   4.507   4.329  1.0565  0.3935 -0.5231
11777WAT    EPW47816   0.528   4.439   4.303  0.2476 -0.0146  0.5338
11778WAT      O47817   2.140   0.352   3.961 -0.1530 -0.2804 -0.3586
11778WAT     H147818   2.136   0.439   3.960  1.7927 -0.0418  2.2530
11778WAT     H247819   2.064   0.328   3.996 -0.6807  0.3397 -1.0465
11778WAT    EPW47820   2.128   0.361   3.966 -0.6321  0.0349 -0.3962
11779WAT      O47821   2.200   1.932   0.124  0.0851  0.1378  0.0250
11779WAT     H147822   2.187   1.870   0.184  0.8228 -0.8675 -0.8090
11779WAT     H247823   2.195   2.006   0.169  2.6334 -0.6244  1.7424
11779WAT    EPW47824   2.197   1.934   0.139  0.3690 -0.0072 -0.3344
11780WAT      O47825   4.283   6.148   1.957  0.6850 -0.3233 -0.6306
11780WAT     H147826   4.328   6.221   1.940  1.8263 -1.0285 -0.7071
11780WAT     H247827   4.343   6.085   1.954 -0.1362 -1.1872  0.2229
11780WAT    EPW47828   4.299   6.150   1.954  0.6596 -0.8372  0.3025
11781WAT      O47829   6.074   4.234   6.695 -0.1525  0.4905 -0.1744
11781WAT     H147830   6.105   4.153   6.689  0.7076  0.6712  1.5108
11781WAT     H247831   6.000   4.231   6.648  0.6591 -0.8203 -1.4589
11781WAT    EPW47832   6.068   4.222   6.687 -0.5428  0.4981 -0.3064
11782WAT      O47833   1.783   1.603   6.802  0.0187  0.1118 -0.1553
11782WAT     H147834   1.818   1.682   6.787  0.9892  0.4430  3.0954
11782WAT     H247835   1.706   1.622   6.838  0.0835 -0.4040  0.2687
11782WAT    EPW47836   1.777   1.617   6.805 -0.0611 -0.0298  0.1662
11783WAT      O47837   3.984   1.295   4.714 -0.1273 -0.1007 -0.1154
11783WAT     H147838   3.952   1.275   4.636  0.7316 -2.3477  0.0235
11783WAT     H247839   4.047   1.354   4.696 -0.6408  0.1999 -0.9757
11783WAT    EPW47840   3.989   1.301   4.700  0.1130 -0.1190  0.3283
11784WAT      O47841   4.685   7.178   3.178  0.4801  0.2331 -0.3676
11784WAT     H147842   4.765   7.214   3.183  0.4490  0.2211  0.3459
11784WAT     H247843   4.647   7.204   3.252 -0.4469  0.8714 -1.0532
11784WAT    EPW47844   4.691   7.187   3.190  0.5461 -0.1423 -0.2259
11785WAT      O47845   2.732   8.027   3.813 -0.6980  0.1673  0.2340
11785WAT     H147846   2.780   7.967   3.854 -0.2112  0.0943 -0.4293
11785WAT     H247847   2.696   8.072   3.878 -0.3259 -0.2541  0.7410
11785WAT    EPW47848   2.734   8.025   3.829 -0.1690 -0.1611  0.4054
11786WAT      O47849   0.997   4.924   4.743 -0.3311  0.4346 -0.4194
11786WAT     H147850   1.078   4.924   4.775 -1.6064  0.8359  3.2908
11786WAT     H247851   0.985   5.007   4.719  0.6235  0.1478 -2.0583
11786WAT    EPW47852   1.007   4.936   4.744  0.6704 -0.0936  0.2190
11787WAT      O47853   6.078   1.167   0.825  0.0816 -0.3718 -0.0178
11787WAT     H147854   6.021   1.216   0.779 -0.1433 -1.3832 -0.8537
11787WAT     H247855   6.029   1.133   0.888  0.0438 -0.2088  0.0407
11787WAT    EPW47856   6.062   1.169   0.827  0.3805  0.1905  0.2635
11788WAT      O47857   3.638   0.221   4.493  0.1312 -0.1290 -0.0959
11788WAT     H147858   3.655   0.234   4.409  1.2483  0.1352  0.1466
11788WAT     H247859   3.624   0.301   4.524 -1.1709 -0.2993 -0.1837
11788WAT    EPW47860   3.639   0.234   4.485  0.2369 -0.1825  0.3112
11789WAT      O47861   2.920   2.325   5.754  0.2032 -0.3090 -0.1089
11789WAT     H147862   2.939   2.248   5.717 -2.7336 -0.9275 -0.6252
11789WAT     H247863   2.921   2.381   5.686 -1.0472 -0.6208 -0.4114
11789WAT    EPW47864   2.923   2.322   5.738 -0.4745 -0.4479  0.1280
11790WAT      O47865   2.104   6.160   5.542 -0.0481  0.0143  0.3699
11790WAT     H147866   2.175   6.171   5.492 -0.2526 -0.0965  0.0606
11790WAT     H247867   2.102   6.074   5.556 -0.3252 -0.0283  0.0818
11790WAT    EPW47868   2.114   6.149   5.537  0.0005 -0.2448 -0.6201
11791WAT      O47869   3.468   0.944   6.189  0.2962 -0.1963 -0.4761
11791WAT     H147870   3.392   0.903   6.181  0.5760 -0.9706  0.5520
11791WAT     H247871   3.520   0.903   6.132  0.3166 -0.6329 -0.1469
11791WAT    EPW47872   3.465   0.932   6.179 -0.9729  0.2386  0.3846
11792WAT      O47873   5.454   0.519   5.183  0.7999 -0.3739 -0.1166
11792WAT     H147874   5.393   0.456   5.190  1.2964 -0.9396 -0.7535
11792WAT     H247875   5.509   0.502   5.248  0.9549 -0.6390 -0.3112
11792WAT    EPW47876   5.453   0.507   5.193  0.3699  0.4407 -0.4170
11793WAT      O47877   6.127   2.772   0.831 -0.2032 -0.4242  0.6819
11793WAT     H147878   6.132   2.685   0.821 -0.9345 -0.6284  1.8347
11793WAT     H247879   6.202   2.793   0.870 -0.4282 -0.6967  1.2756
11793WAT    EPW47880   6.138   2.762   0.836 -0.0679 -0.0098  0.0137
11794WAT      O47881   5.819   0.046   6.503  0.4462 -0.2273  0.3539
11794WAT     H147882   5.858   0.101   6.449  0.3181 -1.1183 -0.6906
11794WAT     H247883   5.757   0.095   6.542  1.6919  0.8545  1.0415
11794WAT    EPW47884   5.815   0.061   6.501  0.1095  0.2550  0.4396
11795WAT      O47885   2.417   1.174   3.479  0.4004  0.3623  0.1709
11795WAT     H147886   2.331   1.165   3.488  0.3451 -0.4692 -0.9550
11795WAT     H247887   2.429   1.260   3.482 -0.4731  0.4925  0.2435
11795WAT    EPW47888   2.406   1.185   3.481 -0.0658 -0.0869 -0.3941
11796WAT      O47889   6.354   4.356   4.345  0.2748  0.4357 -0.2468
11796WAT     H147890   6.391   4.279   4.327 -2.1939 -1.2766  1.3547
11796WAT     H247891   6.306   4.340   4.416 -2.1461  2.8287 -1.1663
11796WAT    EPW47892   6.352   4.342   4.353 -0.2963 -0.0686 -0.2711
11797WAT      O47893   3.083   3.296   5.824 -0.1646  0.1699  0.2997
11797WAT     H147894   3.154   3.314   5.871  1.5862 -1.1749 -1.6548
11797WAT     H247895   3.074   3.365   5.772  1.3029 -0.6935 -1.1836
11797WAT    EPW47896   3.092   3.308   5.823  0.1983  0.1385 -0.3788
11798WAT      O47897   3.379   7.952   5.858  0.2272  0.1830 -0.3671
11798WAT     H147898   3.373   7.899   5.789 -0.9159  1.3093 -1.1825
11798WAT     H247899   3.318   7.923   5.912  1.6361 -1.1815  0.5643
11798WAT    EPW47900   3.369   7.940   5.856  0.3570 -0.5524  0.5656
11799WAT      O47901   0.045   8.012   4.008  0.4114  0.0550 -0.1688
11799WAT     H147902  -0.015   8.076   4.015  1.8751  1.5872 -0.7487
11799WAT     H247903   0.031   7.981   3.928 -0.1639 -0.2299  0.0308
11799WAT    EPW47904   0.034   8.017   3.997 -0.0934  0.5208  0.8335
11800WAT      O47905   4.530   0.849   6.374 -0.0430 -0.4903 -0.2126
11800WAT     H147906   4.458   0.832   6.328  0.9363 -1.2562 -1.5269
11800WAT     H247907   4.583   0.887   6.317  0.0681  1.5808  1.1409
11800WAT    EPW47908   4.527   0.852   6.359 -0.1360 -0.0652  0.3683
11801WAT      O47909   4.462   0.105   2.755  0.3766 -0.1397 -0.5797
11801WAT     H147910   4.473   0.192   2.754  0.7881 -0.1918 -1.3394
11801WAT     H247911   4.536   0.075   2.720  0.5512 -0.8427  0.3526
11801WAT    EPW47912   4.474   0.113   2.750  0.2219 -0.6401  0.0583
11802WAT      O47913   4.922   7.846   6.178 -0.3947  0.4071 -0.2129
11802WAT     H147914   4.883   7.775   6.145 -1.8725  0.6397  0.9324
11802WAT     H247915   4.919   7.833   6.264  2.8035  0.1136 -0.0203
11802WAT    EPW47916   4.916   7.833   6.186  0.0781 -0.0790  0.1801
11803WAT      O47917   3.344   6.213   3.044  0.1219 -0.5291 -0.6543
11803WAT     H147918   3.428   6.216   3.068  0.3640  1.1037 -1.5193
11803WAT     H247919   3.301   6.206   3.120  0.8583  4.0104  0.5167
11803WAT    EPW47920   3.350   6.213   3.059 -0.1304 -0.5389 -0.2171
11804WAT      O47921   6.916   2.003   3.141  0.0637 -0.4376  0.2075
11804WAT     H147922   6.866   2.067   3.175 -1.6408 -1.6185  0.0579
11804WAT     H247923   6.894   1.933   3.188  1.4904 -1.0471  0.0060
11804WAT    EPW47924   6.905   2.002   3.153  0.1083 -0.0115 -0.5785
11805WAT      O47925   2.504   6.944   2.836 -0.0348  0.1074 -0.4183
11805WAT     H147926   2.452   6.888   2.879  1.0668 -0.6428 -0.0445
11805WAT     H247927   2.509   6.910   2.756 -0.4652  0.4308 -0.5910
11805WAT    EPW47928   2.497   6.930   2.830  0.7385 -0.6696 -0.6283
11806WAT      O47929   1.571   6.768   4.509 -0.0415  0.3494 -0.0340
11806WAT     H147930   1.487   6.784   4.528 -0.1533 -0.6167  0.3074
11806WAT     H247931   1.589   6.696   4.554  0.4422 -0.5418 -1.5830
11806WAT    EPW47932   1.561   6.760   4.519  0.4215  0.3929  0.1823
11807WAT      O47933   5.055   1.489   3.113 -0.1084 -0.0240 -0.2512
11807WAT     H147934   5.024   1.442   3.180 -0.7413 -1.0225 -1.2051
11807WAT     H247935   5.107   1.433   3.071 -0.6261  0.2091 -1.2305
11807WAT    EPW47936   5.058   1.474   3.117  0.6606  0.0472 -0.2927
11808WAT      O47937   1.588   2.239   5.172 -0.3362 -0.0314  0.4419
11808WAT     H147938   1.581   2.241   5.259 -0.1482  0.5336  0.4510
11808WAT     H247939   1.622   2.318   5.153  1.6363 -0.9037  0.0508
11808WAT    EPW47940   1.592   2.251   5.182 -0.5714 -0.4292 -0.2256
11809WAT      O47941   5.244   0.995   3.635  0.2482 -0.1455 -0.0760
11809WAT     H147942   5.186   1.052   3.604  0.3234  0.1590  0.3216
11809WAT     H247943   5.311   1.046   3.659  0.1571 -0.3615  0.6532
11809WAT    EPW47944   5.246   1.011   3.634 -0.2855 -0.8941 -0.0655
11810WAT      O47945   4.499   0.337   4.751  0.2060  0.5013 -0.6157
11810WAT     H147946   4.462   0.282   4.694 -1.6618  2.8111 -1.8255
11810WAT     H247947   4.436   0.351   4.809  1.1286  0.3759  0.4433
11810WAT    EPW47948   4.484   0.331   4.751  0.1950  0.3463 -0.1315
11811WAT      O47949   3.428   4.914   6.594  1.0671 -0.3722  0.5320
11811WAT     H147950   3.406   4.993   6.566  0.4385 -0.5644  0.4541
11811WAT     H247951   3.455   4.927   6.676  1.8681  0.0430  0.2135
11811WAT    EPW47952   3.429   4.927   6.602 -0.3959  0.4336 -0.3478
11812WAT      O47953   4.666   6.388   4.198 -0.4258 -0.2290  0.1798
11812WAT     H147954   4.632   6.447   4.144  0.2943 -0.3367 -0.3968
11812WAT     H247955   4.722   6.433   4.247 -1.2898 -0.0721  1.0651
11812WAT    EPW47956   4.669   6.403   4.197  0.3748 -0.1108  0.8293
11813WAT      O47957   4.126   5.748   4.224  0.0293 -0.4417 -0.0636
11813WAT     H147958   4.042   5.765   4.242  0.4547  1.3999  0.3155
11813WAT     H247959   4.162   5.735   4.302  0.0747 -1.5135 -0.2436
11813WAT    EPW47960   4.119   5.748   4.238  0.3087  0.1904 -0.7312
11814WAT      O47961   1.998   0.661   5.919 -0.5037  0.0013 -0.5667
11814WAT     H147962   2.061   0.708   5.881 -0.3526 -0.5008 -0.9603
11814WAT     H247963   1.927   0.710   5.912 -0.6376 -0.3869 -2.1796
11814WAT    EPW47964   1.997   0.675   5.913 -0.1196  0.0194  0.2681
11815WAT      O47965   3.978   0.082   6.184  0.2394  0.8259  0.3481
11815WAT     H147966   3.993   0.140   6.120 -0.5424  0.6913  0.0346
11815WAT     H247967   3.976   0.132   6.256 -0.1684  1.1513  0.1115
11815WAT    EPW47968   3.980   0.098   6.185  0.1180 -0.2578  0.5237
11816WAT      O47969   5.115   1.933   4.613  0.2352  0.2037  0.3197
11816WAT     H147970   5.118   1.963   4.531 -1.9361 -1.6858 -0.5684
11816WAT     H247971   5.129   1.848   4.604 -0.5783 -0.1311  1.8296
11816WAT    EPW47972   5.117   1.925   4.600 -0.5476 -0.2710 -0.1956
11817WAT      O47973   3.447   1.910   7.045  0.3856 -0.6468 -0.6376
11817WAT     H147974   3.428   1.995   7.039 -1.9035 -1.0628 -0.1140
11817WAT     H247975   3.436   1.880   6.964 -1.1377 -0.8325 -0.3918
11817WAT    EPW47976   3.443   1.918   7.032  0.6347 -0.0076 -0.0339
11818WAT      O47977   3.561   6.530   0.148 -0.6423  0.1406 -0.2634
11818WAT     H147978   3.547   6.464   0.203  2.3359  0.2481  0.7991
11818WAT     H247979   3.549   6.494   0.069  0.7304 -1.7069  0.2967
11818WAT    EPW47980   3.557   6.515   0.144 -0.0098  0.1809 -0.1519
11819WAT      O47981   5.817   2.331   0.317  0.5330 -0.0471  0.4072
11819WAT     H147982   5.871   2.326   0.248 -0.4506  0.1990 -0.4161
11819WAT     H247983   5.786   2.412   0.312  0.1132 -0.1766  0.8961
11819WAT    EPW47984   5.821   2.342   0.306  0.2096 -0.1320  0.4992
11820WAT      O47985   4.619   6.863   4.121 -0.0754  0.6898  0.3412
11820WAT     H147986   4.593   6.780   4.113  1.4304  0.0605  1.5041
11820WAT     H247987   4.575   6.905   4.059 -0.8022 -0.9970 -0.3220
11820WAT    EPW47988   4.608   6.857   4.111 -0.0114  0.2091 -0.0445
11821WAT      O47989   6.958   0.143   2.826  0.0423 -0.0465  0.1310
11821WAT     H147990   6.938   0.184   2.752 -0.9393  0.3216  0.5799
11821WAT     H247991   7.034   0.178   2.850  0.6679 -0.5799 -0.9825
11821WAT    EPW47992   6.966   0.154   2.819  0.2335  0.1940 -0.1160
11822WAT      O47993   5.898   4.695   6.520 -0.4198 -0.1903 -0.1065
11822WAT     H147994   5.978   4.682   6.553 -0.2131  0.5255 -0.3011
11822WAT     H247995   5.908   4.674   6.436 -1.1637 -2.8807  0.3843
11822WAT    EPW47996   5.911   4.690   6.512 -0.0937 -0.1628 -1.0896
11823WAT      O47997   7.293   7.336   3.091  0.8696  0.2066 -0.3921
11823WAT     H147998   7.352   7.327   3.155  3.5388  0.5264 -2.6359
11823WAT     H247999   7.299   7.420   3.069 -0.4910  0.2505 -0.7158
11823WAT    EPW48000   7.303   7.347   3.097 -0.6083 -0.0512 -0.4290
11824WAT      O48001   3.238   0.065   2.728  0.1483  0.4525 -0.0310
11824WAT     H148002   3.234   0.149   2.702 -0.4664  0.3874 -0.1709
11824WAT     H248003   3.322   0.045   2.720  0.2166  0.8982 -0.5091
11824WAT    EPW48004   3.250   0.075   2.723  0.1153 -0.0514 -0.3711
11825WAT      O48005   0.026   0.573   2.570  0.6476  0.1883  0.8267
11825WAT     H148006   0.083   0.519   2.606  2.3425  1.6222  0.4601
11825WAT     H248007   0.070   0.608   2.503 -0.5810  1.4882  0.6338
11825WAT    EPW48008   0.041   0.570   2.566  0.6708  0.4169 -0.0610
11826WAT      O48009   4.273   0.266   1.982 -0.1138  0.5724  0.2485
11826WAT     H148010   4.314   0.219   2.043 -0.2791 -0.5004 -0.4473
11826WAT     H248011   4.189   0.246   1.993 -0.0446 -0.5249 -1.0459
11826WAT    EPW48012   4.267   0.256   1.993  0.9286  0.0571 -0.5670
11827WAT      O48013   2.585   2.491   3.346  0.0120  0.1558  0.5328
11827WAT     H148014   2.519   2.508   3.291 -1.2073 -0.2088  1.8349
11827WAT     H248015   2.595   2.566   3.390  1.3890  0.6445 -0.5323
11827WAT    EPW48016   2.577   2.505   3.344 -0.2837  0.3296  0.7075
11828WAT      O48017   0.906   6.147   1.946 -0.0929  0.1319 -0.6703
11828WAT     H148018   0.976   6.177   1.903 -0.7089  1.8438 -0.5738
11828WAT     H248019   0.850   6.126   1.883  0.1666 -0.3631 -0.7365
11828WAT    EPW48020   0.908   6.148   1.931  0.0184  0.3388  0.4704
11829WAT      O48021   2.561   1.034   0.308 -0.3933 -0.0648  0.4285
11829WAT     H148022   2.561   0.968   0.251  0.7889  0.5053 -0.2647
11829WAT     H248023   2.641   1.067   0.302 -0.8636  1.2625  0.9627
11829WAT    EPW48024   2.573   1.029   0.298 -0.3071 -0.0384  0.4731
11830WAT      O48025   4.172   1.077   5.342 -0.1687 -0.0567  0.5797
11830WAT     H148026   4.249   1.049   5.374  0.3855  0.8559  0.1090
11830WAT     H248027   4.195   1.117   5.267 -1.0262  0.7405  0.7216
11830WAT    EPW48028   4.187   1.079   5.335  0.1648  0.3720 -0.2201
11831WAT      O48029   6.094   5.290   0.979 -0.1898 -0.4760  0.2142
11831WAT     H148030   6.139   5.338   0.922  0.4186 -0.3966  0.7465
11831WAT     H248031   6.041   5.243   0.928 -0.3804  0.3261 -0.3475
11831WAT    EPW48032   6.093   5.290   0.963 -0.6501 -0.3706 -0.6033
11832WAT      O48033   3.317   2.197   3.644 -0.4458 -0.5871  0.2743
11832WAT     H148034   3.375   2.242   3.596  1.1000 -0.5674  2.0568
11832WAT     H248035   3.300   2.251   3.710 -0.4158 -1.6697  1.1827
11832WAT    EPW48036   3.323   2.212   3.646  0.1358 -0.3994 -0.2935
11833WAT      O48037   6.813   1.088   4.659  0.3058  0.1430  0.0214
11833WAT     H148038   6.798   1.136   4.731  0.8113  1.1810 -0.5441
11833WAT     H248039   6.758   1.123   4.601  1.2437  0.5681 -0.6201
11833WAT    EPW48040   6.802   1.100   4.661  0.1144 -0.7600  0.2162
11834WAT      O48041   3.781   1.934   4.680 -0.2723 -0.3018 -0.5602
11834WAT     H148042   3.735   1.956   4.609 -0.8595 -0.7714 -0.3344
11834WAT     H248043   3.859   1.912   4.648 -0.2749  0.2727 -0.9770
11834WAT    EPW48044   3.786   1.934   4.665 -0.0929 -0.4152  0.6300
11835WAT      O48045   8.008   3.734   3.556  0.2380 -0.4541 -0.4565
11835WAT     H148046   7.942   3.784   3.584 -0.0167 -0.2228 -1.4195
11835WAT     H248047   8.006   3.665   3.609  1.8904  1.4151  2.2958
11835WAT    EPW48048   7.998   3.732   3.568  0.2769  0.0214 -0.2878
11836WAT      O48049   0.082   0.767   4.656  0.2093 -0.4795  0.1452
11836WAT     H148050   0.053   0.814   4.587 -0.3406  0.8628  1.2360
11836WAT     H248051   0.041   0.804   4.724  0.0280 -2.3694  1.1164
11836WAT    EPW48052   0.072   0.780   4.656 -0.7713 -0.6440  0.0995
11837WAT      O48053   0.653   7.260   4.115 -0.4347 -0.7059 -0.2011
11837WAT     H148054   0.622   7.179   4.127 -1.0966 -0.2282  1.6446
11837WAT     H248055   0.692   7.255   4.037 -0.4969 -2.7827 -0.1669
11837WAT    EPW48056   0.654   7.247   4.105 -0.4808 -0.4151 -0.4992
11838WAT      O48057   4.232   1.574   1.339  0.3874  0.1391 -0.1086
11838WAT     H148058   4.212   1.588   1.256 -0.6303  1.2251  0.2903
11838WAT     H248059   4.319   1.576   1.341  0.4269 -0.2323 -1.1874
11838WAT    EPW48060   4.242   1.576   1.327  0.3399  0.1477  0.0971
11839WAT      O48061   5.723   1.346   5.327  0.4150 -0.4746 -0.5245
11839WAT     H148062   5.644   1.383   5.326  0.4975 -0.2935 -0.4063
11839WAT     H248063   5.706   1.260   5.332  0.2275 -0.4311 -0.4201
11839WAT    EPW48064   5.709   1.338   5.328 -0.5071  0.2140 -0.3851
11840WAT      O48065   1.180   7.700   2.041 -0.2505 -0.3313  0.3157
11840WAT     H148066   1.189   7.740   1.964  1.5827 -1.2325  0.0341
11840WAT     H248067   1.221   7.753   2.097 -0.6028 -0.2441  0.4989
11840WAT    EPW48068   1.187   7.714   2.038  0.3362 -0.3362  0.2421
11841WAT      O48069   6.052   7.338   7.331 -0.4728 -0.0427 -0.1598
11841WAT     H148070   6.033   7.266   7.285 -2.3019 -1.0425  1.9326
11841WAT     H248071   6.137   7.350   7.317 -0.9081 -0.1601 -3.7990
11841WAT    EPW48072   6.062   7.329   7.322 -0.0067 -0.0133 -0.4499
11842WAT      O48073   5.648   2.647   0.654  0.4995 -0.0548  0.2925
11842WAT     H148074   5.708   2.592   0.687  0.0221 -1.2914 -0.8012
11842WAT     H248075   5.696   2.699   0.603  0.7756 -0.4889  0.0907
11842WAT    EPW48076   5.664   2.646   0.651 -0.0475 -0.2490  0.1724
11843WAT      O48077   4.365   7.022   7.387 -0.4138 -0.1254  0.8772
11843WAT     H148078   4.278   7.015   7.395 -0.5967  1.1612  0.2673
11843WAT     H248079   4.378   7.107   7.376  0.9129 -0.3258  0.6942
11843WAT    EPW48080   4.354   7.033   7.387 -0.3928 -0.5430 -0.1130
11844WAT      O48081   1.054   2.646   4.845 -0.4715  0.0978  0.2534
11844WAT     H148082   1.105   2.664   4.913  0.0056  0.9007 -0.3039
11844WAT     H248083   1.055   2.719   4.798 -0.8320 -0.4233 -0.5971
11844WAT    EPW48084   1.062   2.659   4.848  0.0534  0.1755 -0.0697
11845WAT      O48085   2.803   4.520   2.543  0.5584  0.5003 -0.0809
11845WAT     H148086   2.779   4.437   2.550  0.2809  0.5830 -0.0412
11845WAT     H248087   2.859   4.520   2.476 -0.0168  0.4027 -0.5670
11845WAT    EPW48088   2.808   4.508   2.534 -0.0434 -0.1937  0.3357
11846WAT      O48089   4.107   0.812   1.112 -0.6702  0.1162  0.4073
11846WAT     H148090   4.118   0.792   1.196 -1.7735 -0.1973  0.4921
11846WAT     H248091   4.039   0.763   1.088  0.9423 -1.5213 -1.2825
11846WAT    EPW48092   4.099   0.801   1.121  0.3920 -0.0697  0.2272
11847WAT      O48093   2.046   0.105   3.394 -0.2248  0.5485  0.1646
11847WAT     H148094   2.111   0.090   3.338 -0.1132 -0.3234  0.5083
11847WAT     H248095   1.984   0.141   3.344 -0.5845 -1.2997 -0.7883
11847WAT    EPW48096   2.046   0.108   3.378 -0.6321  0.2746 -0.3159
11848WAT      O48097   2.497   3.645   3.712  0.2091  0.1175 -0.5945
11848WAT     H148098   2.578   3.619   3.731 -0.2663 -1.6715 -0.7951
11848WAT     H248099   2.479   3.705   3.773  0.7625 -1.3661  1.1324
11848WAT    EPW48100   2.506   3.650   3.724  0.0563  0.4854  0.4936
11849WAT      O48101   5.481   7.225   5.463 -0.1962  0.0609  0.2732
11849WAT     H148102   5.534   7.214   5.531 -2.0861  0.4540  1.8663
11849WAT     H248103   5.447   7.145   5.451  1.0242 -0.3187 -1.0780
11849WAT    EPW48104   5.484   7.211   5.471  0.1632 -0.2379  0.3713
11850WAT      O48105   3.003   7.632   4.502  0.0231  0.1189  0.6743
11850WAT     H148106   3.077   7.588   4.496 -0.1722  0.0145 -2.0818
11850WAT     H248107   3.029   7.716   4.502  0.1696  0.0751  0.2355
11850WAT    EPW48108   3.018   7.638   4.501  0.2136  0.1070  0.3288
11851WAT      O48109   5.778   8.002   2.389 -0.1009 -0.5334  0.1896
11851WAT     H148110   5.783   8.087   2.373 -2.8105 -0.6433 -1.9346
11851WAT     H248111   5.753   7.998   2.472 -2.1177  0.9330 -0.2593
11851WAT    EPW48112   5.775   8.014   2.399  0.0327  0.5454  0.8554
11852WAT      O48113   0.295   1.323   1.259  0.8103  0.2907 -0.1835
11852WAT     H148114   0.283   1.408   1.278 -0.3999  0.0760  0.0701
11852WAT     H248115   0.342   1.326   1.185  0.2888  1.1980 -0.4990
11852WAT    EPW48116   0.300   1.336   1.251 -0.2462  0.0055  0.0534
11853WAT      O48117   2.011   4.189   5.702  0.0314 -0.6653  0.0611
11853WAT     H148118   1.997   4.110   5.739  1.3050 -0.6688  0.5936
11853WAT     H248119   2.095   4.185   5.678 -0.1141  0.2583 -0.6083
11853WAT    EPW48120   2.021   4.177   5.704  0.3788 -0.0560  0.6422
11854WAT      O48121   3.601   5.033   2.403  0.0498 -0.2679  0.0175
11854WAT     H148122   3.529   4.993   2.434  0.0923 -0.1856  0.2252
11854WAT     H248123   3.659   5.023   2.468 -0.1792  0.8169  0.4146
11854WAT    EPW48124   3.599   5.026   2.417 -0.2965 -0.0927  0.0369
11855WAT      O48125   5.800   1.423   2.703  0.0576  0.3713 -0.1652
11855WAT     H148126   5.773   1.357   2.752  0.5248 -1.9242 -2.7476
11855WAT     H248127   5.885   1.430   2.723  0.3450 -0.8291 -0.8812
11855WAT    EPW48128   5.809   1.414   2.713  0.5902  0.2207  0.5015
11856WAT      O48129   4.152   5.393   0.351 -0.0576 -0.2994 -0.0390
11856WAT     H148130   4.176   5.473   0.324 -2.2150  0.2044 -0.6704
11856WAT     H248131   4.149   5.401   0.438  1.9126 -0.3996  0.0781
11856WAT    EPW48132   4.155   5.406   0.360  0.3381 -0.5696  0.4671
11857WAT      O48133   3.821   2.566   5.013  0.0051 -0.4530 -0.3650
11857WAT     H148134   3.756   2.624   5.015 -0.4550 -0.9318 -1.0333
11857WAT     H248135   3.868   2.590   4.944  1.0650  0.4323  0.6353
11857WAT    EPW48136   3.818   2.578   5.003  0.0688  0.2102  0.4566
11858WAT      O48137   3.830   6.256   1.958  0.3516 -0.5750 -0.0958
11858WAT     H148138   3.830   6.334   1.997  3.7966  0.1220 -1.1127
11858WAT     H248139   3.876   6.206   2.014 -1.2888 -1.7716  0.2571
11858WAT    EPW48140   3.837   6.260   1.972 -0.1373  0.8124  0.1391
11859WAT      O48141   3.878   5.685   2.339 -0.9376 -0.3039  0.0955
11859WAT     H148142   3.807   5.712   2.296 -0.3169 -0.4267 -1.0510
11859WAT     H248143   3.913   5.624   2.286  0.1370 -0.0845  0.5157
11859WAT    EPW48144   3.873   5.680   2.325  0.1650 -0.0851 -0.0479
11860WAT      O48145   1.564   4.524   2.759  0.6244 -0.4661  0.7369
11860WAT     H148146   1.624   4.554   2.814  0.5484  0.9647  0.0806
11860WAT     H248147   1.490   4.525   2.807 -0.0502  3.5605 -0.0800
11860WAT    EPW48148   1.562   4.528   2.774 -0.1760 -0.1858 -0.4952
11861WAT      O48149   2.200   0.107   1.561 -0.6813 -0.4405 -0.1384
11861WAT     H148150   2.118   0.124   1.536 -0.9770 -1.4866  0.0850
11861WAT     H248151   2.207   0.149   1.637 -0.4559  1.0186 -0.9159
11861WAT    EPW48152   2.189   0.116   1.569  0.3246 -0.0414 -0.4894
11862WAT      O48153   4.787   6.362   1.973 -0.2691 -0.5809 -0.6023
11862WAT     H148154   4.830   6.368   2.048 -1.4305 -0.0373  0.0323
11862WAT     H248155   4.790   6.443   1.940  0.1677 -0.7964 -1.1214
11862WAT    EPW48156   4.794   6.375   1.979 -0.2833 -0.4972  0.0351
11863WAT      O48157   1.403   1.385   3.782  0.0067 -0.0903  0.4241
11863WAT     H148158   1.414   1.420   3.861 -0.3844  1.6523 -0.2440
11863WAT     H248159   1.485   1.370   3.755  0.1283 -1.1162  1.3037
11863WAT    EPW48160   1.417   1.388   3.790  0.1823 -0.8501 -0.4329
11864WAT      O48161   1.806   4.229   3.436  0.7446 -0.0635 -0.1509
11864WAT     H148162   1.769   4.302   3.466 -0.2913 -0.9304  0.7703
11864WAT     H248163   1.880   4.223   3.482  0.2665 -0.1912  0.6133
11864WAT    EPW48164   1.812   4.239   3.447  0.1951  0.0590  0.0608
11865WAT      O48165   2.618  -0.012   2.414 -0.3901  0.3511 -0.1659
11865WAT     H148166   2.600   0.042   2.480  0.5596  0.6908 -0.1736
11865WAT     H248167   2.670   0.036   2.363 -3.6612  1.3670 -2.9472
11865WAT    EPW48168   2.623   0.003   2.416  0.2357 -0.3100  0.1410
11866WAT      O48169   0.649   0.672   2.149  0.4628  0.1794 -0.7899
11866WAT     H148170   0.601   0.729   2.104  0.6677  1.6206  0.7062
11866WAT     H248171   0.728   0.678   2.112  0.4772  0.8838 -0.6690
11866WAT    EPW48172   0.654   0.681   2.137 -0.4478  0.1481 -0.0103
11867WAT      O48173   2.774   2.336   4.465  0.1989  0.1698 -0.2484
11867WAT     H148174   2.777   2.367   4.546  0.1816 -0.6036  0.0570
11867WAT     H248175   2.855   2.310   4.449  0.2988  0.7214 -0.6422
11867WAT    EPW48176   2.786   2.336   4.475 -0.1064 -0.4023 -0.4041
11868WAT      O48177   6.056   3.572   3.707  0.1757 -0.2225  0.3519
11868WAT     H148178   6.039   3.511   3.647 -1.9277  0.8376 -0.2545
11868WAT     H248179   6.003   3.552   3.773  1.1223 -0.3127  1.1069
11868WAT    EPW48180   6.045   3.560   3.708  0.2085  0.1396 -0.1321
11869WAT      O48181   1.990   0.409   6.296  0.0561 -0.1060  0.4033
11869WAT     H148182   1.971   0.493   6.309  1.2203 -0.0005  1.7741
11869WAT     H248183   2.032   0.408   6.220 -1.1561  0.3328 -0.2896
11869WAT    EPW48184   1.993   0.421   6.287  0.0789  0.0156 -0.1309
11870WAT      O48185   6.585   2.843   1.633  0.1695 -0.0075 -0.3372
11870WAT     H148186   6.569   2.906   1.690 -3.2299 -0.1095 -0.9462
11870WAT     H248187   6.547   2.773   1.668  2.4431 -1.4070 -0.4442
11870WAT    EPW48188   6.577   2.842   1.646  0.6137 -0.3499 -0.3403
11871WAT      O48189   5.907   3.167   2.899 -0.3772 -0.2313 -0.1017
11871WAT     H148190   5.992   3.156   2.915 -0.1867  0.6643 -0.4461
11871WAT     H248191   5.888   3.240   2.942 -1.2116 -0.9214  0.7604
11871WAT    EPW48192   5.917   3.176   2.908 -0.2427 -0.8363 -0.6415
11872WAT      O48193   0.069   7.260   2.410 -0.2088 -0.5929  0.2517
11872WAT     H148194  -0.012   7.270   2.441  0.8193  1.9351  2.5070
11872WAT     H248195   0.083   7.175   2.418 -2.5889 -1.1053 -0.1397
11872WAT    EPW48196   0.059   7.249   2.416 -0.1713 -0.3538 -0.2785
11873WAT      O48197   3.367   1.309   1.583  0.0438 -0.1660 -0.0672
11873WAT     H148198   3.390   1.336   1.504 -1.1085  0.3604 -0.2376
11873WAT     H248199   3.425   1.349   1.636  0.6038 -0.2540 -0.6034
11873WAT    EPW48200   3.379   1.319   1.579  0.0137  0.5180  0.1400
11874WAT      O48201   5.537   2.881   6.840  0.3302  0.4737  0.1167
11874WAT     H148202   5.608   2.930   6.850  0.0052  0.6303  2.2583
11874WAT     H248203   5.503   2.878   6.921 -1.5163 -0.4629 -0.6336
11874WAT    EPW48204   5.543   2.888   6.854 -0.2441  0.0841 -0.3562
11875WAT      O48205   6.528   2.167   4.836 -0.3899  0.2652 -0.1998
11875WAT     H148206   6.564   2.226   4.888  0.5815 -0.8505  0.4461
11875WAT     H248207   6.519   2.097   4.887 -1.2164 -0.2455 -1.0164
11875WAT    EPW48208   6.532   2.165   4.851 -0.1743 -0.2089  0.3159
11876WAT      O48209   2.924   4.493   2.293 -0.1773 -0.8055 -0.1252
11876WAT     H148210   2.947   4.506   2.209  0.2118 -3.8727 -0.6148
11876WAT     H248211   2.894   4.411   2.293 -1.6558 -0.3609  2.4911
11876WAT    EPW48212   2.923   4.483   2.280  0.2555 -0.2989 -0.3452
11877WAT      O48213   4.917   0.308   2.381 -0.2939 -0.2429 -0.5740
11877WAT     H148214   4.876   0.236   2.355  0.6573 -1.3929  0.9409
11877WAT     H248215   4.892   0.317   2.464  1.8618 -0.5598  0.1702
11877WAT    EPW48216   4.907   0.299   2.390 -0.2289 -0.1852 -0.3035
11878WAT      O48217   2.649   1.645   3.527 -0.7045 -0.3060 -0.4089
11878WAT     H148218   2.707   1.670   3.587  2.4227 -1.7572 -2.5481
11878WAT     H248219   2.592   1.711   3.526  0.2004  0.7081  2.6735
11878WAT    EPW48220   2.649   1.659   3.536 -0.2207  0.3804 -0.3032
11879WAT      O48221   1.596   0.153   2.292  0.3954 -0.6710 -0.2263
11879WAT     H148222   1.545   0.224   2.292 -1.0787 -1.6712 -0.5586
11879WAT     H248223   1.569   0.108   2.362  2.3792 -0.2365  0.8948
11879WAT    EPW48224   1.585   0.157   2.302  0.0056  0.2522  0.0925
11880WAT      O48225   4.713   2.038   1.822  0.4569  0.0007  0.0543
11880WAT     H148226   4.773   2.078   1.871  0.5883  2.1008 -1.6882
11880WAT     H248227   4.760   1.991   1.766  0.5120  1.2418 -0.9786
11880WAT    EPW48228   4.729   2.037   1.821 -0.2718  0.0935 -0.2090
11881WAT      O48229   4.619   7.538   1.899 -0.2452  0.3333 -0.1543
11881WAT     H148230   4.687   7.592   1.912  0.0855 -0.6747  3.6157
11881WAT     H248231   4.650   7.460   1.924 -1.5422 -1.1448 -2.7470
11881WAT    EPW48232   4.634   7.534   1.905  0.0058 -0.3381 -0.2513
11882WAT      O48233   6.014   6.884   2.397 -0.4276  0.3404 -0.7916
11882WAT     H148234   6.064   6.813   2.387 -1.3874 -0.6657  1.0097
11882WAT     H248235   6.059   6.947   2.358  0.8229 -1.1065 -1.7888
11882WAT    EPW48236   6.028   6.883   2.390 -0.3370  0.0351  0.0380
11883WAT      O48237   0.311   4.756   4.056  0.1424  0.1898 -0.6518
11883WAT     H148238   0.289   4.840   4.061 -0.0062  0.0895  0.5033
11883WAT     H248239   0.367   4.754   3.989  0.7439  1.3288 -0.2098
11883WAT    EPW48240   0.316   4.768   4.047  0.1898  0.7971  0.0781
11884WAT      O48241   5.686   5.912   2.163 -0.1054  0.2536  0.6380
11884WAT     H148242   5.660   5.901   2.080  0.0310  0.5015  0.5616
11884WAT     H248243   5.651   5.988   2.186 -0.5064 -0.0270  0.9549
11884WAT    EPW48244   5.677   5.921   2.154 -0.2010  0.2703  0.2104
11885WAT      O48245   6.286   3.837   4.163  0.0004 -0.6881  0.3618
11885WAT     H148246   6.270   3.775   4.222 -1.7438 -0.1906  0.4638
11885WAT     H248247   6.372   3.830   4.149  0.3230 -1.3773  2.3329
11885WAT    EPW48248   6.297   3.827   4.170 -0.3583  0.4721 -0.4961
11886WAT      O48249   2.064   7.811   1.812  0.7240  0.4174  0.2225
11886WAT     H148250   2.008   7.757   1.773  0.3333 -0.2442  1.6321
11886WAT     H248251   2.013   7.876   1.840  0.5536 -0.3330  1.7736
11886WAT    EPW48252   2.048   7.813   1.810 -0.5518  0.9099  0.5876
11887WAT      O48253   3.390   6.140   7.395  0.5632  0.6162  0.0096
11887WAT     H148254   3.320   6.091   7.377  2.4130 -1.9932 -0.6419
11887WAT     H248255   3.417   6.167   7.316  2.4525 -1.7400 -0.2620
11887WAT    EPW48256   3.383   6.137   7.381  0.1619  0.3951  0.0479
11888WAT      O48257   4.071   5.453   1.910  0.1237 -0.7153 -0.1433
11888WAT     H148258   4.084   5.539   1.901  2.9688 -0.9890  0.3655
11888WAT     H248259   4.075   5.422   1.829  4.4374 -0.8320 -0.0939
11888WAT    EPW48260   4.074   5.461   1.897 -0.9482 -0.5058  0.1844
11889WAT      O48261   5.279   1.907   2.515 -0.2371  0.8965 -1.1585
11889WAT     H148262   5.255   1.858   2.447 -0.6049  2.1818 -1.9920
11889WAT     H248263   5.366   1.908   2.510  0.0446 -1.8443  0.4963
11889WAT    EPW48264   5.288   1.900   2.504 -0.4538 -0.3667 -0.5835
11890WAT      O48265   6.136   6.695   2.833 -0.0191 -0.0486 -0.2948
11890WAT     H148266   6.224   6.692   2.835  0.0852  0.7731 -1.7588
11890WAT     H248267   6.113   6.611   2.828  0.7203 -0.2588 -0.3392
11890WAT    EPW48268   6.146   6.682   2.832  0.4516 -0.0714 -0.4698
11891WAT      O48269   0.520   0.641   3.720  0.3537  0.0280  0.6240
11891WAT     H148270   0.454   0.626   3.775  2.0679 -1.8595  2.3076
11891WAT     H248271   0.531   0.727   3.724 -1.0626  0.2008  1.4378
11891WAT    EPW48272   0.512   0.651   3.729  0.2944  0.3110 -0.2338
11892WAT      O48273   3.204   5.440   3.430  0.1626  0.1161  0.5433
11892WAT     H148274   3.121   5.461   3.414 -0.4661 -0.9032  2.1652
11892WAT     H248275   3.200   5.402   3.509  2.0125 -0.8857  0.2064
11892WAT    EPW48276   3.191   5.437   3.440  0.0790  0.6745 -0.8136
11893WAT      O48277   2.657   0.609   3.285  0.1365  0.3774 -0.4010
11893WAT     H148278   2.614   0.537   3.309  1.9260 -0.5746  0.1676
11893WAT     H248279   2.654   0.660   3.356  2.4836 -0.9919  0.7957
11893WAT    EPW48280   2.650   0.606   3.299  0.1122  0.8056 -0.4206
11894WAT      O48281   6.874   7.743   2.989 -0.6978 -0.4671  0.1749
11894WAT     H148282   6.859   7.657   2.986 -0.0091 -0.5860  0.0138
11894WAT     H248283   6.817   7.775   2.930 -0.1106 -0.9466 -0.6771
11894WAT    EPW48284   6.863   7.735   2.980 -0.2024 -0.2379  0.0345
11895WAT      O48285   1.772   2.452   2.645 -0.1538  0.8712  0.0825
11895WAT     H148286   1.703   2.492   2.681 -0.9894  0.0972 -0.6266
11895WAT     H248287   1.742   2.373   2.625  1.8825 -0.8252  2.9303
11895WAT    EPW48288   1.757   2.446   2.648  0.2208 -0.2733 -0.4272
11896WAT      O48289   5.287   6.781   0.749  0.3943 -0.1273  0.3494
11896WAT     H148290   5.250   6.818   0.679 -0.8268 -1.2350  0.3689
11896WAT     H248291   5.222   6.734   0.784  1.2779 -0.4649  1.6133
11896WAT    EPW48292   5.272   6.780   0.744 -0.1956 -0.8769  0.1887
11897WAT      O48293   2.501   2.911   4.873 -0.4166 -0.1512 -0.1926
11897WAT     H148294   2.474   2.829   4.884  0.4395 -0.2152  1.7804
11897WAT     H248295   2.430   2.951   4.841 -1.0238 -1.5217 -0.6408
11897WAT    EPW48296   2.486   2.905   4.870  0.1625 -0.3791  0.0005
11898WAT      O48297   4.937   0.706   0.689  0.5319 -0.7850 -0.4020
11898WAT     H148298   4.932   0.660   0.615 -1.0277  0.2138 -0.9552
11898WAT     H248299   4.897   0.656   0.747 -0.5531 -0.4596 -0.8475
11898WAT    EPW48300   4.931   0.692   0.687  0.2421  0.0301  0.0865
11899WAT      O48301   2.927   7.239   0.080 -0.2811 -0.0301  0.2172
11899WAT     H148302   3.012   7.244   0.057 -0.1871  0.8550  0.7226
11899WAT     H248303   2.891   7.194   0.014  0.6710 -0.8716  0.2449
11899WAT    EPW48304   2.935   7.233   0.067  0.1325 -0.4998 -0.0374
11900WAT      O48305   1.228   0.953   3.625 -0.4310  0.1150 -0.5706
11900WAT     H148306   1.242   0.906   3.553  0.6855  1.7801 -1.5020
11900WAT     H248307   1.199   1.030   3.594 -3.0973 -0.1678  0.9234
11900WAT    EPW48308   1.225   0.958   3.610 -0.0855 -0.1391  0.1402
11901WAT      O48309   4.469   0.151   2.443  0.3433  0.3057  0.3576
11901WAT     H148310   4.410   0.164   2.506 -1.0234 -0.9709 -0.5850
11901WAT     H248311   4.495   0.069   2.456  1.7031  0.7498  0.5579
11901WAT    EPW48312   4.464   0.141   2.454 -0.1840  0.5429 -0.0402
11902WAT      O48313   4.483   6.149   5.090  0.1666  0.3236  0.4119
11902WAT     H148314   4.545   6.119   5.144  0.2757  0.1739  0.2072
11902WAT     H248315   4.412   6.106   5.115  0.2568  0.1167  0.3189
11902WAT    EPW48316   4.482   6.138   5.102  0.0137 -0.4558 -0.4900
11903WAT      O48317   2.693   1.481   7.223  0.2192 -0.0536  0.4623
11903WAT     H148318   2.665   1.478   7.306  0.8597  2.4946  0.8744
11903WAT     H248319   2.754   1.544   7.225  0.8842 -0.5494 -1.7918
11903WAT    EPW48320   2.698   1.490   7.236  0.1430  0.4271 -0.4033
11904WAT      O48321   4.880   1.626   5.094 -0.3852 -0.1470 -0.9205
11904WAT     H148322   4.881   1.670   5.169 -1.4818 -1.6749  0.0578
11904WAT     H248323   4.965   1.619   5.073  0.1056 -1.1777  1.1472
11904WAT    EPW48324   4.893   1.631   5.102 -0.5932 -0.4211 -0.5408
11905WAT      O48325   2.043   2.979   2.485  0.0927  0.2771 -0.1834
11905WAT     H148326   1.959   2.976   2.465  0.3815 -1.5305 -1.3044
11905WAT     H248327   2.061   2.900   2.516  1.2767  0.7992  0.5740
11905WAT    EPW48328   2.033   2.967   2.486 -0.5750 -0.1743  0.2899
11906WAT      O48329   2.920   0.538   6.155  0.0471 -0.5044  0.2086
11906WAT     H148330   2.895   0.468   6.109 -2.8302  1.0694 -0.8618
11906WAT     H248331   2.903   0.605   6.103 -0.4603  1.1972  2.4008
11906WAT    EPW48332   2.914   0.537   6.141 -0.0722  0.0956  0.5301
11907WAT      O48333   2.282   5.028   2.556  0.4148 -0.0950  0.0640
11907WAT     H148334   2.336   5.060   2.617 -0.4595  0.7432  0.4308
11907WAT     H248335   2.291   4.942   2.564 -1.5897 -0.1875  3.3208
11907WAT    EPW48336   2.291   5.020   2.567  0.2338  0.5050 -0.1548
11908WAT      O48337   2.271   2.280   5.922 -0.6087  0.0114 -0.3400
11908WAT     H148338   2.195   2.292   5.880 -0.5971 -0.0580 -0.3823
11908WAT     H248339   2.262   2.200   5.956 -0.8398  0.2886  0.2642
11908WAT    EPW48340   2.258   2.270   5.921  0.6022 -0.3134  0.2715
11909WAT      O48341   4.373   6.698   4.844  0.0833 -0.0383  0.3222
11909WAT     H148342   4.360   6.615   4.822 -0.1715  0.0753  0.0492
11909WAT     H248343   4.428   6.727   4.783 -2.5181  0.9846 -1.7559
11909WAT    EPW48344   4.379   6.690   4.832 -0.4796  0.1780  0.4979
11910WAT      O48345   3.801   7.560   4.756 -0.2085 -0.4259  0.5401
11910WAT     H148346   3.737   7.597   4.802 -0.8978 -2.2281  1.0879
11910WAT     H248347   3.873   7.586   4.798 -0.3348  2.8801 -0.9598
11910WAT    EPW48348   3.802   7.569   4.769  0.6407 -0.5676 -0.2289
11911WAT      O48349   7.105   2.475   4.565  0.6395 -0.0801  0.1503
11911WAT     H148350   7.033   2.428   4.582  0.1440  0.7837  0.4877
11911WAT     H248351   7.087   2.553   4.599  1.1674  0.5703 -0.9972
11911WAT    EPW48352   7.091   2.479   4.573  0.3450  0.5677 -0.3171
11912WAT      O48353   2.619   2.393   1.377  0.3073  0.0051  0.1688
11912WAT     H148354   2.629   2.344   1.448  0.4601  1.5680  1.2808
11912WAT     H248355   2.605   2.473   1.409 -0.5798  0.6007 -1.5500
11912WAT    EPW48356   2.618   2.397   1.392 -0.3493  0.2897 -0.0748
11913WAT      O48357   4.024   3.468   6.510  0.1509 -0.5293  0.0166
11913WAT     H148358   3.970   3.400   6.525  1.0957 -1.0395  1.2699
11913WAT     H248359   4.103   3.432   6.513  0.6411  0.5018 -0.1999
11913WAT    EPW48360   4.028   3.452   6.512 -0.5473 -0.5593 -0.1148
11914WAT      O48361   2.173   0.609   5.526  0.3802  0.3397  0.2396
11914WAT     H148362   2.176   0.662   5.595 -0.6030  1.1763 -0.3411
11914WAT     H248363   2.257   0.602   5.502  0.5288  1.6116  0.3426
11914WAT    EPW48364   2.186   0.616   5.532  0.3994  0.0469  0.6234
11915WAT      O48365   0.953   1.429   2.354  0.3438  0.6091 -0.7649
11915WAT     H148366   1.006   1.443   2.422 -0.7556  0.8011  0.0857
11915WAT     H248367   0.971   1.347   2.330  2.4115  1.3109 -1.7892
11915WAT    EPW48368   0.963   1.419   2.361 -1.1231  0.0578  0.4626
11916WAT      O48369   0.688   5.840   4.341 -0.4350  0.2396 -0.3392
11916WAT     H148370   0.745   5.906   4.343  0.2098 -0.1885 -2.4532
11916WAT     H248371   0.616   5.875   4.306 -0.3187 -0.0225 -0.8422
11916WAT    EPW48372   0.685   5.855   4.336 -0.1134  0.2560  0.2304
11917WAT      O48373   6.388   5.047   4.078  0.1814  0.4971 -0.1590
11917WAT     H148374   6.335   5.012   4.018  1.0215  0.6544 -1.0148
11917WAT     H248375   6.434   5.105   4.032  1.5201 -0.0661  0.4278
11917WAT    EPW48376   6.387   5.050   4.062  0.2474  0.2466  0.6339
11918WAT      O48377   6.142   6.668   4.614 -0.2814 -0.0949 -0.3589
11918WAT     H148378   6.166   6.585   4.628  0.6639  0.0603 -0.9855
11918WAT     H248379   6.150   6.705   4.693 -0.6236 -0.5699 -0.0943
11918WAT    EPW48380   6.147   6.661   4.628 -0.3287  0.3600 -0.3537
11919WAT      O48381   3.234   2.659   1.997  0.2514 -0.2622  0.4976
11919WAT     H148382   3.196   2.662   2.075  1.9476 -0.6086  1.4002
11919WAT     H248383   3.209   2.732   1.957 -2.0509 -0.9115  0.6387
11919WAT    EPW48384   3.225   2.670   2.002  1.4438  0.3752  0.0799
11920WAT      O48385   3.105   2.058   3.490  0.4615 -0.1336  0.0898
11920WAT     H148386   3.142   2.103   3.555  0.6874  1.0936 -0.8360
11920WAT     H248387   3.151   2.083   3.420  0.1599 -1.3397 -0.5516
11920WAT    EPW48388   3.118   2.069   3.489  0.4483 -0.6449  0.1327
11921WAT      O48389   1.662   7.995   2.108 -0.3209 -0.3360  0.1765
11921WAT     H148390   1.736   8.018   2.067 -0.4702 -1.1344 -0.5622
11921WAT     H248391   1.658   8.051   2.175  1.0505 -0.4034  0.3412
11921WAT    EPW48392   1.672   8.007   2.112  0.0637  0.4021 -0.4114
11922WAT      O48393   1.713   7.560   5.485  0.2596 -0.2336  0.1580
11922WAT     H148394   1.656   7.517   5.534 -0.1263  0.6850  0.5428
11922WAT     H248395   1.668   7.629   5.456  1.3026  0.8336  0.9293
11922WAT    EPW48396   1.698   7.564   5.488 -0.6706  0.0567  0.2876
11923WAT      O48397   2.776   6.310   3.392 -0.2276  0.6096  0.1612
11923WAT     H148398   2.863   6.317   3.391 -0.2126  0.4258 -0.8951
11923WAT     H248399   2.756   6.305   3.477  0.8834 -0.4741  0.3698
11923WAT    EPW48400   2.786   6.311   3.404  0.3869  0.2163  0.0010
11924WAT      O48401   1.894   5.768   4.468 -0.8412 -0.2460 -0.0754
11924WAT     H148402   1.832   5.734   4.519  1.3272 -2.7797  1.1167
11924WAT     H248403   1.943   5.814   4.523 -0.3302 -0.2510 -0.5163
11924WAT    EPW48404   1.892   5.769   4.484 -0.4271  0.0473 -0.4584
11925WAT      O48405   1.892   5.857   5.577  0.4832 -0.0641  0.4066
11925WAT     H148406   1.976   5.863   5.598  0.3334 -0.3893  1.0982
11925WAT     H248407   1.854   5.920   5.623 -0.0184 -1.5253  2.0938
11925WAT    EPW48408   1.899   5.867   5.587  0.0367 -0.3973  0.2957
11926WAT      O48409   0.722   2.110   0.093  0.0375 -0.3136  0.9487
11926WAT     H148410   0.773   2.174   0.064 -0.5279 -0.2592  0.0544
11926WAT     H248411   0.645   2.148   0.106 -0.1856 -0.7174  0.8398
11926WAT    EPW48412   0.718   2.125   0.091 -0.1333 -0.0367  0.2433
11927WAT      O48413   0.086   0.796   2.384  0.0962 -0.0271 -0.2014
11927WAT     H148414   0.092   0.881   2.402 -1.0708 -0.0944  0.5946
11927WAT     H248415   0.160   0.779   2.341  0.7919  1.1775  0.4636
11927WAT    EPW48416   0.098   0.806   2.380 -0.9104  0.0681  0.2533
11928WAT      O48417   3.775   6.508   2.069 -0.0067  0.2797 -0.0650
11928WAT     H148418   3.855   6.542   2.070 -0.2872  0.9566 -0.1658
11928WAT     H248419   3.754   6.502   2.154  0.4171 -0.5442 -0.0161
11928WAT    EPW48420   3.783   6.512   2.082 -0.1075 -0.3290 -0.1361
11929WAT      O48421   4.733   6.724   6.731  0.1888  0.9234  0.1217
11929WAT     H148422   4.670   6.771   6.693 -0.8217 -0.1099  0.4398
11929WAT     H248423   4.792   6.783   6.756 -1.1203  2.0326  0.6892
11929WAT    EPW48424   4.732   6.740   6.729 -0.5893 -0.5700 -0.0529
11930WAT      O48425   2.572   2.691   6.277 -0.3528  0.5743  0.0691
11930WAT     H148426   2.602   2.694   6.359  0.3280  2.2323 -0.1978
11930WAT     H248427   2.486   2.700   6.287 -0.4508 -0.7197  0.6541
11930WAT    EPW48428   2.564   2.693   6.291 -0.1138 -0.5180 -0.6010
11931WAT      O48429   2.200   6.242   2.968  0.2186 -0.0539  0.1894
11931WAT     H148430   2.201   6.292   2.896  0.2522 -0.8476 -0.3749
11931WAT     H248431   2.123   6.201   2.964  0.1412  0.0406  0.7065
11931WAT    EPW48432   2.189   6.243   2.957  0.3090 -0.2196  0.8768
11932WAT      O48433   6.037   2.606   1.301 -0.5305 -0.3746 -0.8365
11932WAT     H148434   5.966   2.574   1.340 -0.6666  1.7768  0.9234
11932WAT     H248435   6.096   2.608   1.365  0.5566 -0.4525 -1.8053
11932WAT    EPW48436   6.035   2.602   1.316 -0.7473  1.1965 -0.3001
11933WAT      O48437   7.471   2.983   4.527 -0.2414 -0.6080 -0.4206
11933WAT     H148438   7.392   3.016   4.506 -0.0148 -0.8417 -1.7260
11933WAT     H248439   7.465   2.899   4.504  0.4500 -0.5845 -0.7102
11933WAT    EPW48440   7.458   2.976   4.520 -0.2012  0.0757 -0.7161
11934WAT      O48441   3.426   5.868   6.036 -0.0563  0.0003  0.2027
11934WAT     H148442   3.424   5.955   6.044 -1.1363 -0.1483  2.4730
11934WAT     H248443   3.507   5.847   6.062 -0.0039  0.2849  0.2684
11934WAT    EPW48444   3.438   5.877   6.041  0.1156 -0.8359  0.2865
11935WAT      O48445   1.710   3.652   7.735  0.4469  0.3032 -0.2231
11935WAT     H148446   1.681   3.710   7.793 -0.6706 -0.5240  0.0781
11935WAT     H248447   1.658   3.583   7.747  1.0756 -0.3839 -1.2784
11935WAT    EPW48448   1.698   3.651   7.745  0.3074  0.0907 -0.1142
11936WAT      O48449   6.771   0.967   2.329  0.1443  0.4819  0.0447
11936WAT     H148450   6.840   0.917   2.350  0.6349  1.0467 -0.2013
11936WAT     H248451   6.739   0.992   2.406  0.4916  0.5881  0.1571
11936WAT    EPW48452   6.777   0.963   2.344  0.1304 -0.6467 -0.1573
11937WAT      O48453   3.950   7.879   1.042  0.1187 -0.2175 -0.1957
11937WAT     H148454   3.910   7.950   1.073 -0.4703  0.2524 -1.9404
11937WAT     H248455   4.004   7.910   0.982  2.0279 -1.0139  1.0196
11937WAT    EPW48456   3.952   7.894   1.038  0.1507 -0.0083 -0.7285
11938WAT      O48457   5.278   6.277   0.521  0.4787 -0.0388  0.2965
11938WAT     H148458   5.270   6.251   0.438  0.5839 -1.3966  0.6855
11938WAT     H248459   5.206   6.325   0.534  0.7277  0.6436 -0.7213
11938WAT    EPW48460   5.266   6.280   0.511 -0.2432 -0.0389 -0.1381
11939WAT      O48461   2.794   2.410   3.161 -0.6266 -0.3778 -0.0199
11939WAT     H148462   2.784   2.447   3.082 -2.6738 -1.4806 -0.3647
11939WAT     H248463   2.740   2.456   3.211 -0.4715 -0.6351  0.3841
11939WAT    EPW48464   2.784   2.422   3.157 -0.1379  0.4096  0.2729
11940WAT      O48465   1.682   0.834   4.145 -0.2064 -0.5002  0.6987
11940WAT     H148466   1.704   0.869   4.222 -0.2890 -2.1221  1.4911
11940WAT     H248467   1.604   0.869   4.128  0.9804  2.0717 -0.0993
11940WAT    EPW48468   1.674   0.845   4.154 -0.2304 -0.4120  0.0030
11941WAT      O48469   4.847   3.656   5.779  0.4256 -0.5298 -0.2189
11941WAT     H148470   4.814   3.658   5.860 -2.5817 -1.2270 -1.2824
11941WAT     H248471   4.798   3.597   5.739  2.3687 -0.7948 -2.3879
11941WAT    EPW48472   4.835   3.648   5.785 -0.3754 -0.1732 -0.2860
11942WAT      O48473   3.875   0.071   2.516 -0.0276 -0.7812 -0.3136
11942WAT     H148474   3.856  -0.009   2.486  1.0762 -1.0773 -0.2499
11942WAT     H248475   3.898   0.115   2.445  1.0343 -1.0248 -0.1359
11942WAT    EPW48476   3.875   0.066   2.501 -0.0782 -0.2096  0.5595
11943WAT      O48477   1.533   7.513   3.626 -0.2789  0.1772  0.2653
11943WAT     H148478   1.468   7.570   3.635  0.2209  0.5592  1.7610
11943WAT     H248479   1.504   7.442   3.667 -0.3600 -0.1828 -0.4066
11943WAT    EPW48480   1.519   7.511   3.634 -0.1853 -0.9292 -0.1135
11944WAT      O48481   0.739   7.080   4.409 -0.3636  0.6058 -0.1821
11944WAT     H148482   0.798   7.016   4.412  0.0603  1.0341  2.4950
11944WAT     H248483   0.696   7.065   4.334  1.4238 -1.2309 -0.9094
11944WAT    EPW48484   0.741   7.069   4.398  0.5395  0.2205 -0.4254
11945WAT      O48485   1.759   4.502   4.249  0.4468 -0.1376  0.3991
11945WAT     H148486   1.843   4.484   4.230  0.5802 -0.0291  0.8676
11945WAT     H248487   1.745   4.580   4.212 -0.3831 -1.4603 -2.3965
11945WAT    EPW48488   1.769   4.511   4.241 -0.3593  0.4453 -0.2090
11946WAT      O48489   2.463   0.966   1.984 -0.1787 -0.2352 -0.6262
11946WAT     H148490   2.403   0.903   1.982 -1.4247  0.7933  1.1737
11946WAT     H248491   2.476   0.980   2.069  1.8204  0.3541 -0.9709
11946WAT    EPW48492   2.456   0.959   1.996 -0.0916 -0.4896 -0.2126
11947WAT      O48493   6.856   2.576   4.829 -0.3966 -0.2659  0.7614
11947WAT     H148494   6.810   2.587   4.903  1.0793  0.0903  1.6639
11947WAT     H248495   6.794   2.568   4.768 -1.6776 -0.8796  2.0670
11947WAT    EPW48496   6.840   2.576   4.831  0.0552 -0.1609  0.1768
11948WAT      O48497   6.303   2.772   4.437 -0.2764 -0.2364 -0.3488
11948WAT     H148498   6.258   2.840   4.404  0.0183  0.8016  1.2632
11948WAT     H248499   6.242   2.711   4.449 -1.2119  0.9211  1.2001
11948WAT    EPW48500   6.287   2.773   4.434 -0.0838  0.7786  0.1838
11949WAT      O48501   6.694   7.721   3.887 -0.3414  0.1095  0.4893
11949WAT     H148502   6.747   7.742   3.953 -1.6969  1.6962  1.1363
11949WAT     H248503   6.640   7.789   3.881 -0.7248 -0.3184 -1.8070
11949WAT    EPW48504   6.694   7.734   3.896 -0.0452 -0.3439 -0.1187
11950WAT      O48505   3.240   7.226   1.949  0.2979  0.3321  0.7925
11950WAT     H148506   3.303   7.225   1.889 -1.9421  1.7712 -1.7880
11950WAT     H248507   3.171   7.194   1.907 -1.4647  1.7267  2.4635
11950WAT    EPW48508   3.239   7.221   1.934 -0.1417 -0.0619  0.0241
11951WAT      O48509   7.672   6.357   4.099  0.5114 -0.0483 -0.6415
11951WAT     H148510   7.716   6.282   4.098  0.0662 -0.3445  0.5867
11951WAT     H248511   7.632   6.358   4.021  1.7785 -0.2994 -1.3224
11951WAT    EPW48512   7.673   6.346   4.087  0.3296  0.4462  0.1845
11952WAT      O48513   5.774   2.314   3.874 -0.2355 -0.0532 -0.0626
11952WAT     H148514   5.856   2.337   3.854 -1.0798  1.7875 -1.7309
11952WAT     H248515   5.731   2.390   3.872 -2.3302 -1.1859 -1.0421
11952WAT    EPW48516   5.780   2.329   3.871  0.1969  0.4503 -0.1751
11953WAT      O48517   6.943   6.460   0.206 -0.4600 -0.0191 -0.3259
11953WAT     H148518   6.924   6.412   0.136 -0.4018 -0.8301  0.2060
11953WAT     H248519   6.872   6.510   0.217 -1.3172 -1.3221  0.2220
11953WAT    EPW48520   6.930   6.460   0.197  0.0519 -0.2575  0.2915
11954WAT      O48521   4.167   1.853   1.411  0.3017 -0.5388  0.8508
11954WAT     H148522   4.191   1.885   1.488  0.6432 -1.4197  1.1180
11954WAT     H248523   4.177   1.767   1.419 -1.7558 -0.8800  0.5562
11954WAT    EPW48524   4.172   1.845   1.423 -0.0786 -0.4608  0.1035
11955WAT      O48525   3.365   3.660   2.457 -0.5212  0.0370 -0.0826
11955WAT     H148526   3.307   3.606   2.420  1.1233 -1.7669 -0.1851
11955WAT     H248527   3.380   3.720   2.395  1.0803 -2.0826 -1.8835
11955WAT    EPW48528   3.358   3.661   2.443 -0.3370  0.4338  0.4197
11956WAT      O48529   2.558   7.583   5.818  0.1976 -0.2309 -0.3437
11956WAT     H148530   2.490   7.554   5.770  0.5844 -0.4657 -0.7623
11956WAT     H248531   2.601   7.635   5.763 -1.6700  3.0218  1.0261
11956WAT    EPW48532   2.554   7.586   5.803 -0.5626  0.2150 -0.0336
11957WAT      O48533   1.756   5.649   1.475 -0.3006  0.0893 -0.6121
11957WAT     H148534   1.727   5.567   1.467  1.6546 -0.6061 -1.0455
11957WAT     H248535   1.779   5.671   1.394 -0.6107  1.0061 -0.4649
11957WAT    EPW48536   1.755   5.641   1.462 -0.4757 -0.5146  0.1606
11958WAT      O48537   5.239   2.172   3.700  0.6809  0.3447  0.3013
11958WAT     H148538   5.283   2.151   3.772 -1.6479  1.3135  2.1518
11958WAT     H248539   5.254   2.257   3.691 -0.2899  0.5697  0.6383
11958WAT    EPW48540   5.248   2.181   3.710 -0.2224  0.1792  0.1941
11959WAT      O48541   2.845   1.928   6.012  0.1001 -0.2248  0.3861
11959WAT     H148542   2.826   2.007   5.982 -2.4675 -0.1576  1.9520
11959WAT     H248543   2.804   1.875   5.955 -0.3251 -0.3080  0.7661
11959WAT    EPW48544   2.836   1.932   5.999  0.5268  0.7126  0.2397
11960WAT      O48545   4.273   1.452   4.808 -0.2829  0.0970 -0.0413
11960WAT     H148546   4.194   1.485   4.822 -0.2034  1.2642 -1.9657
11960WAT     H248547   4.304   1.439   4.889 -1.0478  3.0885  0.8984
11960WAT    EPW48548   4.266   1.455   4.822 -0.2850 -0.1822 -0.2501
11961WAT      O48549   0.363   3.241   3.183  0.0680 -0.4211 -0.8323
11961WAT     H148550   0.366   3.188   3.253  1.8565  1.1210  0.3896
11961WAT     H248551   0.447   3.249   3.160  0.0899  2.7956 -0.1195
11961WAT    EPW48552   0.376   3.234   3.190  0.5644 -0.8013  0.1535
11962WAT      O48553   0.321   0.391   0.872 -0.2783 -0.1459  0.1314
11962WAT     H148554   0.340   0.307   0.855  1.9644 -0.1857  2.1412
11962WAT     H248555   0.280   0.387   0.949  1.6258  0.6015  1.2791
11962WAT    EPW48556   0.318   0.378   0.881 -0.4034 -0.1504 -0.4389
11963WAT      O48557   2.044   1.237   1.065  0.1601  0.4960 -0.2941
11963WAT     H148558   2.021   1.163   1.023  1.8769  1.0158 -2.3201
11963WAT     H248559   1.967   1.273   1.085 -0.8637  0.3737 -3.4122
11963WAT    EPW48560   2.029   1.231   1.062 -0.7543  0.2451  0.3135
11964WAT      O48561   7.153   0.982   2.548  0.1636  0.0085 -0.1303
11964WAT     H148562   7.228   0.965   2.588 -0.1905 -0.1305  0.4864
11964WAT     H248563   7.177   0.999   2.466  1.0192  1.4224  0.3732
11964WAT    EPW48564   7.168   0.982   2.542  0.5761  0.3301 -0.6622
11965WAT      O48565   5.166   0.381   0.143  0.6734  0.0990 -0.1334
11965WAT     H148566   5.117   0.348   0.207 -2.2179  1.0328 -1.6352
11965WAT     H248567   5.131   0.345   0.071  0.6781  2.5253 -1.4586
11965WAT    EPW48568   5.153   0.370   0.142 -0.0451 -0.5023 -0.6012
11966WAT      O48569   4.035   3.649   2.916  0.1061 -0.4523  0.1909
11966WAT     H148570   4.014   3.567   2.894  2.0762 -1.7551  2.7223
11966WAT     H248571   4.105   3.666   2.867 -0.4602 -0.1469 -0.5288
11966WAT    EPW48572   4.042   3.639   2.905  0.0096  0.4339 -0.5744
11967WAT      O48573   1.943   4.580   2.777 -0.6260  0.1573 -0.5840
11967WAT     H148574   1.975   4.499   2.772 -0.0172  0.2984  0.6905
11967WAT     H248575   1.904   4.582   2.855 -2.8913  0.3239 -1.6439
11967WAT    EPW48576   1.942   4.569   2.788 -0.2270 -0.0527  0.2530
11968WAT      O48577   1.203   0.673   7.254 -0.0141  0.1008 -0.0875
11968WAT     H148578   1.158   0.598   7.260  2.9861 -1.7491  2.2148
11968WAT     H248579   1.173   0.720   7.320 -1.3760  0.6823 -1.0802
11968WAT    EPW48580   1.192   0.669   7.265 -0.6455  0.0501  0.4258
11969WAT      O48581   2.512   6.804   2.602 -0.4055 -0.0109  0.6265
11969WAT     H148582   2.460   6.734   2.601 -0.6698  0.1895  0.0884
11969WAT     H248583   2.580   6.780   2.552  1.1969 -1.1314  3.1369
11969WAT    EPW48584   2.514   6.790   2.594 -0.8825  0.2989  0.5984
11970WAT      O48585   7.285   7.611   3.912 -0.3079 -0.0192  0.0820
11970WAT     H148586   7.339   7.680   3.911 -0.2342 -0.0506  1.3303
11970WAT     H248587   7.206   7.646   3.905 -0.1913  0.0442 -1.4352
11970WAT    EPW48588   7.282   7.626   3.911  0.8561  0.1865 -0.1441
11971WAT      O48589   6.524   1.264   1.949  0.2307  0.5621  0.1937
11971WAT     H148590   6.504   1.340   1.910  1.8763 -0.2168 -2.4283
11971WAT     H248591   6.609   1.254   1.931 -0.3873 -2.9635 -1.7014
11971WAT    EPW48592   6.534   1.274   1.940  0.9646  0.0203 -0.1477
11972WAT      O48593   8.083   7.711   0.339  0.5590  0.4596  0.3694
11972WAT     H148594   8.068   7.670   0.263 -0.1264  0.6344  0.4028
11972WAT     H248595   8.042   7.661   0.397 -0.6111  1.3697  0.3657
11972WAT    EPW48596   8.074   7.698   0.336 -0.2415 -0.0032 -0.2489
11973WAT      O48597   3.464   2.196   4.696 -0.5434  0.5265  0.1053
11973WAT     H148598   3.520   2.262   4.707  0.8397 -0.2914 -1.5030
11973WAT     H248599   3.476   2.148   4.769  2.7935 -0.8911 -1.1443
11973WAT    EPW48600   3.474   2.198   4.709  0.3783  0.1246 -0.9153
11974WAT      O48601   6.911   0.245   1.144  0.3973  0.0775 -0.1422
11974WAT     H148602   6.884   0.162   1.147  1.5398 -0.3222 -0.5400
11974WAT     H248603   6.995   0.239   1.122  0.6009  1.3277  0.2043
11974WAT    EPW48604   6.919   0.232   1.141 -0.4145 -0.0330 -0.6009
11975WAT      O48605   2.496   7.446   7.356  0.1622 -0.2216 -0.2174
11975WAT     H148606   2.443   7.377   7.359 -0.4211 -0.1039 -3.4535
11975WAT     H248607   2.441   7.514   7.352  0.7053  0.3546  1.3936
11975WAT    EPW48608   2.480   7.446   7.356 -0.1821 -0.0096 -0.2342
11976WAT      O48609   0.296   3.427   2.577 -0.2909 -0.6215 -0.0792
11976WAT     H148610   0.375   3.391   2.578 -0.4971 -1.0704  0.0966
11976WAT     H248611   0.243   3.362   2.555 -0.5452 -0.1694 -0.8417
11976WAT    EPW48612   0.300   3.412   2.574 -0.4073 -0.3224  0.3232
11977WAT      O48613   5.574   2.137   3.160 -0.1059 -0.1036 -0.3600
11977WAT     H148614   5.506   2.152   3.212 -0.4087 -0.1563 -0.7377
11977WAT     H248615   5.538   2.119   3.083  0.2398 -2.5371 -0.0254
11977WAT    EPW48616   5.559   2.137   3.157  0.4509  0.6499 -0.5389
11978WAT      O48617   2.829   6.629   3.932  0.7846  0.1637 -0.2041
11978WAT     H148618   2.769   6.692   3.935  2.1292  1.5445 -0.9853
11978WAT     H248619   2.783   6.556   3.948 -0.9283  1.2494  0.0673
11978WAT    EPW48620   2.814   6.627   3.934  0.0838  0.2685  0.3141
11979WAT      O48621   6.315   6.574   3.267 -0.1693  0.6518 -0.5800
11979WAT     H148622   6.271   6.552   3.339 -0.3327  0.9794 -0.5778
11979WAT     H248623   6.399   6.562   3.290 -0.1087  2.4072  0.2439
11979WAT    EPW48624   6.321   6.569   3.281 -0.3204 -0.7625 -0.0861
11980WAT      O48625   6.078   6.197   5.063 -0.5238 -0.2733 -0.3146
11980WAT     H148626   6.154   6.155   5.063 -0.5346 -0.3648 -2.1513
11980WAT     H248627   6.099   6.276   5.094  0.1423 -0.5614  0.0004
11980WAT    EPW48628   6.092   6.203   5.068 -0.5864 -0.0836  0.1576
11981WAT      O48629   0.184   5.620   2.818 -0.2336  0.8039  0.6407
11981WAT     H148630   0.269   5.600   2.822 -0.2561 -0.1662 -1.9629
11981WAT     H248631   0.147   5.563   2.874  0.6458 -0.2741  0.1630
11981WAT    EPW48632   0.191   5.608   2.827  0.3664  0.2164  0.6587
11982WAT      O48633   4.503   6.840   6.662  0.1433  0.5585 -0.1483
11982WAT     H148634   4.494   6.812   6.580 -1.9052  0.2624  0.1169
11982WAT     H248635   4.541   6.918   6.653 -0.0765  0.5355 -1.3815
11982WAT    EPW48636   4.507   6.848   6.649  0.2618 -0.2067  0.1585
11983WAT      O48637   7.152   7.012   0.620  0.0195  0.3885 -0.2699
11983WAT     H148638   7.223   6.986   0.577  0.6053 -0.6975  1.2859
11983WAT     H248639   7.177   7.086   0.660  0.0772  0.3340 -0.2065
11983WAT    EPW48640   7.166   7.019   0.619  0.2993 -0.4054  0.0762
11984WAT      O48641   3.685   7.938   1.906  0.4072  0.2823 -1.3713
11984WAT     H148642   3.656   7.865   1.868  1.1463 -0.3248 -0.8046
11984WAT     H248643   3.702   7.913   1.988 -1.0683  1.5471 -0.6399
11984WAT    EPW48644   3.683   7.923   1.912  0.2268  0.2120 -0.5531
11985WAT      O48645   1.606   4.630   0.047  0.8847 -0.2472  0.3389
11985WAT     H148646   1.585   4.619  -0.038  1.1693  0.7222  0.1290
11985WAT     H248647   1.669   4.690   0.045  2.4548 -1.7980  1.1095
11985WAT    EPW48648   1.612   4.637   0.034  0.3996  0.7145 -0.1716
11986WAT      O48649   3.252   3.347   0.544  0.1600  0.4031 -0.8333
11986WAT     H148650   3.339   3.346   0.551  0.1145 -1.6101  0.0731
11986WAT     H248651   3.231   3.429   0.565  1.7352  0.5155  0.5438
11986WAT    EPW48652   3.262   3.359   0.548 -0.6693  0.6705  0.2073
11987WAT      O48653   3.161   1.145   8.015  0.0300  0.1437 -0.0859
11987WAT     H148654   3.153   1.181   8.094  0.4980  0.5231 -0.2112
11987WAT     H248655   3.090   1.094   8.009  0.2852 -0.3254  0.8027
11987WAT    EPW48656   3.149   1.143   8.026  0.3059  0.2053 -0.4116
11988WAT      O48657   1.274   0.794   7.834 -0.1304  0.0083  0.0651
11988WAT     H148658   1.235   0.859   7.792 -1.1652 -1.2162 -0.9412
11988WAT     H248659   1.345   0.778   7.787 -0.9356 -0.9127 -0.8672
11988WAT    EPW48660   1.279   0.801   7.821 -0.7061  0.2471 -0.1656
11989WAT      O48661   1.458   4.040   3.525  0.0198 -0.0382  0.1453
11989WAT     H148662   1.419   3.984   3.470  0.4681  1.3837 -1.7451
11989WAT     H248663   1.537   4.006   3.538  0.9180  0.8358 -2.3348
11989WAT    EPW48664   1.464   4.027   3.519  0.0745 -0.2015  0.3798
11990WAT      O48665   0.357   0.830   0.535 -0.4797  0.2956  0.6831
11990WAT     H148666   0.352   0.816   0.621  2.4205  0.8548  1.0134
11990WAT     H248667   0.416   0.772   0.508 -1.6534 -0.1773 -1.0659
11990WAT    EPW48668   0.365   0.819   0.544  0.5505  0.1064  0.6108
11991WAT      O48669   1.995   4.141   4.566  0.2290 -0.3552 -0.5943
11991WAT     H148670   1.915   4.138   4.531  0.6079 -1.3761 -1.4393
11991WAT     H248671   2.043   4.094   4.511  1.4602  0.3827 -0.1890
11991WAT    EPW48672   1.990   4.133   4.553 -0.3230  0.0551 -0.0866
11992WAT      O48673   3.158   1.754   0.266 -0.2330 -0.4304  0.3687
11992WAT     H148674   3.124   1.800   0.200 -2.2519 -2.6569 -0.2645
11992WAT     H248675   3.117   1.787   0.336  2.5446  2.5506  0.8667
11992WAT    EPW48676   3.147   1.766   0.266 -0.3545 -0.6174  0.1783
11993WAT      O48677   6.993   0.481   4.359  0.1437 -0.5699  0.5478
11993WAT     H148678   7.074   0.470   4.328  1.3594 -0.3105  3.3185
11993WAT     H248679   6.970   0.560   4.330  0.5425 -0.9284 -0.8391
11993WAT    EPW48680   7.001   0.491   4.350 -0.5318  0.5209  0.0443
11994WAT      O48681   3.289   7.431   4.224  0.1223  0.1529 -0.4392
11994WAT     H148682   3.320   7.353   4.200  0.0728 -0.9728  2.7004
11994WAT     H248683   3.212   7.436   4.182 -0.4734 -2.1014  0.2237
11994WAT    EPW48684   3.282   7.420   4.214  0.0702  0.1817  0.5183
11995WAT      O48685   2.738   3.206   7.303 -0.6341 -0.2198 -1.1044
11995WAT     H148686   2.796   3.264   7.271  0.1775 -0.8935 -0.8686
11995WAT     H248687   2.670   3.256   7.325  1.1098  1.1295  1.8159
11995WAT    EPW48688   2.737   3.222   7.301 -0.0248  0.0386 -0.1739
11996WAT      O48689   3.411   3.119   1.067 -0.2686  0.5285 -0.1736
11996WAT     H148690   3.391   3.091   1.147 -1.8132  0.9330 -0.3741
11996WAT     H248691   3.378   3.057   1.015  1.8761 -0.4083 -0.5220
11996WAT    EPW48692   3.403   3.105   1.071  0.6564 -0.3100  0.2348
11997WAT      O48693   6.556   6.572   2.368  0.8297  0.0550 -0.8059
11997WAT     H148694   6.619   6.528   2.327 -0.6789 -0.2750 -2.9358
11997WAT     H248695   6.486   6.519   2.361 -0.1432  1.2070 -0.1651
11997WAT    EPW48696   6.555   6.557   2.361 -0.4423  0.5496  0.1111
11998WAT      O48697   1.268   0.495   2.746  0.8375 -0.0633  0.0616
11998WAT     H148698   1.328   0.441   2.713  0.4993 -0.2667 -0.2291
11998WAT     H248699   1.304   0.522   2.821  1.7068  0.5562 -0.5573
11998WAT    EPW48700   1.282   0.491   2.752  0.1109 -0.4133 -0.4106
11999WAT      O48701   0.912   4.490   0.615 -0.3421  0.3185  0.1703
11999WAT     H148702   0.864   4.417   0.615  1.0411 -0.6119 -0.6311
11999WAT     H248703   0.972   4.475   0.676 -0.4493  1.0892  0.4805
11999WAT    EPW48704   0.914   4.477   0.624 -0.2066 -0.1011 -0.3673
12000WAT      O48705   3.846   7.242   2.035  0.3474 -0.5020  0.3337
12000WAT     H148706   3.902   7.180   2.060  0.4251 -0.7433 -0.4254
12000WAT     H248707   3.894   7.295   1.986 -0.2424 -1.1211 -0.9457
12000WAT    EPW48708   3.861   7.241   2.032 -0.0585  0.0300 -0.3478
12001WAT      O48709   0.574   6.761   2.304  0.2309 -0.0614  0.7007
12001WAT     H148710   0.580   6.801   2.227 -0.3135 -1.7100 -0.2562
12001WAT     H248711   0.626   6.808   2.356  0.8682  0.9024 -0.7479
12001WAT    EPW48712   0.583   6.774   2.301  0.0056 -0.0075 -0.0120
12002WAT      O48713   0.917   4.736   0.910  0.0964  0.2001 -0.2008
12002WAT     H148714   0.846   4.785   0.895 -0.0987  0.3947  1.1696
12002WAT     H248715   0.979   4.774   0.863 -0.1400  1.5764  0.5502
12002WAT    EPW48716   0.915   4.749   0.901  0.9259 -0.0425 -0.3006
12003WAT      O48717   2.843   7.741   2.787 -0.7857  0.7565  0.5209
12003WAT     H148718   2.823   7.758   2.704 -1.0027  3.3664  1.0094
12003WAT     H248719   2.769   7.707   2.820 -1.4544  1.7892  0.1364
12003WAT    EPW48720   2.829   7.738   2.780 -0.3849  0.3146 -0.3139
12004WAT      O48721   2.507   7.896   0.765  0.3832 -0.0484  0.1636
12004WAT     H148722   2.589   7.878   0.743 -0.0503 -0.3609 -1.2320
12004WAT     H248723   2.463   7.824   0.745 -0.5099  0.7009 -0.7201
12004WAT    EPW48724   2.512   7.883   0.759 -0.2082  0.3025  0.5528
12005WAT      O48725   8.019   0.164   0.858  0.0516 -0.0384 -0.2246
12005WAT     H148726   8.063   0.113   0.913 -0.8475 -0.9689 -0.3343
12005WAT     H248727   8.081   0.203   0.811  0.7855 -0.1861  0.6054
12005WAT    EPW48728   8.035   0.162   0.859 -0.1109 -0.7965  0.7928
12006WAT      O48729   6.634   0.134   0.022  0.3220 -0.5086  0.1116
12006WAT     H148730   6.556   0.163   0.050  0.2037  0.1873 -0.8680
12006WAT     H248731   6.686   0.145   0.091  0.1326  1.5311 -0.0126
12006WAT    EPW48732   6.630   0.140   0.036  0.1066 -0.0825  0.0060
12007WAT      O48733   4.675   0.682   2.933 -0.7526 -0.0128 -0.2669
12007WAT     H148734   4.717   0.610   2.907  0.1663  0.5926 -0.4928
12007WAT     H248735   4.640   0.659   3.010  0.3098 -0.4145  0.1078
12007WAT    EPW48736   4.676   0.668   2.941 -0.2391 -0.0044  0.1077
12008WAT      O48737   2.228   7.256   0.807  0.2648 -0.2075  0.0600
12008WAT     H148738   2.306   7.294   0.803  0.4075 -0.5362 -0.2998
12008WAT     H248739   2.241   7.177   0.773  0.0226 -0.6708  1.0064
12008WAT    EPW48740   2.241   7.250   0.802 -0.4740 -0.2323 -0.2273
12009WAT      O48741   0.797   1.934   3.854  0.6443  0.7210 -0.3597
12009WAT     H148742   0.794   2.000   3.796  0.9447  1.0851  0.0287
12009WAT     H248743   0.811   1.864   3.805 -0.2233  0.8650 -0.8379
12009WAT    EPW48744   0.798   1.934   3.838  0.1518 -0.7977 -0.3479
12010WAT      O48745   2.986   5.491   0.378 -0.0497 -0.0624  0.0081
12010WAT     H148746   3.056   5.456   0.341  0.1683  0.7975 -0.4158
12010WAT     H248747   3.008   5.498   0.462 -0.0308 -0.7622  0.0653
12010WAT    EPW48748   2.999   5.487   0.385 -0.1143  0.3998 -0.6507
12011WAT      O48749   3.454   1.246   3.843 -0.0861  0.0712 -0.0166
12011WAT     H148750   3.470   1.199   3.772 -0.0877 -0.0717  0.0771
12011WAT     H248751   3.438   1.186   3.905  1.3696  0.1449  0.4701
12011WAT    EPW48752   3.454   1.230   3.842  0.3308  0.3393 -0.4063
12012WAT      O48753   5.670   6.609   2.050 -0.2068 -0.3334  0.8729
12012WAT     H148754   5.731   6.668   2.070 -1.7341  1.8833 -0.4811
12012WAT     H248755   5.610   6.619   2.112  0.0294 -1.3200  1.2756
12012WAT    EPW48756   5.671   6.620   2.062 -0.2076 -0.1482  0.8451
12013WAT      O48757   2.860   0.589   1.236  0.1785 -0.2897 -0.2323
12013WAT     H148758   2.844   0.578   1.321  1.0934  0.8452  0.1208
12013WAT     H248759   2.934   0.635   1.236  0.0693 -0.0900 -1.6430
12013WAT    EPW48760   2.869   0.594   1.249 -0.0299  0.2976 -0.2408
12014WAT      O48761   6.419   7.786   2.278 -0.1850 -0.4000 -0.1532
12014WAT     H148762   6.347   7.832   2.263 -0.0227  0.6315  1.9115
12014WAT     H248763   6.396   7.705   2.254 -1.9457 -0.0518  0.1824
12014WAT    EPW48764   6.405   7.780   2.272 -0.5323 -0.1905 -0.0957
12015WAT      O48765   5.278   5.146   7.646  0.6166 -0.4007  0.1937
12015WAT     H148766   5.194   5.155   7.626  0.9033 -0.8847 -1.3863
12015WAT     H248767   5.317   5.213   7.606  1.3189 -1.8779 -1.7669
12015WAT    EPW48768   5.272   5.157   7.637 -0.2306 -0.0165 -0.0908
12016WAT      O48769   0.720   5.008   5.193 -0.8216  0.6961 -0.0852
12016WAT     H148770   0.712   5.093   5.174 -2.5670  0.8664  1.1687
12016WAT     H248771   0.795   5.003   5.236 -0.6353  1.5968 -0.2928
12016WAT    EPW48772   0.730   5.020   5.196  0.1720  0.0055  0.0736
12017WAT      O48773   2.435   6.002   7.640 -0.1260  0.2783  0.1706
12017WAT     H148774   2.493   5.954   7.684 -0.9663 -1.0446 -0.0931
12017WAT     H248775   2.446   5.976   7.557 -0.6973  0.4123  0.0487
12017WAT    EPW48776   2.445   5.991   7.634 -0.2564  0.0108 -0.3381
12018WAT      O48777   3.964   5.349   0.814 -0.4056 -0.3118  0.0290
12018WAT     H148778   3.989   5.290   0.873 -1.4878 -0.9574 -0.1140
12018WAT     H248779   3.895   5.387   0.851  0.4268  1.0714  0.2230
12018WAT    EPW48780   3.957   5.346   0.828  0.1111 -0.1256 -0.2978
12019WAT      O48781   2.941   2.786   4.267 -0.1156 -0.2107  0.1082
12019WAT     H148782   2.977   2.865   4.273  0.1649  0.0414 -3.0678
12019WAT     H248783   2.860   2.803   4.237 -0.6750 -1.0710  1.0851
12019WAT    EPW48784   2.934   2.800   4.264  0.3227  0.0288 -0.0669
12020WAT      O48785   4.620   2.274   1.733  0.0423 -0.7635  0.1544
12020WAT     H148786   4.548   2.296   1.776 -0.4690 -0.8622 -0.6423
12020WAT     H248787   4.637   2.193   1.762 -1.5531 -1.7123 -1.4205
12020WAT    EPW48788   4.612   2.265   1.744  0.0722  0.5603  0.0643
12021WAT      O48789   0.244   5.845   1.174  0.0025 -0.6926 -0.0219
12021WAT     H148790   0.249   5.928   1.201 -2.9367 -0.9382  1.7340
12021WAT     H248791   0.223   5.852   1.090 -1.6948  0.4667  0.4427
12021WAT    EPW48792   0.241   5.858   1.166 -0.3186 -0.2212  0.0483
12022WAT      O48793   2.051   1.058   3.301  0.0090 -0.1022 -0.6275
12022WAT     H148794   2.038   1.072   3.216  4.3404  0.6845 -1.4225
12022WAT     H248795   2.076   0.975   3.304  1.4636  0.3066 -0.4873
12022WAT    EPW48796   2.053   1.048   3.289  0.2268 -0.2344  0.0385
12023WAT      O48797   1.534   7.635   0.244 -0.5544  0.5428  0.0723
12023WAT     H148798   1.592   7.599   0.299 -0.5436 -0.4328 -0.5646
12023WAT     H248799   1.570   7.713   0.226 -0.1461  0.5318  0.7935
12023WAT    EPW48800   1.548   7.642   0.250  0.2346  0.2530  0.3783
12024WAT      O48801   1.932   5.670   8.002  0.0134 -0.3785 -0.3029
12024WAT     H148802   1.911   5.717   8.073 -1.9712 -0.2338 -0.9403
12024WAT     H248803   1.943   5.589   8.034 -0.0046 -0.1538  0.2914
12024WAT    EPW48804   1.931   5.665   8.017  0.0127 -0.2642  0.4072
12025WAT      O48805   0.064   3.055   1.057 -0.5561  0.0534 -0.0844
12025WAT     H148806   0.122   3.115   1.032 -0.6481  0.3510  0.4001
12025WAT     H248807  -0.000   3.064   0.998  0.4927 -1.2671 -1.5035
12025WAT    EPW48808   0.063   3.065   1.044  0.1532 -0.9903 -0.0977
12026WAT      O48809   5.481   0.598   0.126  0.0021 -0.1834 -0.0484
12026WAT     H148810   5.532   0.655   0.169  0.0375  0.1303 -0.4908
12026WAT     H248811   5.402   0.635   0.130 -0.0244 -0.2339 -0.1125
12026WAT    EPW48812   5.477   0.612   0.133 -0.0291  0.2121  0.3043
12027WAT      O48813   6.149   3.100   5.862 -0.1153  0.0283  0.1959
12027WAT     H148814   6.118   3.023   5.888 -0.4688  0.9231  2.7027
12027WAT     H248815   6.081   3.138   5.825 -0.1686 -0.5181 -0.2815
12027WAT    EPW48816   6.135   3.094   5.860  0.2224 -0.3103  0.1631
12028WAT      O48817   5.267   0.460   2.453 -0.1454 -0.0241  0.4091
12028WAT     H148818   5.255   0.395   2.396  0.1136  0.2457  0.0379
12028WAT     H248819   5.245   0.424   2.530 -2.7964  0.2885 -0.1177
12028WAT    EPW48820   5.262   0.445   2.456  0.4337 -0.0439  0.5304
12029WAT      O48821   4.489   7.990   0.849  0.5319  0.1237  0.4783
12029WAT     H148822   4.532   8.063   0.866  0.2543  0.9387 -1.9333
12029WAT     H248823   4.433   8.013   0.786 -0.5955 -1.8327  0.6707
12029WAT    EPW48824   4.487   8.004   0.842  0.5611  0.4176  0.1448
12030WAT      O48825   1.807   3.836   0.729  0.1982 -0.1104 -0.2980
12030WAT     H148826   1.835   3.914   0.757 -0.7539 -0.0958  0.6699
12030WAT     H248827   1.733   3.855   0.686 -0.1527 -0.4842  0.1248
12030WAT    EPW48828   1.800   3.850   0.727 -0.4079  0.7302  0.2109
12031WAT      O48829   7.471   6.007   3.971  0.4463  0.5162  0.0939
12031WAT     H148830   7.435   6.023   3.894 -0.8056 -0.1169  0.5160
12031WAT     H248831   7.417   5.948   4.007  1.5175  0.0816  1.0600
12031WAT    EPW48832   7.458   6.001   3.965  0.3922 -0.3537 -0.1024
12032WAT      O48833   1.418   0.812   0.539  0.8548  0.3876 -0.8059
12032WAT     H148834   1.451   0.735   0.515 -2.1230 -0.9339 -1.1677
12032WAT     H248835   1.353   0.824   0.482 -0.0149  2.1935  0.4867
12032WAT    EPW48836   1.413   0.802   0.527 -0.1040 -0.0078  0.1101
12033WAT      O48837   1.224   1.138   5.117 -0.2435 -0.6919 -0.0471
12033WAT     H148838   1.154   1.138   5.065 -0.7752 -0.1335  0.6499
12033WAT     H248839   1.291   1.144   5.061 -0.7988 -0.1005 -0.6729
12033WAT    EPW48840   1.224   1.139   5.101 -0.2797 -0.2124 -0.4135
12034WAT      O48841   0.645   7.577   3.291  0.9399 -0.3046 -0.4049
12034WAT     H148842   0.670   7.494   3.280  1.7100 -0.1900  0.3635
12034WAT     H248843   0.558   7.574   3.282  0.9723 -1.1662 -0.5121
12034WAT    EPW48844   0.636   7.564   3.288 -0.4162 -0.4757 -0.0765
12035WAT      O48845   4.662   2.198   2.221  0.3083 -0.0622  0.3351
12035WAT     H148846   4.647   2.277   2.189  0.4803 -0.5383 -0.9799
12035WAT     H248847   4.602   2.148   2.183  1.8710 -1.0390 -0.9741
12035WAT    EPW48848   4.651   2.202   2.211  0.3470  0.3478 -0.3164
12036WAT      O48849   3.490   7.747   0.110 -0.3113  0.5395 -0.3010
12036WAT     H148850   3.432   7.692   0.075 -0.6220 -0.0920  1.1092
12036WAT     H248851   3.544   7.765   0.044 -1.0790 -0.2759 -1.1852
12036WAT    EPW48852   3.489   7.741   0.095 -0.1764 -0.1423  0.6446
12037WAT      O48853   0.559   7.509   4.202 -0.4080 -0.2784  0.8240
12037WAT     H148854   0.626   7.557   4.173  0.4479 -0.1814  2.8131
12037WAT     H248855   0.579   7.428   4.176  0.3218 -0.1980  1.1233
12037WAT    EPW48856   0.572   7.504   4.194 -0.3744 -0.1420  0.7084
12038WAT      O48857   6.146   2.997   0.361  0.4909 -0.4059 -0.3608
12038WAT     H148858   6.077   3.015   0.310  0.0860 -0.1611  0.2645
12038WAT     H248859   6.110   2.961   0.431  0.8786  0.7924  0.4894
12038WAT    EPW48860   6.130   2.995   0.364  0.4589 -0.4712  0.0744
12039WAT      O48861   2.407   0.939   6.966 -0.0053  0.4191 -0.1963
12039WAT     H148862   2.463   0.879   6.994 -1.4155 -0.2024  1.4134
12039WAT     H248863   2.440   1.014   6.995  0.9443  0.2851 -0.8836
12039WAT    EPW48864   2.420   0.942   6.974 -0.5496  0.3369  0.0443
12040WAT      O48865   2.160   4.092   1.434  0.3794  0.2378 -0.5467
12040WAT     H148866   2.158   4.108   1.520 -0.9483 -0.6642 -0.3830
12040WAT     H248867   2.241   4.062   1.421  0.3753 -0.2883  0.5231
12040WAT    EPW48868   2.172   4.090   1.445 -0.9223 -0.6227 -0.0913
12041WAT      O48869   0.786   3.208   1.496 -0.2604  0.0682 -0.4938
12041WAT     H148870   0.777   3.206   1.410  2.5374  1.2605 -0.9237
12041WAT     H248871   0.801   3.125   1.518  0.2770 -0.0733 -1.3714
12041WAT    EPW48872   0.787   3.196   1.487 -0.0949 -0.1722  0.6921
12042WAT      O48873   6.563   7.810   1.647  0.4419 -0.4269  0.1733
12042WAT     H148874   6.614   7.785   1.580 -1.9163  1.3308 -2.5266
12042WAT     H248875   6.577   7.896   1.653 -1.0518 -0.1727  0.3703
12042WAT    EPW48876   6.573   7.819   1.638  0.1147  0.0674  0.5535
12043WAT      O48877   0.293   0.613   2.297 -0.2845 -0.2507 -0.0638
12043WAT     H148878   0.297   0.571   2.220 -0.5640  1.8394 -1.2927
12043WAT     H248879   0.283   0.548   2.355 -0.6831 -1.8653 -1.8305
12043WAT    EPW48880   0.292   0.597   2.294 -0.0678 -0.3060 -0.7882
12044WAT      O48881   1.047   0.770   0.348  0.1171  0.1398  0.1027
12044WAT     H148882   1.119   0.749   0.304 -0.9764 -0.0251 -1.7528
12044WAT     H248883   1.013   0.693   0.370  1.0525  0.2316  2.0052
12044WAT    EPW48884   1.053   0.756   0.345  0.1750  0.6313 -0.0982
12045WAT      O48885   2.148   4.804   1.228  0.9625 -0.3827  0.2546
12045WAT     H148886   2.191   4.840   1.295  0.0320  0.0279  0.6453
12045WAT     H248887   2.212   4.777   1.175  1.7182  1.7685 -0.0394
12045WAT    EPW48888   2.164   4.805   1.230 -0.0232 -0.2917  0.2454
12046WAT      O48889   6.148   8.022   0.033  1.0159 -0.0260 -0.4162
12046WAT     H148890   6.158   7.937   0.050 -0.0869  0.3193  2.7156
12046WAT     H248891   6.088   8.024  -0.030 -0.9022 -1.6700  1.1975
12046WAT    EPW48892   6.140   8.010   0.026 -0.0759 -0.5214 -0.7253
12047WAT      O48893   3.411   7.681   2.080  0.1624  0.1870 -0.1359
12047WAT     H148894   3.430   7.725   2.153  1.4097 -0.4011 -0.0802
12047WAT     H248895   3.397   7.599   2.109 -1.3379  0.3497 -0.3307
12047WAT    EPW48896   3.412   7.675   2.095  0.1586 -0.1835  0.2493
12048WAT      O48897   3.363   2.053   4.319 -0.5871  0.2746 -0.0671
12048WAT     H148898   3.389   2.136   4.310  2.0079 -0.5251 -0.5881
12048WAT     H248899   3.384   2.016   4.243 -3.9129 -0.4192 -0.8151
12048WAT    EPW48900   3.370   2.060   4.306  0.5955  0.2671  0.1956
12049WAT      O48901   2.766   0.049   7.363 -0.3731  0.2067 -0.1912
12049WAT     H148902   2.730  -0.028   7.385 -2.7490  1.3952  0.4362
12049WAT     H248903   2.760   0.096   7.436  2.1851  0.6726 -0.2040
12049WAT    EPW48904   2.760   0.044   7.377  0.0546  0.9478 -0.3106
12050WAT      O48905   3.414   0.999   7.942 -0.1967  0.3387 -0.2601
12050WAT     H148906   3.482   1.016   7.994  0.8601 -2.9479 -0.2908
12050WAT     H248907   3.352   1.053   7.970  1.6691  1.7422  1.4381
12050WAT    EPW48908   3.414   1.009   7.954  0.6481 -0.1910 -0.5307
12051WAT      O48909   3.743   7.674   2.089 -0.0886 -0.3504 -0.9058
12051WAT     H148910   3.736   7.621   2.020 -3.1736  0.8955 -1.7140
12051WAT     H248911   3.713   7.626   2.156  1.4397 -1.0361 -0.6648
12051WAT    EPW48912   3.737   7.659   2.089 -0.3159  0.2246 -0.6859
12052WAT      O48913   2.991   1.315   4.463  0.0144 -0.1345 -0.0095
12052WAT     H148914   2.915   1.307   4.506  0.8329 -0.8924  1.3738
12052WAT     H248915   2.984   1.391   4.422 -1.0247  0.3730  1.0701
12052WAT    EPW48916   2.979   1.325   4.463  0.4670  0.2872 -0.2924
12053WAT      O48917   4.112   0.442   1.179  0.0270  0.2337 -0.4517
12053WAT     H148918   4.190   0.480   1.168  0.0947  0.2699  0.1117
12053WAT     H248919   4.127   0.359   1.154  0.9037 -0.3763  1.8255
12053WAT    EPW48920   4.126   0.435   1.174 -0.5518 -0.1798 -0.0687
12054WAT      O48921   4.003   6.030   7.068 -0.2771  0.6602 -0.3635
12054WAT     H148922   4.018   6.009   6.985 -2.9847  0.9136 -1.0079
12054WAT     H248923   3.969   6.111   7.063 -0.5887  0.6437  0.9727
12054WAT    EPW48924   4.000   6.039   7.055 -0.3956  0.4296 -0.1779
12055WAT      O48925   1.525   0.561   0.504  0.0608  0.6646 -0.1147
12055WAT     H148926   1.480   0.547   0.578 -2.1464 -0.3820 -1.5643
12055WAT     H248927   1.608   0.549   0.528 -0.5583  0.5292  2.2120
12055WAT    EPW48928   1.530   0.557   0.519 -0.2327  0.3151 -0.3324
12056WAT      O48929   7.457   7.068   2.509 -0.0094 -0.5750 -0.1283
12056WAT     H148930   7.441   6.983   2.497 -0.6998 -0.3642 -0.7494
12056WAT     H248931   7.382   7.099   2.540 -0.0901 -0.0046 -0.8764
12056WAT    EPW48932   7.444   7.060   2.512  0.0631  0.2065 -0.2226
12057WAT      O48933   1.881   0.445   6.780  0.3292  0.5062 -0.2362
12057WAT     H148934   1.877   0.408   6.859  0.5349  1.1034  0.0578
12057WAT     H248935   1.907   0.380   6.729  1.2118  0.3715  0.3599
12057WAT    EPW48936   1.884   0.430   6.784 -0.3453  0.1194  0.1087
12058WAT      O48937   4.996   6.798   0.298  0.4253 -0.0541  0.2797
12058WAT     H148938   5.038   6.868   0.269 -1.6513  0.8798 -0.6579
12058WAT     H248939   4.962   6.824   0.374  0.1163 -0.2184  0.2015
12058WAT    EPW48940   4.997   6.812   0.305 -0.4532 -0.3861  0.1090
12059WAT      O48941   3.747   7.208   1.725 -0.1807  0.6605 -0.3195
12059WAT     H148942   3.824   7.175   1.702 -1.0204 -0.2390 -2.0636
12059WAT     H248943   3.740   7.187   1.810  1.5702  1.0177 -0.0451
12059WAT    EPW48944   3.757   7.200   1.735  0.0253  0.1714  0.0049
12060WAT      O48945   1.828   7.854   5.340  0.3826  0.4681  0.5670
12060WAT     H148946   1.832   7.768   5.353 -1.6780  0.0472 -0.9791
12060WAT     H248947   1.847   7.888   5.418 -1.8440 -1.5075  2.1237
12060WAT    EPW48948   1.831   7.846   5.353 -0.0777 -0.0676 -0.2740
12061WAT      O48949   4.404   4.551   1.596 -0.1919  0.2846  0.1088
12061WAT     H148950   4.351   4.549   1.664 -0.0478 -2.8807  0.2457
12061WAT     H248951   4.482   4.569   1.631  0.0759 -2.3002  1.0515
12061WAT    EPW48952   4.408   4.554   1.611  0.2606  0.0859 -0.7662
12062WAT      O48953   7.939   0.339   2.323 -0.1261  0.2014 -0.0648
12062WAT     H148954   8.024   0.333   2.340  0.2486  2.8729 -0.5431
12062WAT     H248955   7.915   0.411   2.365 -2.2275 -0.6024  0.2261
12062WAT    EPW48956   7.948   0.349   2.331  0.2683  0.6011 -0.5681
12063WAT      O48957   7.997   1.186   0.167  0.2365 -0.0999  0.8035
12063WAT     H148958   8.052   1.245   0.133  0.2652 -1.0490 -0.9444
12063WAT     H248959   7.990   1.210   0.250  2.1714  0.8923  0.7422
12063WAT    EPW48960   8.004   1.198   0.174 -0.3018 -0.1408 -0.5273
12064WAT      O48961   1.627   7.498   3.951  0.3886  0.3319 -0.0014
12064WAT     H148962   1.565   7.547   3.914  0.0894 -0.3726 -0.4592
12064WAT     H248963   1.587   7.461   4.019  0.5298  0.4794  0.1645
12064WAT    EPW48964   1.612   7.500   3.955 -0.5724  0.4179 -0.2583
12065WAT      O48965   1.543   4.731   6.698 -0.0747  0.3627 -0.3918
12065WAT     H148966   1.542   4.790   6.763  1.5512  0.3082 -0.2810
12065WAT     H248967   1.617   4.686   6.712 -0.1200 -0.1966 -1.8118
12065WAT    EPW48968   1.553   4.733   6.710  0.2632  0.0418 -0.2266
12066WAT      O48969   0.361   4.041   4.502  0.8333  0.1790 -0.5794
12066WAT     H148970   0.403   3.993   4.562  2.5203  2.4274  0.1792
12066WAT     H248971   0.415   4.039   4.433  1.2391  1.4138 -0.3244
12066WAT    EPW48972   0.375   4.034   4.501 -0.8957  0.1927  0.2041
12067WAT      O48973   2.905   2.376   7.579  0.0841  0.1165 -0.3152
12067WAT     H148974   2.880   2.316   7.637  1.0366 -1.5839 -1.5722
12067WAT     H248975   2.836   2.430   7.575 -0.3375 -0.1639  1.7232
12067WAT    EPW48976   2.891   2.376   7.587 -0.0729  0.0573  0.8098
12068WAT      O48977   7.475   2.020   0.956  0.1868 -0.3799  0.5274
12068WAT     H148978   7.405   2.017   0.905 -0.7968  1.3668  1.6588
12068WAT     H248979   7.445   1.989   1.033  0.5882  0.5367  1.0671
12068WAT    EPW48980   7.460   2.015   0.960 -0.6690 -0.2871  0.3388
12069WAT      O48981   7.131   4.273   3.356 -0.1786 -0.3642 -0.1451
12069WAT     H148982   7.144   4.359   3.351  0.5677 -0.4405  0.3791
12069WAT     H248983   7.181   4.248   3.424 -0.2889 -1.2264 -0.3673
12069WAT    EPW48984   7.140   4.282   3.366 -0.1976 -0.5779  0.6157
12070WAT      O48985   7.669   2.260   3.840  0.0201 -0.0880  0.0077
12070WAT     H148986   7.715   2.231   3.771  1.5797 -0.4887  1.1421
12070WAT     H248987   7.593   2.219   3.833  1.0827 -2.1867 -0.1097
12070WAT    EPW48988   7.665   2.250   3.829  0.0756 -0.3420  0.3695
12071WAT      O48989   4.948   0.599   0.439  0.1691 -0.1059 -0.3954
12071WAT     H148990   4.899   0.661   0.403  0.3743 -0.1445 -0.7475
12071WAT     H248991   4.903   0.526   0.426 -2.0039  0.3212  3.3599
12071WAT    EPW48992   4.934   0.597   0.432  0.0470 -0.5868 -0.7888
12072WAT      O48993   2.530   3.780   2.612  0.3053 -0.3499  0.3053
12072WAT     H148994   2.601   3.814   2.649 -0.2979  0.8221  0.4412
12072WAT     H248995   2.562   3.728   2.550  1.3487 -2.1699  2.2493
12072WAT    EPW48996   2.545   3.778   2.608  0.0751 -0.8058 -0.0922
12073WAT      O48997   1.978   2.075   3.219 -0.0824  0.0293  0.5797
12073WAT     H148998   1.933   2.113   3.155  1.7111 -0.0352 -0.7985
12073WAT     H248999   2.057   2.111   3.213 -0.0866  0.7608  3.4403
12073WAT    EPW49000   1.983   2.086   3.209 -0.9481  0.8062 -0.7330
12074WAT      O49001   6.037   0.863   2.239  0.0088  0.3767  0.5717
12074WAT     H149002   5.971   0.913   2.267 -1.4771 -1.4434  0.4820
12074WAT     H249003   6.072   0.833   2.313 -0.6191 -0.3310  0.5853
12074WAT    EPW49004   6.033   0.866   2.254  1.2182 -0.2368 -0.1303
12075WAT      O49005   1.955   2.176   6.956  0.0522  0.0827 -0.0017
12075WAT     H149006   1.903   2.145   6.893 -0.0366  0.7465 -0.2645
12075WAT     H249007   2.002   2.237   6.915 -0.6590  1.1834  0.7666
12075WAT    EPW49008   1.954   2.181   6.940 -0.2835  0.0523  0.3517
12076WAT      O49009   8.008   7.655   0.941 -0.3125  0.1540  0.0040
12076WAT     H149010   7.982   7.662   1.024  0.0503 -2.0044  0.3622
12076WAT     H249011   8.060   7.584   0.942  1.7635  1.5379 -1.5765
12076WAT    EPW49012   8.012   7.645   0.954  0.0219 -0.1671  0.1603
12077WAT      O49013   2.128   4.806   4.427 -0.0245 -0.5043  0.3759
12077WAT     H149014   2.113   4.882   4.468  0.2574  0.9321 -1.9916
12077WAT     H249015   2.180   4.763   4.481 -0.3284  0.9067  1.8707
12077WAT    EPW49016   2.133   4.811   4.441 -0.2194  0.2329  0.5736
12078WAT      O49017   2.672   1.631   5.130 -0.3742 -0.6829  0.4374
12078WAT     H149018   2.602   1.647   5.179 -0.0830  1.7713  0.1745
12078WAT     H249019   2.650   1.561   5.084 -1.6991 -1.4088  2.0946
12078WAT    EPW49020   2.659   1.623   5.130  0.6484 -0.2249  0.2645
12079WAT      O49021   7.989   7.851   1.678  0.4730  0.5427  0.0166
12079WAT     H149022   8.029   7.778   1.704  0.4179  0.5384  0.0893
12079WAT     H249023   7.904   7.829   1.677  0.5719  0.0595 -1.6866
12079WAT    EPW49024   7.982   7.837   1.682  0.3256  0.0693  0.7226
12080WAT      O49025   5.104   0.382   6.693  0.0354 -0.3316  0.1687
12080WAT     H149026   5.188   0.406   6.691 -0.1700  0.4279 -2.0310
12080WAT     H249027   5.107   0.295   6.691  0.7532 -0.3364  0.8680
12080WAT    EPW49028   5.117   0.373   6.693 -0.7023 -0.2460  0.3871
12081WAT      O49029   2.069   2.824   7.415 -0.1073 -0.3832 -0.1015
12081WAT     H149030   2.117   2.863   7.477  2.5001 -2.5692 -0.5466
12081WAT     H249031   2.026   2.762   7.460 -2.9693  1.7664  0.3475
12081WAT    EPW49032   2.070   2.820   7.431 -0.1614 -0.3134 -0.4429
12082WAT      O49033   0.173   0.425   1.093  0.1390 -0.3437  0.3200
12082WAT     H149034   0.086   0.434   1.092  0.1797  0.2222 -1.7984
12082WAT     H249035   0.186   0.362   1.153 -1.5286  1.0046  2.2606
12082WAT    EPW49036   0.162   0.417   1.102  0.4185 -0.0576  0.4927
12083WAT      O49037   1.281   0.634   5.306  0.3831 -0.6995  0.4319
12083WAT     H149038   1.223   0.613   5.368 -2.8707  1.1485 -1.6512
12083WAT     H249039   1.327   0.699   5.342 -0.9886 -0.0933  1.1869
12083WAT    EPW49040   1.279   0.640   5.320 -0.6189  0.4364  0.1687
12084WAT      O49041   2.554   7.160   2.540  0.0125  0.4521 -0.4567
12084WAT     H149042   2.607   7.131   2.603 -0.7903 -1.0761 -0.4353
12084WAT     H249043   2.607   7.176   2.473  0.6261 -0.0010 -0.0846
12084WAT    EPW49044   2.570   7.158   2.540  0.5684  0.7666  0.0567
12085WAT      O49045   4.844   6.106   0.316  0.1720 -0.1572 -0.2995
12085WAT     H149046   4.794   6.039   0.291  0.1675 -0.9740  1.6646
12085WAT     H249047   4.895   6.071   0.378  0.6377  1.5109  0.3125
12085WAT    EPW49048   4.844   6.091   0.322 -0.4219  0.0373 -0.7687
12086WAT      O49049   7.054   5.926   3.096 -0.4402 -0.1975 -0.2390
12086WAT     H149050   7.117   5.906   3.039  0.1198 -1.3312  0.7266
12086WAT     H249051   6.981   5.900   3.055  0.0794 -2.3073  0.0735
12086WAT    EPW49052   7.053   5.919   3.081  0.7536 -0.3763 -0.4030
12087WAT      O49053   1.855   2.611   0.853 -0.0297 -0.4215 -0.5027
12087WAT     H149054   1.896   2.540   0.822  1.4837 -0.5156  1.4998
12087WAT     H249055   1.902   2.677   0.819  0.6457 -0.4887  0.2649
12087WAT    EPW49056   1.868   2.610   0.843  0.1514  0.0938 -0.0118
12088WAT      O49057   0.353   7.569   3.082  0.5031 -0.6021 -0.1001
12088WAT     H149058   0.277   7.542   3.116 -0.7057  2.1762 -0.3795
12088WAT     H249059   0.330   7.597   3.003  1.8064  0.4064 -0.1361
12088WAT    EPW49060   0.338   7.569   3.075  0.1129 -0.5275 -0.4978
12089WAT      O49061   2.692   5.811   4.184 -0.4441  0.2795 -0.0141
12089WAT     H149062   2.697   5.724   4.179  0.4194  0.1376  2.1734
12089WAT     H249063   2.623   5.826   4.234  0.5933  0.7111  1.3698
12089WAT    EPW49064   2.683   5.801   4.190  0.4101 -0.7615  0.0288
12090WAT      O49065   1.134   1.125   7.961 -0.7042  0.6235 -0.2499
12090WAT     H149066   1.151   1.104   7.877  0.3917 -0.5151  0.2193
12090WAT     H249067   1.202   1.090   8.004 -0.8125  1.9292  1.0333
12090WAT    EPW49068   1.147   1.117   7.955 -0.2170 -0.2661 -0.3156
12091WAT      O49069   2.790   2.891   1.978  0.1871 -0.1674 -0.0860
12091WAT     H149070   2.762   2.944   1.914 -1.2221 -1.3811 -0.5371
12091WAT     H249071   2.836   2.831   1.936 -1.1574 -1.2551 -0.0905
12091WAT    EPW49072   2.792   2.890   1.962 -0.1290 -0.0304  0.2687
12092WAT      O49073   4.032   2.158   4.435 -0.6842  0.5402 -0.0282
12092WAT     H149074   4.118   2.168   4.422 -0.9880  1.5416 -1.5382
12092WAT     H249075   4.010   2.231   4.477 -0.8962  0.6336 -0.2964
12092WAT    EPW49076   4.042   2.170   4.439 -0.0745 -0.4057 -0.3304
12093WAT      O49077   4.553   0.593   5.996  0.6688 -0.1939  1.0473
12093WAT     H149078   4.541   0.678   5.984  0.8920 -0.4819 -2.0251
12093WAT     H249079   4.640   0.584   5.994  0.6436 -0.7887 -2.4281
12093WAT    EPW49080   4.564   0.604   5.994  0.7277  0.0081  0.4005
12094WAT      O49081   0.523   4.614   0.423  0.4347 -0.0846 -0.4017
12094WAT     H149082   0.456   4.573   0.384 -1.2165  0.6164  1.5287
12094WAT     H249083   0.502   4.698   0.416  1.7164  0.2302 -0.7437
12094WAT    EPW49084   0.510   4.620   0.416  0.3316 -0.2981 -0.1271
12095WAT      O49085   3.114   1.990   3.965  0.0053 -0.6209  0.5166
12095WAT     H149086   3.173   1.949   3.915  0.3757 -0.0997  0.5221
12095WAT     H249087   3.156   2.060   3.994 -1.0556  0.5620 -0.6531
12095WAT    EPW49088   3.129   1.994   3.962 -0.0472 -0.0082 -0.2629
12096WAT      O49089   2.526   7.108   2.141  0.1476  0.1913  0.1075
12096WAT     H149090   2.459   7.159   2.116  0.2820  0.6173  0.5974
12096WAT     H249091   2.517   7.037   2.091 -0.4912  0.3758 -0.0532
12096WAT    EPW49092   2.514   7.105   2.130  0.4517 -0.2363 -0.2477
12097WAT      O49093   1.493   1.514   2.894 -0.3835  0.0953  0.4646
12097WAT     H149094   1.476   1.498   2.810 -0.2270  0.2078  0.4111
12097WAT     H249095   1.532   1.442   2.923 -1.8038 -0.5587  0.8377
12097WAT    EPW49096   1.496   1.501   2.886 -0.1250 -0.0743 -0.1562
12098WAT      O49097   0.175   0.417   3.134 -0.8100  0.6184  0.1381
12098WAT     H149098   0.110   0.475   3.141 -0.5457  1.2179 -1.7089
12098WAT     H249099   0.238   0.463   3.095 -0.3833 -0.7448 -0.8394
12098WAT    EPW49100   0.175   0.432   3.129  0.0516 -0.0319  0.1610
12099WAT      O49101   1.551   7.689   0.850  0.1833  0.0475 -0.0642
12099WAT     H149102   1.481   7.741   0.857  0.9665  0.9062  2.6139
12099WAT     H249103   1.537   7.628   0.911  1.4482 -0.1065  0.0981
12099WAT    EPW49104   1.539   7.688   0.860  0.1466 -0.1617  0.7551
12100WAT      O49105   1.551   3.130   1.642  0.0324  0.1580  0.4090
12100WAT     H149106   1.584   3.171   1.572 -0.1541 -0.1195  0.1546
12100WAT     H249107   1.525   3.053   1.610 -1.7775  0.7384  0.3542
12100WAT    EPW49108   1.552   3.125   1.627  0.6466  0.1453  0.1089
12101WAT      O49109   3.326   1.628   0.576 -0.1199  0.3480 -0.3277
12101WAT     H149110   3.360   1.707   0.589  0.5891  0.3185 -1.8033
12101WAT     H249111   3.240   1.642   0.573  0.0182  1.1395 -0.9209
12101WAT    EPW49112   3.319   1.642   0.577  0.4575 -0.0623  0.2360
12102WAT      O49113   2.234   0.554   6.928 -0.3199  0.4028  0.2450
12102WAT     H149114   2.291   0.614   6.899 -1.4337  1.0816 -0.6200
12102WAT     H249115   2.282   0.481   6.934  0.4679  0.7680 -1.2240
12102WAT    EPW49116   2.249   0.552   6.925 -0.5183  0.1027 -0.1138
12103WAT      O49117   3.500   5.481   2.651  0.1701 -0.3941  0.7564
12103WAT     H149118   3.575   5.484   2.608 -0.1371  3.3875  0.1376
12103WAT     H249119   3.500   5.554   2.699 -2.7198 -0.6504  1.3660
12103WAT    EPW49120   3.511   5.492   2.651  0.2218 -0.0120  0.6807
12104WAT      O49121   6.424   7.262   2.874 -0.1321 -0.1769 -0.7826
12104WAT     H149122   6.370   7.196   2.893 -0.9177  0.6732  0.0398
12104WAT     H249123   6.488   7.224   2.829 -0.0598 -1.6926  0.5096
12104WAT    EPW49124   6.426   7.247   2.870 -0.0313  0.4601 -0.1667
12105WAT      O49125   2.517   3.312   7.728  0.0044  0.3350  0.3794
12105WAT     H149126   2.478   3.353   7.662 -1.2548 -0.4016  0.6402
12105WAT     H249127   2.600   3.303   7.701 -0.2295  1.0381 -0.6084
12105WAT    EPW49128   2.524   3.316   7.714  0.2876  0.3154  0.0525
12106WAT      O49129   0.508   7.274   3.496 -0.5013 -0.3838 -0.4118
12106WAT     H149130   0.542   7.349   3.524  0.4279 -0.7174 -0.6016
12106WAT     H249131   0.423   7.292   3.485  0.0600  1.3066 -2.6632
12106WAT    EPW49132   0.500   7.287   3.498 -0.8147 -0.2216  0.8132
12107WAT      O49133   1.680   6.912   4.836 -0.0611  0.3765 -0.1282
12107WAT     H149134   1.684   6.974   4.775  1.2639  1.5854  1.1042
12107WAT     H249135   1.755   6.922   4.881 -0.4567 -1.2041  0.9785
12107WAT    EPW49136   1.692   6.923   4.834 -0.7204 -0.1891 -0.4881
12108WAT      O49137   6.686   0.473   3.586  0.0609  0.2252  0.1644
12108WAT     H149138   6.604   0.452   3.569  0.4505 -1.3102  0.0359
12108WAT     H249139   6.726   0.464   3.509  0.2259  1.6984  0.0557
12108WAT    EPW49140   6.680   0.468   3.572  0.7285  1.0435  0.4019
12109WAT      O49141   7.451   0.054   0.840  0.3481  0.1561  0.1857
12109WAT     H149142   7.485   0.015   0.770 -2.9809 -0.7563 -1.1123
12109WAT     H249143   7.521   0.084   0.883  2.8469 -2.9971 -1.2615
12109WAT    EPW49144   7.467   0.053   0.836  0.1720 -0.3463  0.2019
12110WAT      O49145   1.664   5.444   0.327  0.2337 -0.0320 -0.3944
12110WAT     H149146   1.639   5.480   0.251  0.0767  1.4291  0.3209
12110WAT     H249147   1.750   5.433   0.317  0.5012  1.6925 -0.2074
12110WAT    EPW49148   1.673   5.447   0.314 -0.2271 -0.3115  0.0524
12111WAT      O49149   3.659   7.762   3.582 -0.6521  0.3886  0.1509
12111WAT     H149150   3.667   7.841   3.618  1.2096 -0.2045  1.1433
12111WAT     H249151   3.730   7.755   3.532 -0.0041 -1.2409  1.2604
12111WAT    EPW49152   3.671   7.773   3.580  0.3086  0.1048 -0.1599
12112WAT      O49153   2.628   0.612   0.508  0.0362  0.4657 -0.2790
12112WAT     H149154   2.654   0.556   0.570 -0.8607 -0.4272 -0.7088
12112WAT     H249155   2.697   0.616   0.455  0.1140 -0.2008 -0.2339
12112WAT    EPW49156   2.642   0.604   0.510 -0.0373 -0.3470 -0.4773
12113WAT      O49157   1.752   8.007   1.261  0.0482  0.3392 -0.2585
12113WAT     H149158   1.800   7.987   1.191  1.1594 -3.0107  1.2319
12113WAT     H249159   1.674   7.971   1.244 -0.6799  2.1238 -0.9251
12113WAT    EPW49160   1.747   7.999   1.249  0.3265  0.0540  0.3224
12114WAT      O49161   1.851   1.755   1.498 -0.0194 -0.1305 -0.1061
12114WAT     H149162   1.781   1.782   1.543  0.2446 -0.7656  0.7064
12114WAT     H249163   1.826   1.764   1.415 -0.9089  0.0683  0.1673
12114WAT    EPW49164   1.837   1.760   1.492 -0.6242 -0.3448  0.2797
12115WAT      O49165   4.012   3.768   0.391  0.2052  0.2328 -0.2757
12115WAT     H149166   3.925   3.777   0.393  0.2017  2.0530 -3.1002
12115WAT     H249167   4.041   3.845   0.418  0.8643  0.5375 -1.7968
12115WAT    EPW49168   4.004   3.780   0.396 -0.1288 -0.3941 -0.4173
12116WAT      O49169   2.874   4.933   7.103  0.0859 -0.5015  0.1417
12116WAT     H149170   2.940   4.889   7.139  1.3903  1.6351  0.5870
12116WAT     H249171   2.904   4.953   7.024 -0.6205 -0.7316 -0.1837
12116WAT    EPW49172   2.888   4.930   7.097 -0.1342 -0.4146  0.3118
12117WAT      O49173   4.058   6.633   3.492 -0.3611 -0.5546 -0.7940
12117WAT     H149174   4.131   6.586   3.481  0.0758 -0.0499 -0.1462
12117WAT     H249175   4.051   6.640   3.579 -1.2851 -0.7499 -0.8520
12117WAT    EPW49176   4.068   6.627   3.503 -0.4420  0.7812  0.0745
12118WAT      O49177   6.210   8.001   0.643 -0.4280  0.3267 -0.5572
12118WAT     H149178   6.165   8.008   0.569  0.2507  0.9157 -0.9230
12118WAT     H249179   6.184   7.924   0.675 -0.0487 -0.3775 -1.8611
12118WAT    EPW49180   6.199   7.991   0.637  0.2583 -0.1259 -0.7238
12119WAT      O49181   4.630   1.252   1.987  0.1839 -0.2641 -0.1152
12119WAT     H149182   4.677   1.324   1.969 -0.5539  0.1427 -0.4468
12119WAT     H249183   4.596   1.269   2.066  0.6943 -0.6210  0.1901
12119WAT    EPW49184   4.632   1.265   1.996  0.5872 -0.1817 -0.1590
12120WAT      O49185   4.937   3.517   0.793  0.8139 -0.2785 -0.2406
12120WAT     H149186   4.883   3.451   0.811  2.4764 -1.2295  1.5824
12120WAT     H249187   4.953   3.507   0.707  2.4535 -3.5126  0.2608
12120WAT    EPW49188   4.932   3.506   0.783 -0.2468  0.2620 -0.0550
12121WAT      O49189   2.472   5.745   1.819  0.6452  0.4428  0.1743
12121WAT     H149190   2.505   5.667   1.843  2.6043  0.7705 -1.2261
12121WAT     H249191   2.538   5.800   1.835 -0.6013  1.7954  0.8214
12121WAT    EPW49192   2.487   5.742   1.825 -0.1601  0.1638 -0.0821
12122WAT      O49193   1.982   2.146   8.057 -0.4058 -0.3407  0.3868
12122WAT     H149194   1.968   2.072   8.013  2.5261 -0.3298 -0.7569
12122WAT     H249195   2.031   2.194   8.003 -0.9222  1.8548  1.7071
12122WAT    EPW49196   1.987   2.142   8.042  0.4639  0.1440  0.4593
12123WAT      O49197   7.562   7.219   1.937  0.0155 -0.0311  0.7740
12123WAT     H149198   7.605   7.284   1.975  0.3225  0.3798 -0.2554
12123WAT     H249199   7.604   7.148   1.965  0.1669  0.2528  1.2812
12123WAT    EPW49200   7.575   7.218   1.947  0.2341 -0.3215 -0.4536
12124WAT      O49201   2.572   3.847   5.065 -0.5213 -0.1195  0.2307
12124WAT     H149202   2.590   3.914   5.012  0.3026 -0.4278  0.1084
12124WAT     H249203   2.637   3.848   5.123 -0.2549 -1.0667 -0.0295
12124WAT    EPW49204   2.584   3.857   5.065  0.1753 -0.7974 -0.0053
12125WAT      O49205   4.080   7.569   1.177  0.4752  0.3558  0.0449
12125WAT     H149206   4.137   7.632   1.155  1.0429 -0.5259 -1.1189
12125WAT     H249207   4.085   7.513   1.110 -0.5085 -0.5965  0.7436
12125WAT    EPW49208   4.089   7.570   1.164 -0.0262 -0.2458 -0.0504
12126WAT      O49209   0.132   3.942   1.540 -0.1061 -0.6383 -0.2395
12126WAT     H149210   0.124   3.979   1.462  1.6258  0.4040  0.0365
12126WAT     H249211   0.134   4.010   1.595  2.2142 -1.1144  0.3670
12126WAT    EPW49212   0.131   3.957   1.537 -0.5197  0.0631  0.1458
12127WAT      O49213   1.991   0.917   6.986 -0.0502  0.3153  0.0445
12127WAT     H149214   1.943   0.936   7.056  1.4602 -1.5167  1.6649
12127WAT     H249215   1.996   0.830   6.987  0.3307  0.2398 -2.1604
12127WAT    EPW49216   1.984   0.907   6.996  0.5382  0.6059  0.8325
12128WAT      O49217   1.319   3.782   2.779 -0.0871  0.2931  0.0745
12128WAT     H149218   1.311   3.706   2.736  2.0373  0.3584 -0.5989
12128WAT     H249219   1.339   3.758   2.860  2.8209 -0.0087 -0.6217
12128WAT    EPW49220   1.321   3.767   2.784  0.0092  0.3115  0.2437
12129WAT      O49221   6.696   5.319   1.779 -0.1021  0.0505 -0.1865
12129WAT     H149222   6.761   5.331   1.836 -0.6397  0.4183  0.3627
12129WAT     H249223   6.657   5.247   1.807 -1.0469  0.8346  0.6005
12129WAT    EPW49224   6.700   5.310   1.792 -0.4153  0.0443 -0.3005
12130WAT      O49225   2.271   6.186   0.024 -0.0923 -0.2477 -0.0042
12130WAT     H149226   2.224   6.257   0.044  0.0683 -0.0509 -0.3136
12130WAT     H249227   2.262   6.180  -0.063  0.4396 -0.2185 -0.0623
12130WAT    EPW49228   2.263   6.196   0.014  0.0478 -0.2357  0.2600
12131WAT      O49229   8.008   3.031   0.105  0.0848  0.4437 -0.4657
12131WAT     H149230   8.055   2.991   0.167  1.4043 -0.1696 -1.7956
12131WAT     H249231   8.066   3.085   0.068 -0.1037 -0.6018 -2.4090
12131WAT    EPW49232   8.024   3.033   0.109 -0.0274  0.5062 -0.1337
12132WAT      O49233   4.463   2.292   6.221 -0.1298 -0.7047  0.0570
12132WAT     H149234   4.399   2.241   6.192 -0.2048 -1.6680  1.8149
12132WAT     H249235   4.497   2.326   6.148 -0.8236 -2.3594 -1.0900
12132WAT    EPW49236   4.459   2.290   6.206 -0.6199 -0.5099 -0.1445
12133WAT      O49237   0.253   6.750   3.811 -0.0724  0.2018 -0.1653
12133WAT     H149238   0.233   6.676   3.768 -1.2659  1.8144 -2.6035
12133WAT     H249239   0.186   6.803   3.793 -0.3775  1.2604  3.3650
12133WAT    EPW49240   0.240   6.747   3.802 -0.3920  0.5698 -0.1102
12134WAT      O49241   0.151   0.171   3.007  0.4641 -0.1933 -0.0155
12134WAT     H149242   0.162   0.122   3.079  1.3514 -0.3541 -0.2475
12134WAT     H249243   0.142   0.252   3.038 -1.1933 -0.4959  0.3837
12134WAT    EPW49244   0.151   0.176   3.022  0.3732  0.0431 -0.4558
12135WAT      O49245   7.887   0.080   2.996  0.5527  0.1594 -0.0501
12135WAT     H149246   7.813   0.091   2.952  0.4004 -2.5693 -0.6342
12135WAT     H249247   7.940   0.042   2.938  2.2447  1.4970  0.5329
12135WAT    EPW49248   7.884   0.076   2.981  0.4519  0.4153  0.4988
12136WAT      O49249   4.738   6.983   7.218  0.1042 -0.8418  0.1384
12136WAT     H149250   4.758   6.948   7.141  0.6477 -1.6823  0.6461
12136WAT     H249251   4.702   7.060   7.197 -0.9754 -1.6106 -1.0161
12136WAT    EPW49252   4.735   6.989   7.204  0.7384  0.1404  0.6654
12137WAT      O49253   0.679   5.724   2.820 -0.1131 -0.1586  0.1103
12137WAT     H149254   0.742   5.699   2.765  0.1236  0.3642  0.1351
12137WAT     H249255   0.652   5.800   2.788  0.4129  0.4313  1.0108
12137WAT    EPW49256   0.684   5.731   2.807 -0.1817 -0.6601 -0.4176
12138WAT      O49257   3.947   6.810   6.969 -0.2205 -0.2534  0.3053
12138WAT     H149258   3.950   6.897   6.978 -1.2702 -0.2907  1.4651
12138WAT     H249259   4.029   6.785   6.981 -0.2073  0.4571  2.0288
12138WAT    EPW49260   3.959   6.819   6.972 -0.1992 -0.3068  0.2637
12139WAT      O49261   3.248   0.636   0.678 -0.2662  0.1064 -0.1310
12139WAT     H149262   3.189   0.642   0.742  0.8727  0.1147  0.9370
12139WAT     H249263   3.311   0.690   0.703 -0.0513  0.5516 -1.5608
12139WAT    EPW49264   3.248   0.645   0.691 -0.3068 -0.1523 -0.3015
12140WAT      O49265   2.955   7.956   6.720 -0.2926 -0.1938 -0.1353
12140WAT     H149266   2.891   8.015   6.720  0.8048  1.0720 -1.1003
12140WAT     H249267   3.025   8.002   6.744 -0.0651 -2.0414  3.3981
12140WAT    EPW49268   2.956   7.971   6.723  0.0589 -0.6133 -0.0550
12141WAT      O49269   1.494   0.711   7.690 -0.0426 -0.4627 -0.6470
12141WAT     H149270   1.511   0.778   7.637  0.8637 -0.2378 -0.0830
12141WAT     H249271   1.521   0.642   7.644 -1.2632 -0.4921 -1.3568
12141WAT    EPW49272   1.501   0.711   7.675  0.0175  0.4278 -0.0654
12142WAT      O49273   4.307   6.705   5.410 -0.1077  0.2941 -0.5059
12142WAT     H149274   4.276   6.651   5.349  1.1234  0.1872 -1.0670
12142WAT     H249275   4.255   6.775   5.405 -2.5783 -1.2861  1.1259
12142WAT    EPW49276   4.295   6.707   5.400 -0.3084 -0.2840  0.0729
12143WAT      O49277   0.823   7.705   0.663 -0.2182  0.1223 -0.5278
12143WAT     H149278   0.895   7.673   0.702 -0.4568  0.0962 -0.1104
12143WAT     H249279   0.833   7.791   0.668 -0.3801  0.1200 -0.1659
12143WAT    EPW49280   0.835   7.713   0.669 -0.2287 -0.0591  0.2202
12144WAT      O49281   2.411   3.722   7.413  0.2993  0.3235  0.3624
12144WAT     H149282   2.380   3.773   7.349  1.2142  0.3899 -0.0437
12144WAT     H249283   2.340   3.683   7.444 -0.3623  1.5215  0.3909
12144WAT    EPW49284   2.396   3.724   7.408 -0.4695  0.2652 -0.4173
12145WAT      O49285   1.136   1.528   3.596 -0.3676 -0.5139 -0.0308
12145WAT     H149286   1.125   1.452   3.637 -0.4722 -1.2219 -1.3330
12145WAT     H249287   1.194   1.570   3.646  0.0646 -1.6433  0.4463
12145WAT    EPW49288   1.143   1.523   3.610  0.5333 -0.3290 -0.2493
12146WAT      O49289   2.863   7.461   3.924 -0.1104 -0.3707  0.3840
12146WAT     H149290   2.886   7.461   3.840  2.0440 -1.2055  0.9079
12146WAT     H249291   2.794   7.514   3.926  0.9376  1.2089 -1.6015
12146WAT    EPW49292   2.856   7.469   3.912  0.0596  0.0640 -0.7769
12147WAT      O49293   2.851   2.090   1.155 -0.0190  0.8084 -0.0429
12147WAT     H149294   2.807   2.064   1.226 -0.6603  0.9020 -0.4068
12147WAT     H249295   2.840   2.176   1.154 -1.9053  0.5998 -1.4937
12147WAT    EPW49296   2.843   2.099   1.166  0.0039  0.4595  0.3026
12148WAT      O49297   3.811   1.636   1.289 -0.0442 -0.1024  0.3254
12148WAT     H149298   3.763   1.661   1.220  0.3186  0.4592  0.2771
12148WAT     H249299   3.761   1.658   1.357 -0.4208 -0.6927  0.2597
12148WAT    EPW49300   3.796   1.643   1.289 -0.0321  0.5001 -0.2606
12149WAT      O49301   0.940   7.806   2.148  0.1023  0.2025 -0.4608
12149WAT     H149302   1.010   7.763   2.119 -1.1721 -1.9881 -0.4615
12149WAT     H249303   0.873   7.767   2.108 -1.1560  2.5341 -0.8489
12149WAT    EPW49304   0.940   7.794   2.138  0.3632  0.2391 -0.0427
12150WAT      O49305   1.315   7.346   3.979 -0.2641  0.0045  0.2780
12150WAT     H149306   1.247   7.390   3.948 -0.3526 -0.1934  0.1903
12150WAT     H249307   1.334   7.387   4.054 -0.7086 -0.1587  0.4845
12150WAT    EPW49308   1.308   7.358   3.986  0.3440  0.4279  0.7658
12151WAT      O49309   0.606   1.447   0.401 -0.3375  1.0298 -0.0665
12151WAT     H149310   0.639   1.477   0.476 -1.9101  1.0129  0.6799
12151WAT     H249311   0.605   1.360   0.413  3.1707  0.5594 -1.7848
12151WAT    EPW49312   0.611   1.439   0.414  0.0976  0.0779  0.0076
12152WAT      O49313   5.197   6.961   5.924 -0.0872 -0.1258  0.3763
12152WAT     H149314   5.222   6.986   6.004 -1.5306  0.2788  0.7146
12152WAT     H249315   5.269   6.922   5.892  0.8295  0.5839  1.4776
12152WAT    EPW49316   5.211   6.959   5.931  0.0375 -0.0698 -0.1236
12153WAT      O49317   3.254   1.038   6.869 -0.2147  0.4258 -0.2747
12153WAT     H149318   3.303   0.968   6.850 -1.7078 -0.2741 -1.7332
12153WAT     H249319   3.240   1.076   6.792 -0.4571  1.6527  0.3495
12153WAT    EPW49320   3.259   1.033   6.855  0.0609 -0.3514 -0.4612
12154WAT      O49321   3.156   7.921   3.821 -0.0384  0.8597  0.1555
12154WAT     H149322   3.202   7.944   3.750 -1.6217  0.8431 -0.9202
12154WAT     H249323   3.081   7.890   3.788 -1.5127  2.3916  1.8831
12154WAT    EPW49324   3.152   7.920   3.806  0.3582 -0.1988  0.5415
12155WAT      O49325   4.170   7.837   4.499 -0.1019  0.3613  0.4260
12155WAT     H149326   4.199   7.874   4.571 -0.4297  1.6102 -0.0548
12155WAT     H249327   4.091   7.808   4.521  0.5355 -0.9611  1.0743
12155WAT    EPW49328   4.162   7.838   4.513  0.9350  0.2291  0.0659
12156WAT      O49329   3.124   5.461   4.348  0.1636  0.0291  0.3613
12156WAT     H149330   3.119   5.380   4.317  1.5420  0.6310 -1.6459
12156WAT     H249331   3.151   5.451   4.430 -0.5688 -1.5464  0.4372
12156WAT    EPW49332   3.127   5.448   4.355  0.3448  0.0739  0.7164
12157WAT      O49333   1.849   7.152   6.208 -0.5243  0.2998  0.6120
12157WAT     H149334   1.789   7.108   6.254 -0.7717 -0.5531 -0.4722
12157WAT     H249335   1.861   7.102   6.138 -0.5735  1.8274 -0.5350
12157WAT    EPW49336   1.842   7.138   6.204  0.4835 -0.0265 -0.6946
12158WAT      O49337   1.357   3.830   4.313  0.0031  0.1418  0.3106
12158WAT     H149338   1.273   3.852   4.308  0.6650  2.8649 -0.6263
12158WAT     H249339   1.357   3.764   4.370 -2.7796 -0.2464  0.0223
12158WAT    EPW49340   1.344   3.824   4.321  0.0868 -0.0283 -0.1390
12159WAT      O49341   4.469   1.525   5.435 -0.5402 -0.4228  0.0883
12159WAT     H149342   4.545   1.510   5.395 -2.1179 -2.4951 -2.4054
12159WAT     H249343   4.479   1.487   5.513  0.6392 -1.6221 -0.6189
12159WAT    EPW49344   4.482   1.517   5.441 -0.5314 -0.3757  0.0105
12160WAT      O49345   7.705   7.811   1.658  0.4374  0.4385  0.5659
12160WAT     H149346   7.708   7.893   1.690  0.3189  1.0572 -0.9295
12160WAT     H249347   7.656   7.819   1.587 -1.2859 -1.3584  1.4605
12160WAT    EPW49348   7.698   7.825   1.652 -0.6360 -0.3061 -0.1686
12161WAT      O49349   4.134   7.477   3.272 -0.3470 -0.0164 -0.2293
12161WAT     H149350   4.174   7.399   3.273  0.7654  0.5210 -1.2494
12161WAT     H249351   4.063   7.463   3.224 -0.1373 -0.4010 -0.4318
12161WAT    EPW49352   4.130   7.463   3.265  0.1761  0.4095 -0.0438
12162WAT      O49353   7.746   7.240   4.382 -0.1117  0.1606 -0.0582
12162WAT     H149354   7.702   7.232   4.306 -0.0209 -0.0293 -0.0907
12162WAT     H249355   7.788   7.316   4.373 -1.7266  1.2089  0.6295
12162WAT    EPW49356   7.746   7.250   4.369  0.1769 -0.2293 -0.1702
12163WAT      O49357   0.049   1.164   2.785 -0.0031  0.2095 -0.1272
12163WAT     H149358   0.105   1.098   2.781 -1.9084 -1.5264  0.1046
12163WAT     H249359   0.049   1.186   2.869 -0.7580 -0.8321  0.1646
12163WAT    EPW49360   0.057   1.158   2.797 -0.4217 -0.4082  0.5142
12164WAT      O49361   2.632   7.209   3.094 -0.8494  0.4407 -0.2398
12164WAT     H149362   2.554   7.243   3.074 -0.2678  0.5205 -2.7153
12164WAT     H249363   2.684   7.280   3.100 -0.5846  0.2694 -0.5103
12164WAT    EPW49364   2.628   7.225   3.092  0.7416  0.2025  0.2480
12165WAT      O49365   4.806   6.770   4.712  0.1551  1.0242 -0.2484
12165WAT     H149366   4.723   6.746   4.699  0.2921  0.9426 -1.0911
12165WAT     H249367   4.822   6.747   4.794 -0.2509 -0.2091 -0.4964
12165WAT    EPW49368   4.796   6.763   4.722  0.0734 -0.3125 -0.4474
12166WAT      O49369   5.168   0.113   6.659 -0.3437 -0.2719  0.0842
12166WAT     H149370   5.233   0.092   6.605  0.0674 -2.2628  1.2517
12166WAT     H249371   5.121   0.040   6.663 -1.9419  0.7286  0.2835
12166WAT    EPW49372   5.171   0.099   6.651 -0.1842 -0.0522 -1.0512
12167WAT      O49373   1.922   2.204   7.441 -0.3354  0.2362 -0.6776
12167WAT     H149374   1.890   2.221   7.362 -1.1321 -2.2351 -0.9818
12167WAT     H249375   1.973   2.135   7.428 -1.1705 -0.7802  1.0367
12167WAT    EPW49376   1.925   2.196   7.428 -0.1417 -0.3932 -0.1883
12168WAT      O49377   0.944   0.315   1.995 -0.4051  0.3274  0.0356
12168WAT     H149378   0.898   0.344   2.064  0.8857 -3.0157  2.6232
12168WAT     H249379   0.901   0.347   1.927 -3.5865  1.5031  2.3263
12168WAT    EPW49380   0.931   0.324   1.995 -0.4464 -0.1384 -0.2448
12169WAT      O49381   7.191   0.284   1.174 -0.2534 -0.3126 -0.3326
12169WAT     H149382   7.223   0.231   1.235 -2.8239  0.4874  1.9333
12169WAT     H249383   7.253   0.344   1.163  0.5947 -0.9254  0.9280
12169WAT    EPW49384   7.205   0.285   1.181  0.2419 -0.1305 -0.1505
12170WAT      O49385   1.931   1.133   0.779 -1.0047 -0.2693  0.1781
12170WAT     H149386   1.981   1.073   0.817 -1.1672 -1.0226 -0.7696
12170WAT     H249387   1.937   1.114   0.694  1.3440  2.8430 -0.5477
12170WAT    EPW49388   1.939   1.121   0.772  0.3200 -0.0658  0.1472
12171WAT      O49389   4.945   7.500   4.608 -0.2667  0.3344 -0.6260
12171WAT     H149390   5.026   7.468   4.595  0.1064  0.4580  1.1206
12171WAT     H249391   4.959   7.584   4.623 -0.3565 -0.0668  2.2581
12171WAT    EPW49392   4.959   7.507   4.608 -0.1632  0.0649 -0.0837
12172WAT      O49393   5.883   0.111   5.826  0.0358  0.0045 -0.1873
12172WAT     H149394   5.955   0.138   5.867 -0.3528 -0.0318  0.5281
12172WAT     H249395   5.858   0.041   5.872  0.7553 -1.3346 -1.7128
12172WAT    EPW49396   5.890   0.104   5.838  0.7467 -0.5358  0.0596
12173WAT      O49397   5.089   2.335   2.039 -0.7719  0.2526 -0.2335
12173WAT     H149398   5.103   2.309   2.121 -0.9994 -0.4079 -0.3900
12173WAT     H249399   5.059   2.416   2.047 -1.0582  0.0951  0.3622
12173WAT    EPW49400   5.086   2.343   2.052 -0.4471  0.0324 -0.0814
12174WAT      O49401   4.017   6.948   6.578 -0.4012  0.3315 -0.5331
12174WAT     H149402   4.052   7.023   6.549 -1.4079  0.0389 -2.7369
12174WAT     H249403   4.086   6.903   6.608  0.4367  1.5265 -0.5928
12174WAT    EPW49404   4.032   6.953   6.578  0.6504 -0.8388 -0.6005
12175WAT      O49405   1.165   3.249   2.168 -0.2372 -0.3033 -0.0829
12175WAT     H149406   1.176   3.180   2.115 -0.3799 -0.4020  0.0153
12175WAT     H249407   1.096   3.290   2.133 -0.5846 -0.5918  0.2645
12175WAT    EPW49408   1.156   3.245   2.155  0.0279 -0.1541  0.2489
12176WAT      O49409   2.866   5.677   0.213 -0.3051 -0.4910 -0.2393
12176WAT     H149410   2.848   5.640   0.136 -2.1142 -2.1842  0.9001
12176WAT     H249411   2.914   5.617   0.254  0.3362  0.2458  0.1224
12176WAT    EPW49412   2.870   5.663   0.207 -0.0675 -0.3006 -0.3976
12177WAT      O49413   2.180   3.569   4.350 -0.1315  0.8477  0.6209
12177WAT     H149414   2.146   3.502   4.306  0.1933 -0.0719  1.7241
12177WAT     H249415   2.262   3.574   4.320 -0.8638  2.4889 -1.3785
12177WAT    EPW49416   2.187   3.560   4.339 -0.3373  0.0552  0.1087
12178WAT      O49417   7.710   4.845   3.618  0.0087 -0.5444 -0.5255
12178WAT     H149418   7.744   4.765   3.615 -0.8656 -0.9396 -0.3558
12178WAT     H249419   7.743   4.880   3.691  1.3446 -0.2882 -1.2249
12178WAT    EPW49420   7.720   4.838   3.628 -0.1513 -0.4853 -0.0220
12179WAT      O49421   1.660   0.351   7.847 -0.7200 -0.0143  0.1160
12179WAT     H149422   1.613   0.347   7.921  0.0018 -0.7401  0.5509
12179WAT     H249423   1.664   0.437   7.830 -1.5840  0.1036  0.4630
12179WAT    EPW49424   1.654   0.363   7.856 -0.0386 -0.1854 -0.3743
12180WAT      O49425   5.767   0.473   7.566 -0.1488  0.1574  0.1364
12180WAT     H149426   5.772   0.434   7.488  0.0701 -0.5680  0.5016
12180WAT     H249427   5.742   0.554   7.547 -0.9509 -0.2496 -0.6260
12180WAT    EPW49428   5.764   0.479   7.552  0.0751  0.5596 -0.3820
12181WAT      O49429   1.540   0.439   3.381 -0.1082  0.3563 -0.2436
12181WAT     H149430   1.549   0.353   3.382 -3.5664 -0.1959 -1.2885
12181WAT     H249431   1.593   0.465   3.317  2.7362 -0.5956  1.5817
12181WAT    EPW49432   1.549   0.430   3.371  0.0312 -0.6846  0.2055
12182WAT      O49433   5.024   5.014   5.273 -0.3761  0.4515 -0.0008
12182WAT     H149434   4.993   4.935   5.255 -0.4670  0.5292 -0.1782
12182WAT     H249435   5.063   5.038   5.199  0.6791  0.0817  0.4113
12182WAT    EPW49436   5.025   5.006   5.260 -0.0478  0.2909  0.0245
12183WAT      O49437   7.345   0.378   3.756  0.3206  0.2333 -0.1376
12183WAT     H149438   7.271   0.364   3.711 -0.0766  0.7034  0.3650
12183WAT     H249439   7.324   0.356   3.838 -0.2407  3.2430  0.6601
12183WAT    EPW49440   7.331   0.372   3.761  0.6046 -0.5601  1.0583
12184WAT      O49441   1.951   0.575   3.718 -0.4926 -0.0985 -0.4096
12184WAT     H149442   1.925   0.498   3.749  1.2386 -0.2038  0.9214
12184WAT     H249443   1.924   0.632   3.778 -0.5509  0.1683 -0.6877
12184WAT    EPW49444   1.943   0.572   3.731 -0.0068 -0.2350  0.0209
12185WAT      O49445   2.297   0.930   4.266  0.0180 -0.7361 -0.4304
12185WAT     H149446   2.317   0.873   4.203 -0.2239 -2.4559  0.9720
12185WAT     H249447   2.225   0.895   4.302  0.5469 -0.1792  1.2316
12185WAT    EPW49448   2.289   0.916   4.262  0.2999  0.4338 -0.0275
12186WAT      O49449   0.054   6.444   3.278  0.7877  0.2990  0.2426
12186WAT     H149450   0.008   6.373   3.297  1.0440  0.5593  2.0152
12186WAT     H249451  -0.004   6.509   3.283  0.8870  0.3852  0.2981
12186WAT    EPW49452   0.039   6.443   3.282  0.3899  0.2174  0.4669
12187WAT      O49453   2.999   0.428   2.709  0.2947 -0.3268  0.0031
12187WAT     H149454   2.969   0.363   2.760  0.2552 -1.4535 -1.3800
12187WAT     H249455   2.941   0.492   2.720  0.7828 -0.1595  2.0593
12187WAT    EPW49456   2.986   0.428   2.718 -0.1844 -0.4479  0.0606
12188WAT      O49457   5.016   6.131   3.860 -0.0191  0.3550  0.2449
12188WAT     H149458   4.971   6.188   3.908 -1.3172 -0.0083 -0.5010
12188WAT     H249459   5.045   6.073   3.918 -1.4247  0.0078  0.6237
12188WAT    EPW49460   5.014   6.131   3.876  0.2426 -0.5020 -1.6333
12189WAT      O49461   4.166   2.477   4.498 -0.2508 -0.3087 -0.3477
12189WAT     H149462   4.096   2.443   4.537  0.9263 -1.8643  0.5150
12189WAT     H249463   4.195   2.537   4.554 -0.3445 -0.3353 -0.2716
12189WAT    EPW49464   4.160   2.481   4.512  0.5220  0.8980 -0.3449
12190WAT      O49465   4.041   0.811   4.409 -0.0486 -0.1373  0.1370
12190WAT     H149466   3.984   0.760   4.367 -0.2020  0.2634 -0.1529
12190WAT     H249467   4.026   0.795   4.493  0.7447 -1.4780  0.0481
12190WAT    EPW49468   4.030   0.801   4.415  0.0871  0.2258  0.3519
12191WAT      O49469   4.306   6.361   0.849  0.1385 -0.1560 -0.0728
12191WAT     H149470   4.369   6.302   0.833  0.9764  1.0600 -1.5375
12191WAT     H249471   4.296   6.402   0.773 -1.7986  0.3240  0.3774
12191WAT    EPW49472   4.314   6.358   0.836  0.2058  0.1418 -0.0793
12192WAT      O49473   0.752   7.226   3.829 -0.0495  0.0745 -0.6575
12192WAT     H149474   0.801   7.294   3.805  1.1358 -0.4945  0.0700
12192WAT     H249475   0.789   7.158   3.789  1.6349 -0.8146  2.1100
12192WAT    EPW49476   0.765   7.226   3.820 -0.0627 -0.2738 -0.2341
12193WAT      O49477   3.263   0.918   5.434 -0.2367 -0.1891  0.2070
12193WAT     H149478   3.234   0.835   5.433 -1.3520  0.1921 -0.5523
12193WAT     H249479   3.314   0.923   5.363  0.6932 -0.5026  0.8361
12193WAT    EPW49480   3.266   0.906   5.423  0.1087 -0.1043  0.2892
12194WAT      O49481   2.671   1.074   2.753  0.5543  0.6524  0.2672
12194WAT     H149482   2.674   1.044   2.836  0.1393  0.2490  0.1421
12194WAT     H249483   2.590   1.105   2.746  0.6842  0.9539  0.0976
12194WAT    EPW49484   2.659   1.074   2.764 -0.0796 -0.1437 -0.3674
12195WAT      O49485   0.448   7.424   0.872 -0.2605  0.1784 -0.4173
12195WAT     H149486   0.397   7.354   0.861 -2.1376  1.6028 -1.4688
12195WAT     H249487   0.508   7.415   0.810 -2.2553  0.8887 -2.6156
12195WAT    EPW49488   0.449   7.412   0.861  0.4657 -0.6025 -1.1094
12196WAT      O49489   3.005   5.983   3.891 -0.0031  0.3614  0.3946
12196WAT     H149490   2.921   5.996   3.870  0.2227  1.7996  0.3009
12196WAT     H249491   3.037   5.940   3.821 -0.2084  1.5620 -0.4677
12196WAT    EPW49492   2.997   5.978   3.877  0.5181 -0.3616  0.2288
12197WAT      O49493   4.213   6.435   6.947 -0.5854  0.3010  0.0212
12197WAT     H149494   4.130   6.416   6.969 -0.4315 -1.9960 -1.0401
12197WAT     H249495   4.207   6.466   6.866 -0.3664 -1.3050 -0.6614
12197WAT    EPW49496   4.200   6.437   6.938  0.8503  0.0708  0.7248
12198WAT      O49497   6.661   7.084   4.844  0.3689  0.0345 -0.1889
12198WAT     H149498   6.695   7.047   4.772  0.5381  0.2614 -0.2275
12198WAT     H249499   6.662   7.169   4.826 -2.3849 -0.0320 -1.1529
12198WAT    EPW49500   6.666   7.091   4.831 -0.8584  0.2412  0.0788
12199WAT      O49501   5.160   0.450   3.100  0.1619  0.0477  0.2888
12199WAT     H149502   5.238   0.488   3.103 -1.2057  3.0733  0.5586
12199WAT     H249503   5.122   0.486   3.031 -1.6940  0.1574  1.2969
12199WAT    EPW49504   5.166   0.461   3.090 -0.2490  0.2032 -0.0403
12200WAT      O49505   4.436   6.391   4.978  0.1201  0.8029  0.1397
12200WAT     H149506   4.437   6.316   5.022  0.6139  0.9244  0.3396
12200WAT     H249507   4.504   6.384   4.924  1.0293  1.6786  1.1304
12200WAT    EPW49508   4.446   6.379   4.976  0.0864  0.2276  0.1668
12201WAT      O49509   1.875   7.966   6.757  0.4438 -0.1352 -0.6131
12201WAT     H149510   1.904   7.900   6.806 -0.3140  0.7516  1.1732
12201WAT     H249511   1.936   8.028   6.768 -0.3883  0.5475  0.3923
12201WAT    EPW49512   1.888   7.966   6.766  0.3623  0.1215 -0.2267
12202WAT      O49513   2.032   5.254   7.194  0.4598 -0.2098 -0.6643
12202WAT     H149514   2.093   5.280   7.137  1.0188  2.4614  0.9875
12202WAT     H249515   2.077   5.242   7.268 -0.7640 -0.0162  0.1283
12202WAT    EPW49516   2.048   5.256   7.197  0.2089 -0.1169 -0.0280
12203WAT      O49517   5.794   2.797   7.672  0.0461 -0.2369 -0.4106
12203WAT     H149518   5.843   2.741   7.717 -1.2894 -2.1621 -1.2341
12203WAT     H249519   5.743   2.833   7.732 -0.1541 -1.0936 -0.0567
12203WAT    EPW49520   5.794   2.794   7.687 -0.1601  0.4722  0.1814
12204WAT      O49521   7.860   0.845   0.349  0.1686  0.3944  0.7782
12204WAT     H149522   7.829   0.905   0.294  0.5845  0.2039  0.3343
12204WAT     H249523   7.797   0.837   0.409 -0.8520 -0.3471 -0.3627
12204WAT    EPW49524   7.846   0.853   0.350 -0.5080 -0.6218  0.1395
12205WAT      O49525   5.572   7.408   7.261 -0.3268  0.0717 -0.1552
12205WAT     H149526   5.656   7.429   7.272 -0.3232  0.0411 -0.1199
12205WAT     H249527   5.576   7.331   7.221 -0.3470  0.9654 -1.9401
12205WAT    EPW49528   5.585   7.399   7.257 -0.4183  0.3285 -0.6496
12206WAT      O49529   2.860   6.633   0.743  0.0164  0.0218  0.0044
12206WAT     H149530   2.869   6.583   0.671 -1.8615  1.1830 -1.1211
12206WAT     H249531   2.810   6.585   0.795  1.0160 -0.6422  0.3751
12206WAT    EPW49532   2.854   6.619   0.740  0.9838 -0.2059 -0.5202
12207WAT      O49533   7.830   3.169   2.527  0.0887  0.0050  0.5213
12207WAT     H149534   7.848   3.247   2.561 -0.7657 -0.4908  2.2271
12207WAT     H249535   7.821   3.118   2.597  1.3029 -1.8136 -0.5458
12207WAT    EPW49536   7.832   3.173   2.542 -0.2835 -0.2251 -0.8709
12208WAT      O49537   3.451   4.083   7.867  0.4112 -0.5153 -0.2650
12208WAT     H149538   3.518   4.043   7.906 -0.6328 -1.0474  1.0574
12208WAT     H249539   3.470   4.168   7.877  0.6716 -0.6520  0.5228
12208WAT    EPW49540   3.464   4.089   7.874 -0.2841  0.8567  0.3609
12209WAT      O49541   1.259   2.828   3.043 -1.0422 -0.7140 -0.2898
12209WAT     H149542   1.200   2.764   3.055 -2.2495  0.6318  1.4697
12209WAT     H249543   1.313   2.818   3.110 -1.6388  0.4709  0.4056
12209WAT    EPW49544   1.258   2.817   3.055  0.0464 -0.4146 -0.4597
12210WAT      O49545   1.669   3.108   5.186 -0.0628  0.2354 -0.0105
12210WAT     H149546   1.609   3.172   5.178  0.8230  1.0783 -0.1685
12210WAT     H249547   1.744   3.152   5.187  0.6715 -0.8900 -1.5673
12210WAT    EPW49548   1.671   3.124   5.185 -0.0518 -0.2990 -0.3393
12211WAT      O49549   3.823   6.913   0.599 -0.0135 -0.2310  0.0246
12211WAT     H149550   3.736   6.920   0.591 -0.1082 -0.4493  0.7961
12211WAT     H249551   3.846   6.866   0.530 -0.1668  2.0312 -1.6936
12211WAT    EPW49552   3.814   6.907   0.588 -0.0310 -0.7855  0.4338
12212WAT      O49553   2.838   4.682   6.698  0.2202  0.0362 -0.0320
12212WAT     H149554   2.896   4.698   6.636 -2.0576 -2.4596 -3.1903
12212WAT     H249555   2.784   4.750   6.694 -0.6439 -0.6815 -1.9279
12212WAT    EPW49556   2.838   4.694   6.688 -0.3908  0.0198 -0.1432
12213WAT      O49557   2.483   8.016   3.132 -0.3361  0.4961  0.2743
12213WAT     H149558   2.468   8.080   3.074  0.1162  2.2105  1.9639
12213WAT     H249559   2.569   8.020   3.146 -0.1786 -0.9687 -0.0721
12213WAT    EPW49560   2.493   8.026   3.125  0.0684  0.2457 -0.3033
12214WAT      O49561   2.097   0.441   5.171  0.5702 -0.0997 -0.2511
12214WAT     H149562   2.120   0.360   5.192  1.9139 -0.0881 -1.4747
12214WAT     H249563   2.029   0.430   5.118 -1.1917 -0.2333  1.9035
12214WAT    EPW49564   2.091   0.428   5.166 -0.3270  0.0473  0.1765
12215WAT      O49565   0.282   3.483   1.117 -0.7565  0.1366  0.0228
12215WAT     H149566   0.313   3.560   1.144  2.1244 -0.3186 -1.5784
12215WAT     H249567   0.258   3.444   1.191 -0.8277  1.9566  1.0197
12215WAT    EPW49568   0.283   3.488   1.132  0.1607 -0.0609  0.0134
12216WAT      O49569   1.330   1.944   2.010  0.5965 -0.0265 -0.6305
12216WAT     H149570   1.301   1.931   2.091  0.3426 -1.7543 -0.9590
12216WAT     H249571   1.409   1.906   2.010  0.0327 -1.2687 -1.5291
12216WAT    EPW49572   1.338   1.936   2.022  0.2366 -0.2368  0.3301
12217WAT      O49573   1.626   1.526   7.389  0.2256 -0.1294 -0.0893
12217WAT     H149574   1.672   1.477   7.445 -0.7347 -0.2943  0.5909
12217WAT     H249575   1.675   1.527   7.317  1.8319  0.6727  0.9622
12217WAT    EPW49576   1.640   1.519   7.387 -0.0042 -0.5008  0.5974
12218WAT      O49577   2.909   6.720   7.231  0.0351  0.1062 -0.1763
12218WAT     H149578   2.872   6.652   7.272 -0.9173  0.4491 -0.4441
12218WAT     H249579   2.967   6.750   7.288 -0.7322  0.1094  0.6125
12218WAT    EPW49580   2.912   6.714   7.245 -0.1691 -0.3530  0.5869
12219WAT      O49581   4.045   1.470   3.148  0.7280  0.5826  0.2339
12219WAT     H149582   3.986   1.531   3.169 -0.3540 -0.3231 -0.1050
12219WAT     H249583   4.086   1.455   3.223  0.0827  0.7640  0.6310
12219WAT    EPW49584   4.042   1.477   3.162 -0.5674 -0.0779 -0.2570
12220WAT      O49585   2.019   0.046   3.975 -0.2629 -0.2741  0.6419
12220WAT     H149586   1.938   0.019   3.954 -0.3807  0.6277 -0.1348
12220WAT     H249587   2.067   0.022   3.907 -0.5617  2.2769 -0.5712
12220WAT    EPW49588   2.014   0.039   3.962 -0.0769  0.0399 -0.0609
12221WAT      O49589   1.999   4.418   5.996 -1.1541  0.6578  0.0338
12221WAT     H149590   1.953   4.413   5.922 -1.9962  0.5011  0.5628
12221WAT     H249591   1.942   4.394   6.058  0.0319 -0.9901  0.5602
12221WAT    EPW49592   1.984   4.414   5.994 -0.5556  0.1068  0.5850
12222WAT      O49593   0.183   2.976   2.087 -0.0485  0.2258 -0.2892
12222WAT     H149594   0.188   3.063   2.083 -0.0493  0.4573  2.4114
12222WAT     H249595   0.098   2.960   2.091 -0.0449  0.1131 -0.6718
12222WAT    EPW49596   0.171   2.986   2.087 -0.2331 -0.0519 -0.5220
12223WAT      O49597   2.595   0.723   8.013  0.3203  0.1576 -0.4151
12223WAT     H149598   2.677   0.694   8.022  0.5508  0.4488 -1.3987
12223WAT     H249599   2.565   0.727   8.094  1.0643 -0.5916 -0.0880
12223WAT    EPW49600   2.603   0.719   8.026 -0.1597  0.3911  0.5218
12224WAT      O49601   7.549   2.387   0.165  0.5339  0.5400 -0.2166
12224WAT     H149602   7.584   2.308   0.170  2.2921  1.3259  1.0756
12224WAT     H249603   7.490   2.388   0.229  0.6766  0.3575 -0.0833
12224WAT    EPW49604   7.545   2.376   0.175  0.1148 -0.0517 -0.1275
12225WAT      O49605   1.876   6.717   3.750  0.0503  0.6941 -0.1466
12225WAT     H149606   1.865   6.792   3.793  0.4180  0.0466  1.1251
12225WAT     H249607   1.962   6.712   3.738 -0.1031  1.2468 -1.7198
12225WAT    EPW49608   1.887   6.728   3.755 -0.3085 -0.7140 -0.6372
12226WAT      O49609   2.998   1.578   4.370  0.5524 -0.0468  0.2650
12226WAT     H149610   3.075   1.619   4.376  1.0803 -0.9596 -0.1402
12226WAT     H249611   2.984   1.574   4.285 -0.0851  0.3588  0.3475
12226WAT    EPW49612   3.007   1.584   4.359  0.5023  0.2198  0.9781
12227WAT      O49613   6.681   5.430   0.791 -0.1796 -0.0865 -0.1505
12227WAT     H149614   6.645   5.352   0.803 -0.8124  0.4687  2.0740
12227WAT     H249615   6.620   5.476   0.750 -0.7969 -0.1007  0.7149
12227WAT    EPW49616   6.667   5.426   0.787  0.3727  0.5487 -0.4801
12228WAT      O49617   5.643   6.534   1.041 -0.1571  0.2387 -0.1205
12228WAT     H149618   5.562   6.504   1.057  0.4002 -0.6655  1.1407
12228WAT     H249619   5.639   6.617   1.066 -1.8627  1.6180 -4.0900
12228WAT    EPW49620   5.630   6.542   1.047  0.4438  0.1584  0.3949
12229WAT      O49621   7.116   4.394   4.540  0.1123 -0.0095  0.0434
12229WAT     H149622   7.141   4.431   4.465  0.1020 -0.5771 -0.2444
12229WAT     H249623   7.038   4.430   4.556  0.5531  0.8600  0.3088
12229WAT    EPW49624   7.108   4.405   4.531 -0.8045  0.2506  0.4236
12230WAT      O49625   2.368   1.890   1.650  0.3909 -0.9509  0.4532
12230WAT     H149626   2.297   1.938   1.640  1.4468  0.8322  1.0676
12230WAT     H249627   2.359   1.827   1.590  0.0536  1.3726 -2.1552
12230WAT    EPW49628   2.356   1.888   1.640  0.0874  0.2201 -0.2139
12231WAT      O49629   3.701   2.256   5.368 -0.1528 -0.3856 -0.4469
12231WAT     H149630   3.686   2.286   5.288  0.2472  1.2827  0.0757
12231WAT     H249631   3.709   2.328   5.417 -1.2697 -1.3505  1.2770
12231WAT    EPW49632   3.700   2.271   5.363 -0.1378  0.3407  0.3366
12232WAT      O49633   6.710   5.865   3.759  0.2104  0.2746 -0.2531
12232WAT     H149634   6.728   5.949   3.774  0.8396 -0.1539  1.7761
12232WAT     H249635   6.736   5.852   3.677 -1.2287  2.3743 -1.1286
12232WAT    EPW49636   6.716   5.875   3.749  0.1522 -0.4706  0.5252
12233WAT      O49637   0.756   5.670   4.538  0.4395  0.1329  0.0859
12233WAT     H149638   0.745   5.718   4.466  0.7507 -1.2610 -0.9323
12233WAT     H249639   0.684   5.621   4.541  1.0644 -0.8343 -0.1132
12233WAT    EPW49640   0.744   5.669   4.527  0.6602 -0.3961 -0.0254
12234WAT      O49641   2.167   4.197   5.022  0.0619  0.2087 -0.3614
12234WAT     H149642   2.253   4.182   5.017  0.8495  3.3900  0.7377
12234WAT     H249643   2.150   4.194   5.107 -0.9749 -0.5149 -0.5768
12234WAT    EPW49644   2.177   4.195   5.034 -0.1750  0.1395 -0.0980
12235WAT      O49645   1.987   6.986   5.272 -0.2022  0.5142 -0.1562
12235WAT     H149646   2.062   6.954   5.241 -0.1339  0.0303  0.4890
12235WAT     H249647   1.995   7.072   5.259  0.1357  0.3883 -0.7933
12235WAT    EPW49648   2.000   6.994   5.266  0.1972  0.3667  0.6038
12236WAT      O49649   1.479   1.207   7.691 -0.0732  0.4269  0.3398
12236WAT     H149650   1.513   1.271   7.740  0.9683 -1.1823  1.8392
12236WAT     H249651   1.524   1.212   7.617  0.0460  1.3671  0.4610
12236WAT    EPW49652   1.490   1.217   7.688  1.2830  0.5830 -0.2814
12237WAT      O49653   1.547   6.696   2.872 -0.2270 -0.5430 -0.0868
12237WAT     H149654   1.593   6.627   2.847 -0.3647 -0.7242  0.1585
12237WAT     H249655   1.595   6.729   2.938 -0.2453 -0.4997 -0.0948
12237WAT    EPW49656   1.561   6.691   2.878  0.3495  0.3209  0.0804
12238WAT      O49657   1.898   4.067   0.860  0.0062  0.1838  0.6070
12238WAT     H149658   1.980   4.093   0.844  0.7108 -1.8068  0.7511
12238WAT     H249659   1.898   4.048   0.945 -0.3510 -0.6532  0.4270
12238WAT    EPW49660   1.910   4.068   0.870  0.3729  0.6249 -0.1986
12239WAT      O49661   7.946   5.587   3.194 -0.6464 -0.3574 -0.1397
12239WAT     H149662   7.943   5.672   3.174  0.5663  0.0283  1.1659
12239WAT     H249663   7.996   5.584   3.265 -0.1383 -2.2411 -0.5155
12239WAT    EPW49664   7.953   5.599   3.201 -0.1533 -0.6486  0.2237
12240WAT      O49665   0.515   2.992   5.116 -0.4439  0.2654  0.0190
12240WAT     H149666   0.449   2.941   5.142 -1.8941  0.7837 -2.3363
12240WAT     H249667   0.586   2.944   5.133 -1.5030 -0.8934  1.3882
12240WAT    EPW49668   0.516   2.978   5.122  0.2875 -0.2509 -0.0237
12241WAT      O49669   2.577   0.208   0.779 -0.0809  0.1307 -0.5754
12241WAT     H149670   2.503   0.178   0.744 -0.3482  1.8722 -1.6124
12241WAT     H249671   2.551   0.270   0.834  0.5539 -0.1789  0.0952
12241WAT    EPW49672   2.562   0.213   0.782  0.0133 -0.4804 -0.5476
12242WAT      O49673   3.755   0.761   4.799  0.4401 -0.5474  0.7736
12242WAT     H149674   3.680   0.719   4.813  0.3873 -0.1920  1.5598
12242WAT     H249675   3.745   0.837   4.840 -0.1404  1.0326 -2.0578
12242WAT    EPW49676   3.742   0.766   4.807  0.0776 -0.4999  0.0554
12243WAT      O49677   6.257   0.770   5.240 -0.1414 -0.1908 -0.2217
12243WAT     H149678   6.321   0.735   5.288 -0.3704  0.0210  0.2510
12243WAT     H249679   6.284   0.852   5.227 -0.6899  0.1654  0.7123
12243WAT    EPW49680   6.270   0.777   5.245  0.1177  0.3258 -0.6591
12244WAT      O49681   2.142   1.181   3.549  0.0006 -0.1443 -1.1378
12244WAT     H149682   2.139   1.268   3.541 -0.7622 -0.0558 -0.0144
12244WAT     H249683   2.124   1.152   3.468  0.2983  0.7295 -1.5265
12244WAT    EPW49684   2.139   1.189   3.536 -0.3565 -0.6891 -0.1774
12245WAT      O49685   2.408   0.164   2.959 -0.2499 -0.6563  0.1342
12245WAT     H149686   2.405   0.232   2.904  0.7237  0.2231  1.1402
12245WAT     H249687   2.367   0.194   3.030  1.6755 -0.4890  1.2191
12245WAT    EPW49688   2.401   0.178   2.961  0.6723  0.3951  0.3482
12246WAT      O49689   0.261   5.615   4.602 -0.5561 -0.4968 -0.6146
12246WAT     H149690   0.295   5.659   4.535 -0.9322 -0.1406 -0.5754
12246WAT     H249691   0.195   5.666   4.628  1.0922  0.6911  1.6357
12246WAT    EPW49692   0.256   5.629   4.596  0.5802  0.0835  0.0451
12247WAT      O49693   4.200   5.523   5.216 -0.2026 -0.5657  0.1434
12247WAT     H149694   4.156   5.599   5.215  0.4715 -0.1144  1.4245
12247WAT     H249695   4.178   5.489   5.293 -0.9939 -2.0108 -0.6912
12247WAT    EPW49696   4.190   5.529   5.227 -0.1376  0.1509  0.4977
12248WAT      O49697   1.454   7.165   1.263 -0.3327  0.5930 -0.4928
12248WAT     H149698   1.508   7.125   1.208 -0.7661  0.4427 -0.8118
12248WAT     H249699   1.389   7.108   1.274 -1.0406  1.2613 -1.0884
12248WAT    EPW49700   1.452   7.151   1.257  0.3442 -0.2063  0.1760
12249WAT      O49701   1.858   7.929   3.109 -0.0755 -0.2340 -0.1464
12249WAT     H149702   1.895   7.876   3.167  0.3801 -1.7811 -1.7253
12249WAT     H249703   1.884   7.896   3.032  2.0407  3.5995 -1.3126
12249WAT    EPW49704   1.867   7.916   3.106  0.5160  0.7542  0.0883
12250WAT      O49705   6.573   0.581   4.517 -0.1690 -0.5257 -0.4600
12250WAT     H149706   6.503   0.604   4.564  0.4501  1.7534 -0.5823
12250WAT     H249707   6.625   0.542   4.575  0.1694  1.3885  0.5811
12250WAT    EPW49708   6.570   0.578   4.532  0.2834 -0.2054 -0.2364
12251WAT      O49709   1.509   1.696   6.889 -0.5541 -0.0769 -0.0519
12251WAT     H149710   1.513   1.766   6.940  0.7715 -0.9522  1.1232
12251WAT     H249711   1.500   1.630   6.945  0.8157 -1.0715 -0.9358
12251WAT    EPW49712   1.508   1.696   6.904  0.1002 -0.2760  0.0787
12252WAT      O49713   3.934   2.005   1.381 -0.6437  0.1932 -0.0379
12252WAT     H149714   3.979   1.930   1.378  2.0700  1.7155 -0.2100
12252WAT     H249715   3.951   2.036   1.461 -1.3586  0.8963 -0.1420
12252WAT    EPW49716   3.943   1.999   1.393 -0.2426 -0.1115  0.2546
12253WAT      O49717   2.301   6.295   3.906 -0.0290  0.2736  0.0677
12253WAT     H149718   2.215   6.291   3.915 -0.3681  3.4182 -0.3901
12253WAT     H249719   2.317   6.381   3.908  2.9404 -0.1340 -1.1328
12253WAT    EPW49720   2.291   6.307   3.907  0.0413 -0.1709  0.4146
12254WAT      O49721   2.443   5.779   1.124 -0.0026 -0.1140 -0.8018
12254WAT     H149722   2.511   5.833   1.124 -0.5145  0.6047  0.7444
12254WAT     H249723   2.476   5.702   1.100  0.8968  0.6980 -2.2589
12254WAT    EPW49724   2.458   5.776   1.121 -0.3525 -0.6703 -0.1784
12255WAT      O49725   3.235   6.885   5.051  0.6509 -0.1205 -0.1151
12255WAT     H149726   3.221   6.799   5.061 -1.4310 -0.0304 -1.7698
12255WAT     H249727   3.227   6.897   4.965 -2.5347  2.1987  0.3403
12255WAT    EPW49728   3.232   6.874   5.040  0.4914 -0.1550 -0.4400
12256WAT      O49729   7.322   4.653   4.036  0.2222 -0.7371  0.5584
12256WAT     H149730   7.368   4.596   3.989  2.6781  1.2079  0.4118
12256WAT     H249731   7.378   4.718   4.052 -2.1080  1.2498  1.5019
12256WAT    EPW49732   7.337   4.654   4.031 -0.3230 -0.8480  0.1968
12257WAT      O49733   4.470   7.379   6.605  0.0267  0.2334  0.4566
12257WAT     H149734   4.525   7.351   6.543 -0.2989 -1.7921  0.9986
12257WAT     H249735   4.415   7.431   6.563  0.0755 -0.7551 -0.8842
12257WAT    EPW49736   4.470   7.383   6.590  0.3211 -0.8112 -0.1350
12258WAT      O49737   2.124   1.586   4.082  0.2300  0.0870 -0.0691
12258WAT     H149738   2.161   1.644   4.137 -0.7556 -0.0997  0.8181
12258WAT     H249739   2.157   1.608   4.005  1.6390  0.3820  0.5784
12258WAT    EPW49740   2.134   1.598   4.079 -0.0957 -0.2549  0.4970
12259WAT      O49741   2.970   1.666   1.557  0.7288 -0.0325  0.2144
12259WAT     H149742   3.022   1.596   1.551  1.3992  0.4890 -0.1406
12259WAT     H249743   3.018   1.731   1.523 -0.2409  0.4153 -0.3403
12259WAT    EPW49744   2.985   1.665   1.551  0.4510 -0.1205 -0.3522
12260WAT      O49745   5.814   1.489   3.185  0.2494  0.0927  0.5392
12260WAT     H149746   5.768   1.500   3.258 -0.1164  0.7485  0.2188
12260WAT     H249747   5.790   1.556   3.135  0.8683 -0.0699  0.0063
12260WAT    EPW49748   5.804   1.500   3.188 -0.5703  0.4813  0.0568
12261WAT      O49749   2.006   7.993   2.859  0.2205 -0.9083  0.2630
12261WAT     H149750   2.017   8.059   2.915  1.0096 -1.7536  1.1382
12261WAT     H249751   2.058   8.014   2.792 -0.4040 -0.0975  0.0143
12261WAT    EPW49752   2.015   8.006   2.858  0.4049  0.2337 -0.5262
12262WAT      O49753   1.130   6.006   7.731 -0.0910 -0.8526  0.4270
12262WAT     H149754   1.196   5.998   7.675  0.8484  1.2102  1.1265
12262WAT     H249755   1.165   5.980   7.807  0.8822  2.4582  1.3226
12262WAT    EPW49756   1.145   6.001   7.734  0.1229 -0.3512 -0.6788
12263WAT      O49757   3.194   7.267   3.786  0.3038 -0.1408  0.4095
12263WAT     H149758   3.176   7.300   3.865 -3.4356  1.0518 -0.7149
12263WAT     H249759   3.149   7.192   3.785  0.6883 -0.3672 -0.4453
12263WAT    EPW49760   3.185   7.261   3.798 -0.5470 -0.0528  0.2732
12264WAT      O49761   3.942   7.192   5.670 -0.9153 -0.1893 -0.2247
12264WAT     H149762   3.875   7.243   5.649 -0.3680  0.8216  0.4396
12264WAT     H249763   3.959   7.212   5.753  2.2014  1.9670 -1.1970
12264WAT    EPW49764   3.935   7.202   5.679  0.5459  0.5335  0.6123
12265WAT      O49765   2.103   6.683   2.735 -0.3376  0.0045  0.1708
12265WAT     H149766   2.172   6.666   2.684  0.2030  1.0381  0.5239
12265WAT     H249767   2.084   6.766   2.716 -0.9578 -0.0123  0.6944
12265WAT    EPW49768   2.111   6.693   2.724  0.0100 -0.4109  0.0418
12266WAT      O49769   3.666   0.549   1.810 -0.2125  0.3425 -0.5930
12266WAT     H149770   3.699   0.562   1.731  1.1363  0.1689 -0.0896
12266WAT     H249771   3.732   0.511   1.853 -0.9171  0.4334  0.6006
12266WAT    EPW49772   3.681   0.545   1.805  0.0787  0.1846 -0.7385
12267WAT      O49773   1.929   7.995   2.339  0.2150  0.4321 -0.1708
12267WAT     H149774   1.890   7.917   2.348  0.1762  0.6782  2.6594
12267WAT     H249775   2.005   7.975   2.302  1.3575 -1.4739  2.8092
12267WAT    EPW49776   1.934   7.980   2.335 -0.0310  0.2723  0.4631
12268WAT      O49777   8.025   0.913   3.803 -0.1209  0.2727  0.4923
12268WAT     H149778   8.095   0.966   3.807  0.3180 -0.2750  0.2366
12268WAT     H249779   8.059   0.836   3.780 -0.8977  0.1530 -0.2848
12268WAT    EPW49780   8.040   0.909   3.801 -0.3085 -0.5069 -0.5934
12269WAT      O49781   1.263   4.757   1.724  0.4690 -0.3339 -0.4582
12269WAT     H149782   1.268   4.687   1.777 -1.5601 -2.9905 -3.3731
12269WAT     H249783   1.287   4.725   1.647 -0.0851  2.3739 -1.8515
12269WAT    EPW49784   1.267   4.742   1.721 -0.2586 -0.1851  0.1609
12270WAT      O49785   2.561   6.357   1.234 -0.4778  0.0492  0.1786
12270WAT     H149786   2.553   6.313   1.308 -2.7748  1.8303  1.1391
12270WAT     H249787   2.547   6.440   1.258 -1.1507  0.7131 -2.1997
12270WAT    EPW49788   2.558   6.363   1.248  0.2610 -0.6267  0.2845
12271WAT      O49789   7.902   1.511   3.701 -0.2361 -0.4656 -0.9230
12271WAT     H149790   7.820   1.516   3.670 -0.5274  1.6681  0.0392
12271WAT     H249791   7.942   1.581   3.667  0.3419  0.1257  0.8384
12271WAT    EPW49792   7.896   1.522   3.691  0.3083  0.1805 -0.6181
12272WAT      O49793   6.359   1.328   1.158  0.1667 -0.3411  0.0521
12272WAT     H149794   6.385   1.262   1.108 -0.2827 -0.1131 -0.4925
12272WAT     H249795   6.382   1.303   1.239  0.0024 -1.1521 -0.1443
12272WAT    EPW49796   6.366   1.315   1.163  0.1358 -0.1460  0.2372
12273WAT      O49797   4.356   7.476   1.293 -0.4411 -0.4362  0.8551
12273WAT     H149798   4.349   7.425   1.363  0.2215 -0.6661  0.7580
12273WAT     H249799   4.274   7.480   1.263 -0.7308 -0.3057  1.6578
12273WAT    EPW49800   4.343   7.469   1.299 -0.0541  0.1649 -0.0518
12274WAT      O49801   0.128   6.831   1.793  0.0217  0.0031  0.1579
12274WAT     H149802   0.044   6.807   1.800 -0.3037  1.1973  0.6428
12274WAT     H249803   0.170   6.773   1.843 -0.7726  0.5754  1.5405
12274WAT    EPW49804   0.122   6.819   1.801 -0.6476 -0.7643 -0.1857
12275WAT      O49805   5.276   6.042   7.737  0.0171  0.2234  0.0245
12275WAT     H149806   5.304   6.124   7.745  1.3033 -0.1056 -0.8168
12275WAT     H249807   5.340   5.995   7.774 -0.7072 -0.4184  0.5061
12275WAT    EPW49808   5.289   6.047   7.744 -0.2661  0.1421 -0.3392
12276WAT      O49809   2.306   1.687   1.436  0.6422 -0.7080 -0.0292
12276WAT     H149810   2.310   1.660   1.353  1.6480  2.4153 -1.1623
12276WAT     H249811   2.221   1.691   1.453  0.4448 -2.2655 -0.5667
12276WAT    EPW49812   2.294   1.684   1.426  0.5401  0.9149  0.3175
12277WAT      O49813   3.980   3.662   6.317 -0.1593 -0.1998  0.6532
12277WAT     H149814   3.894   3.672   6.310 -0.5189 -2.1399  1.6571
12277WAT     H249815   3.990   3.612   6.388  1.8189  0.1869  0.7199
12277WAT    EPW49816   3.969   3.656   6.326  0.2271  0.0467 -0.4545
12278WAT      O49817   1.837   2.065   1.742 -0.0997 -0.0851  0.0140
12278WAT     H149818   1.874   1.995   1.706 -0.4421 -0.5694  0.5862
12278WAT     H249819   1.811   2.036   1.820 -2.5199 -0.0293 -0.7165
12278WAT    EPW49820   1.839   2.050   1.749  0.1608  0.2817 -0.5664
12279WAT      O49821   2.133   3.032   0.423 -0.6286  0.2072  0.1261
12279WAT     H149822   2.148   3.077   0.496 -1.2339  0.7925 -0.1082
12279WAT     H249823   2.062   2.985   0.442 -0.1904 -0.4298  0.2572
12279WAT    EPW49824   2.125   3.032   0.437 -0.1578 -0.7056 -0.9543
12280WAT      O49825   1.283   6.787   4.506 -0.1571 -0.3724 -0.6173
12280WAT     H149826   1.276   6.717   4.557 -0.4617 -0.0954 -0.2801
12280WAT     H249827   1.268   6.854   4.560  1.5389  0.0465 -0.6181
12280WAT    EPW49828   1.280   6.786   4.522 -0.6704 -0.3251 -0.3323
12281WAT      O49829   5.655   4.343   5.510 -0.1488  0.1282  0.2725
12281WAT     H149830   5.694   4.266   5.514 -0.2437  0.1164  1.7908
12281WAT     H249831   5.633   4.359   5.593 -1.8655  0.8952 -0.2760
12281WAT    EPW49832   5.657   4.334   5.523  0.1958  0.2185 -0.7726
12282WAT      O49833   7.889   7.152   0.976  0.0369  0.0383  0.0511
12282WAT     H149834   7.817   7.198   0.957 -0.7614 -1.4893 -0.8130
12282WAT     H249835   7.859   7.070   0.986  1.7746 -0.8501 -1.4692
12282WAT    EPW49836   7.874   7.147   0.975  0.1673 -0.5412 -0.0291
12283WAT      O49837   2.880   6.274   7.093 -0.3062 -0.4730 -0.3928
12283WAT     H149838   2.797   6.286   7.118  0.0590 -0.9187  1.1945
12283WAT     H249839   2.922   6.268   7.169  0.9079 -2.1799 -1.1639
12283WAT    EPW49840   2.874   6.275   7.108 -0.1083  0.7062 -0.0833
12284WAT      O49841   2.846   6.423   2.278  0.1813 -0.1286  0.2550
12284WAT     H149842   2.892   6.496   2.289 -0.3173  0.2655 -0.2200
12284WAT     H249843   2.878   6.369   2.339  0.9173  0.3044  0.2610
12284WAT    EPW49844   2.858   6.426   2.289 -0.7572  0.0686  0.3044
12285WAT      O49845   7.417   5.636   4.326  0.0004 -0.1413 -0.4883
12285WAT     H149846   7.504   5.641   4.336 -0.1599 -0.4012  1.3406
12285WAT     H249847   7.386   5.697   4.380 -0.9720  0.6272 -1.8403
12285WAT    EPW49848   7.425   5.646   4.335 -0.4388 -0.8448 -0.5544
12286WAT      O49849   1.541   7.135   0.021  0.3208  0.0084 -0.6385
12286WAT     H149850   1.576   7.065   0.059  1.3863  0.2050 -1.2053
12286WAT     H249851   1.488   7.167   0.082  0.1111 -1.0694 -0.2377
12286WAT    EPW49852   1.538   7.130   0.036 -0.2858  0.0058  0.1018
12287WAT      O49853   2.095   1.834   1.604 -0.1487 -0.0685  0.4292
12287WAT     H149854   2.016   1.850   1.571 -0.6054 -0.4082  1.3288
12287WAT     H249855   2.083   1.839   1.690  1.0249  0.8158  0.5692
12287WAT    EPW49856   2.081   1.837   1.612 -0.4713  0.3846 -0.4629
12288WAT      O49857   3.721   6.103   1.613 -0.0896  0.4949 -0.0542
12288WAT     H149858   3.797   6.095   1.570 -0.1258  0.9994 -0.2109
12288WAT     H249859   3.667   6.052   1.568  0.0760  0.3851 -0.1307
12288WAT    EPW49860   3.724   6.094   1.600  0.1829 -0.1550 -0.1900
12289WAT      O49861   1.704   2.850   4.741  0.1495  0.4027 -0.4726
12289WAT     H149862   1.664   2.787   4.786  1.5663  0.6192  1.1990
12289WAT     H249863   1.745   2.808   4.677  1.9564 -0.6154  1.2387
12289WAT    EPW49864   1.704   2.835   4.739 -0.1567  0.2993 -0.0699
12290WAT      O49865   3.204   1.801   2.085  0.4814 -0.0249  0.0976
12290WAT     H149866   3.137   1.755   2.118  0.6127 -0.8745 -0.7855
12290WAT     H249867   3.251   1.821   2.155 -0.6993  0.6124  0.7473
12290WAT    EPW49868   3.201   1.797   2.100 -0.3769 -0.6010  0.7010
12291WAT      O49869   2.997   6.980   2.963 -0.3091  0.1211 -0.1176
12291WAT     H149870   3.037   7.057   2.963  0.3868 -0.2281  0.7640
12291WAT     H249871   2.943   6.985   3.031 -0.5985 -0.0067 -0.3344
12291WAT    EPW49872   2.995   6.992   2.973 -0.2659 -0.0053  0.7278
12292WAT      O49873   7.367   2.245   1.396  0.4449  0.1674  0.2377
12292WAT     H149874   7.297   2.203   1.429 -0.1330  0.8946 -0.0419
12292WAT     H249875   7.425   2.242   1.460  1.1535 -2.7049 -0.3668
12292WAT    EPW49876   7.365   2.238   1.410 -0.4082  0.1458  0.3725
12293WAT      O49877   7.285   6.606   1.447 -0.2214  0.3673 -0.4691
12293WAT     H149878   7.306   6.676   1.493 -0.6590  0.3010 -0.1610
12293WAT     H249879   7.199   6.617   1.431 -0.4061 -0.3262 -0.0084
12293WAT    EPW49880   7.275   6.618   1.451  1.2509 -0.6548 -0.4325
12294WAT      O49881   1.453   3.117   7.863  0.0652  0.0106  0.6182
12294WAT     H149882   1.530   3.093   7.829 -0.4588  0.2194 -0.7950
12294WAT     H249883   1.399   3.113   7.795 -0.7180  2.1243  1.0423
12294WAT    EPW49884   1.456   3.113   7.848 -0.6730  0.0220 -0.4452
12295WAT      O49885   1.878   5.699   2.721 -0.4529 -0.5991  0.6153
12295WAT     H149886   1.906   5.676   2.642 -1.9115  0.2761 -0.2014
12295WAT     H249887   1.817   5.758   2.705  0.0910  0.5610  2.4662
12295WAT    EPW49888   1.873   5.704   2.707 -0.6277  0.2552  0.3434
12296WAT      O49889   4.600   1.760   6.996 -0.2565  0.1937  0.2503
12296WAT     H149890   4.664   1.759   6.936 -0.8503  2.0428 -0.4914
12296WAT     H249891   4.536   1.804   6.957 -1.2303  0.1470  1.7231
12296WAT    EPW49892   4.600   1.767   6.982  0.3049 -0.4080  0.1812
12297WAT      O49893   1.690   7.136   4.659  0.2918  0.7531  0.5927
12297WAT     H149894   1.620   7.184   4.641  0.9223  1.5743  0.2332
12297WAT     H249895   1.716   7.107   4.581 -1.0481 -1.6544  0.9420
12297WAT    EPW49896   1.684   7.139   4.645 -0.1121  0.5934  0.4379
12298WAT      O49897   2.851   6.946   5.623 -0.3248 -0.4223 -0.2359
12298WAT     H149898   2.863   6.865   5.591 -0.8031 -0.1414 -1.1689
12298WAT     H249899   2.880   6.998   5.559 -1.9008  0.1695 -0.5007
12298WAT    EPW49900   2.857   6.941   5.609  0.6381 -0.1964 -0.0291
12299WAT      O49901   1.812   8.028   1.527 -0.6843  0.0487 -0.2301
12299WAT     H149902   1.734   8.029   1.567 -1.0120  0.0500 -0.8470
12299WAT     H249903   1.791   8.018   1.443 -0.0085 -0.0434 -0.3934
12299WAT    EPW49904   1.797   8.027   1.520 -0.4271  0.0064 -0.3292
12300WAT      O49905   5.360   0.414   6.496  0.2612 -0.2498  0.0006
12300WAT     H149906   5.283   0.436   6.461  0.3062  1.9568  1.1310
12300WAT     H249907   5.416   0.425   6.429 -0.3126 -1.3469 -0.6808
12300WAT    EPW49908   5.357   0.419   6.481 -0.2797  0.2407 -0.4403
12301WAT      O49909   2.468   1.963   5.524  0.3038  0.8079  0.1922
12301WAT     H149910   2.393   1.920   5.533  1.0411 -0.8198 -0.9542
12301WAT     H249911   2.455   2.016   5.456  0.4546 -0.1001 -0.5500
12301WAT    EPW49912   2.455   1.965   5.515  0.5533  0.6656  0.3331
12302WAT      O49913   5.503   6.215   0.921 -0.7899  0.6123 -0.1733
12302WAT     H149914   5.496   6.209   1.008 -1.1173 -0.5294 -0.2610
12302WAT     H249915   5.577   6.173   0.904  0.7143  3.1170 -0.2460
12302WAT    EPW49916   5.513   6.208   0.932  0.6253  0.3298  0.3856
12303WAT      O49917   3.921   6.101   6.459  0.1228  0.6883 -0.0769
12303WAT     H149918   3.968   6.165   6.496  0.1733  0.1379  0.8213
12303WAT     H249919   3.894   6.053   6.527  0.2419 -0.3554 -0.7513
12303WAT    EPW49920   3.924   6.104   6.475 -0.1756  0.2631 -0.5942
12304WAT      O49921   6.944   4.007   0.229  0.2588 -0.0968  0.2095
12304WAT     H149922   6.981   3.998   0.151  2.9912  1.0169  1.2553
12304WAT     H249923   6.885   4.070   0.217 -1.2017 -1.6826 -1.4492
12304WAT    EPW49924   6.940   4.015   0.216  0.3794 -0.4143  1.0453
12305WAT      O49925   0.716   4.208   1.827  0.1724  0.4850 -0.0226
12305WAT     H149926   0.782   4.183   1.776  0.3557 -1.3734  1.0628
12305WAT     H249927   0.656   4.145   1.817 -0.1866  0.5786  1.2703
12305WAT    EPW49928   0.717   4.195   1.818  0.4379  0.3043 -0.0866
12306WAT      O49929   2.478   2.798   1.687 -0.0949  0.4540  0.1006
12306WAT     H149930   2.395   2.784   1.711 -0.1325  0.2254 -0.1634
12306WAT     H249931   2.491   2.882   1.706 -0.5800  0.6526 -0.4291
12306WAT    EPW49932   2.468   2.808   1.694 -0.2192 -0.1773 -0.1124
12307WAT      O49933   4.565   6.141   4.823 -0.3746  0.2431 -0.6692
12307WAT     H149934   4.503   6.162   4.766  0.0799 -0.2126 -1.3472
12307WAT     H249935   4.520   6.120   4.895 -0.8995  1.9693 -0.4459
12307WAT    EPW49936   4.550   6.141   4.825 -0.2705  0.2121  0.0504
12308WAT      O49937   1.651   4.878   4.966  0.1102  0.3140  0.0795
12308WAT     H149938   1.584   4.894   5.020 -0.1384 -0.6744  0.0846
12308WAT     H249939   1.720   4.875   5.019  0.1039  0.9253  0.1288
12308WAT    EPW49940   1.651   4.880   4.982  0.2553 -0.0040 -0.2186
12309WAT      O49941   0.225   3.468   0.328  0.0565 -0.2565  0.2048
12309WAT     H149942   0.194   3.511   0.397 -0.0682 -1.5236  0.9845
12309WAT     H249943   0.310   3.486   0.330  0.1087 -0.5214  0.8978
12309WAT    EPW49944   0.233   3.477   0.339  0.2966 -0.1141 -0.2820
12310WAT      O49945   4.232   1.319   7.733  0.2230 -0.4633 -0.3894
12310WAT     H149946   4.266   1.289   7.659 -1.3437 -0.7180 -1.0425
12310WAT     H249947   4.200   1.247   7.772  0.5593 -0.2596  0.2852
12310WAT    EPW49948   4.232   1.304   7.728  0.7332 -0.9200  0.5581
12311WAT      O49949   0.540   1.498   4.126  0.0112  0.4822  0.4987
12311WAT     H149950   0.508   1.530   4.051 -0.3679  2.3315  1.4014
12311WAT     H249951   0.474   1.508   4.182  1.2687  2.0068  1.8048
12311WAT    EPW49952   0.525   1.504   4.123 -0.2954  0.2979  0.1661
12312WAT      O49953   3.640   0.166   2.626 -0.0144 -0.3578  0.1183
12312WAT     H149954   3.710   0.134   2.585 -0.7900 -1.6908 -0.2285
12312WAT     H249955   3.574   0.145   2.572 -0.8056 -0.1490  0.9858
12312WAT    EPW49956   3.640   0.158   2.612 -0.4518  0.1074  0.2424
12313WAT      O49957   5.727   0.411   2.644  0.0752 -0.3693 -0.2665
12313WAT     H149958   5.730   0.488   2.685  0.8716 -0.7875  0.4980
12313WAT     H249959   5.658   0.371   2.681 -1.1307  0.4207 -1.5469
12313WAT    EPW49960   5.717   0.416   2.655  0.0665 -0.2217  0.6432
12314WAT      O49961   1.341   2.306   5.031  0.3015  0.2991  0.4759
12314WAT     H149962   1.397   2.269   5.087  0.9206 -0.7148 -0.7523
12314WAT     H249963   1.293   2.239   5.003  1.6114  0.2642 -1.9807
12314WAT    EPW49964   1.342   2.291   5.035 -0.6524  0.8554  0.1934
12315WAT      O49965   4.996   2.108   7.869  0.2730 -0.0285 -0.5707
12315WAT     H149966   4.935   2.047   7.881  0.8715 -0.5146  0.2196
12315WAT     H249967   5.054   2.068   7.818  1.2712 -0.6289  0.9290
12315WAT    EPW49968   4.996   2.093   7.863  0.1488  0.0663  0.1602
12316WAT      O49969   3.519   6.784   0.039 -0.4132 -0.7132 -0.1345
12316WAT     H149970   3.534   6.700   0.053  0.1003 -0.5982  0.0131
12316WAT     H249971   3.546   6.823   0.112 -0.4344 -0.3997 -0.2880
12316WAT    EPW49972   3.525   6.777   0.052 -0.0464  0.6527  0.0381
12317WAT      O49973   7.987   1.705   4.577  0.2160  0.0209 -0.0215
12317WAT     H149974   8.056   1.754   4.597  0.9934 -0.6066 -1.1218
12317WAT     H249975   8.015   1.653   4.513 -0.0319 -3.0412  2.1169
12317WAT    EPW49976   8.001   1.705   4.571 -0.3297 -0.6690  0.3965
12318WAT      O49977   0.734   6.772   4.594 -0.1586  0.6725  0.0828
12318WAT     H149978   0.798   6.818   4.631  0.2902 -2.0715  3.1095
12318WAT     H249979   0.774   6.729   4.529  0.4200  1.0194  0.2050
12318WAT    EPW49980   0.749   6.773   4.590 -0.2407  0.5471 -0.3247
12319WAT      O49981   1.649   0.079   3.868 -0.4927 -0.6022 -0.0454
12319WAT     H149982   1.599   0.101   3.936 -1.4049 -0.2915 -0.7906
12319WAT     H249983   1.639   0.145   3.813  1.9207  0.1900  0.3486
12319WAT    EPW49984   1.640   0.092   3.870  0.3080  0.4385 -0.2578
12320WAT      O49985   2.920   6.219   4.237 -0.5802  0.0075 -0.2519
12320WAT     H149986   2.974   6.216   4.168  0.5938  2.1634  0.4909
12320WAT     H249987   2.969   6.189   4.303 -0.8406  0.4397  0.1416
12320WAT    EPW49988   2.935   6.214   4.237 -0.3418 -0.1083 -0.1477
12321WAT      O49989   1.510   7.733   5.374  0.1897  0.2262 -0.1205
12321WAT     H149990   1.528   7.775   5.300  0.3030 -0.9413 -0.7684
12321WAT     H249991   1.498   7.798   5.431 -0.7498  1.1826 -1.3412
12321WAT    EPW49992   1.511   7.749   5.372  0.1570 -0.6732  0.1157
12322WAT      O49993   0.347   3.367   4.508 -0.2436 -0.2156 -0.4074
12322WAT     H149994   0.345   3.341   4.425  0.7789  0.4330 -0.6501
12322WAT     H249995   0.400   3.310   4.546 -1.6724 -1.2607  0.0977
12322WAT    EPW49996   0.354   3.355   4.501 -0.6266  0.3036 -0.5341
12323WAT      O49997   3.658   0.976   2.710  0.4553 -0.0058 -0.3106
12323WAT     H149998   3.595   0.945   2.658 -0.7350  2.6705 -0.6688
12323WAT     H249999   3.616   0.996   2.783  1.5964 -1.2462  0.7233
12323WAT    EPW50000   3.642   0.974   2.713  0.6776 -0.0440  0.3244
12324WAT      O50001   3.361   6.228   7.663  0.0599  0.2175 -0.5911
12324WAT     H150002   3.292   6.185   7.695 -0.1126  0.7371 -0.2313
12324WAT     H250003   3.346   6.231   7.577 -2.1403  3.2035 -0.2549
12324WAT    EPW50004   3.349   6.222   7.655  0.2173 -0.1367 -0.1368
12325WAT      O50005   3.756   0.987   5.001 -0.5137  0.2130 -0.2987
12325WAT     H150006   3.785   1.056   4.956  0.9860 -1.0197 -1.2973
12325WAT     H250007   3.794   0.996   5.079 -0.1476  0.3881 -0.4977
12325WAT    EPW50008   3.766   0.999   5.006  0.6250 -0.5769  0.6854
12326WAT      O50009   7.389   7.487   3.706  0.2554 -0.0820  0.5052
12326WAT     H150010   7.345   7.524   3.772 -0.5824  1.3453 -0.7810
12326WAT     H250011   7.458   7.540   3.695  0.5866 -0.5160  0.4469
12326WAT    EPW50012   7.393   7.500   3.714  0.1050  0.6461 -0.3375
12327WAT      O50013   1.882   1.773   5.676 -0.1971 -0.0429  0.3579
12327WAT     H150014   1.804   1.781   5.714 -1.8516 -0.9060 -2.4924
12327WAT     H250015   1.896   1.851   5.640  0.2655  0.1183  0.8871
12327WAT    EPW50016   1.873   1.786   5.676  0.9871  0.0834  0.2025
12328WAT      O50017   2.574   2.036   3.669  0.6206  0.1783  0.1168
12328WAT     H150018   2.592   2.115   3.636  0.7205  0.6336  1.2113
12328WAT     H250019   2.515   2.054   3.732  1.4998 -0.4569  1.1593
12328WAT    EPW50020   2.568   2.051   3.674 -0.1142  0.4315 -0.5323
12329WAT      O50021   1.331   1.899   2.279  0.1947 -0.3928 -0.0287
12329WAT     H150022   1.389   1.961   2.298 -0.6710  0.3558  0.2618
12329WAT     H250023   1.260   1.923   2.323 -0.5126 -0.9960 -0.7961
12329WAT    EPW50024   1.329   1.912   2.289  0.1899 -0.7888 -0.2708
12330WAT      O50025   4.964   3.210   6.462  0.0516  0.5286 -0.1790
12330WAT     H150026   4.886   3.172   6.461  0.3723 -0.1520  0.2407
12330WAT     H250027   5.003   3.178   6.392  0.3678 -0.0302  0.2438
12330WAT    EPW50028   4.958   3.200   6.452  0.4542  0.0747 -0.1692
12331WAT      O50029   2.886   6.281   1.533  1.1463 -0.5964 -0.2792
12331WAT     H150030   2.876   6.278   1.447  0.9452 -0.6824 -0.2516
12331WAT     H250031   2.859   6.202   1.560 -0.6936  0.1120  0.0648
12331WAT    EPW50032   2.881   6.269   1.525  0.5070 -0.1421 -0.0904
12332WAT      O50033   4.873   8.011   7.742  0.0956  0.2660 -0.1913
12332WAT     H150034   4.787   8.013   7.751  0.0234  1.6390 -0.8795
12332WAT     H250035   4.901   7.979   7.818 -1.0127 -0.0902  0.0749
12332WAT    EPW50036   4.865   8.007   7.755  0.4233  0.1988  0.4663
12333WAT      O50037   4.953   1.640   1.108  0.0037 -0.1875 -0.4397
12333WAT     H150038   4.961   1.723   1.136  2.1880 -0.4121 -0.2280
12333WAT     H250039   4.882   1.643   1.057 -0.2821  1.6884 -0.0274
12333WAT    EPW50040   4.944   1.653   1.105  0.1332 -0.1949 -0.2054
12334WAT      O50041   1.257   1.857   0.706  0.1645  0.4090  0.4041
12334WAT     H150042   1.198   1.875   0.644 -0.6489 -3.7318 -0.3319
12334WAT     H250043   1.209   1.824   0.771  1.4083  0.5567  1.4341
12334WAT    EPW50044   1.241   1.855   0.706 -0.3817 -0.3235  0.5800
12335WAT      O50045   2.457   3.088   1.349 -0.0702 -0.3730 -0.2456
12335WAT     H150046   2.465   3.001   1.352 -0.4440 -0.3861  2.5692
12335WAT     H250047   2.539   3.116   1.341  0.1868 -0.9622  0.2652
12335WAT    EPW50048   2.470   3.080   1.348 -0.1100 -0.0827  0.4036
12336WAT      O50049   0.261   7.650   2.841  0.0791  0.2974 -0.1501
12336WAT     H150050   0.323   7.648   2.780 -2.1087  0.3735 -2.5295
12336WAT     H250051   0.256   7.735   2.861  0.1914  0.3938 -0.5224
12336WAT    EPW50052   0.270   7.663   2.835 -0.9013 -0.4077  0.4159
12337WAT      O50053   7.793   6.434   2.400 -0.5264  0.5789 -0.2974
12337WAT     H150054   7.707   6.441   2.412 -0.9172 -0.8987 -1.9960
12337WAT     H250055   7.806   6.465   2.319  0.2124 -1.1157 -0.8706
12337WAT    EPW50056   7.783   6.440   2.390  0.1673  0.0902  0.0012
12338WAT      O50057   7.239   0.380   4.256  0.2431  0.0315 -0.6267
12338WAT     H150058   7.305   0.367   4.311 -1.8173 -1.0056  1.7811
12338WAT     H250059   7.187   0.311   4.270 -0.7444  0.0877 -3.4308
12338WAT    EPW50060   7.241   0.368   4.266 -0.0016  0.0739  0.2714
12339WAT      O50061   2.936   3.345   1.939 -0.5413 -0.1492 -0.3196
12339WAT     H150062   2.997   3.283   1.949 -0.7300 -0.4036 -0.7172
12339WAT     H250063   2.897   3.348   2.016  0.8931  1.0043  0.4003
12339WAT    EPW50064   2.940   3.336   1.952  0.1005  0.3013 -0.4605
12340WAT      O50065   0.459   1.006   1.562 -0.0414  0.1862  0.3264
12340WAT     H150066   0.533   0.961   1.551  0.6047  0.8028  1.8326
12340WAT     H250067   0.436   1.028   1.481  2.7477  2.0247 -0.1160
12340WAT    EPW50068   0.467   1.003   1.549 -0.2976  0.2280 -0.5751
12341WAT      O50069   3.814   4.439   0.598  0.5107  0.6193  0.3720
12341WAT     H150070   3.768   4.504   0.562  1.6338  1.6042  0.6335
12341WAT     H250071   3.766   4.413   0.665 -0.3277  0.6310 -0.2151
12341WAT    EPW50072   3.800   4.445   0.603 -0.2427  0.5064  0.6664
12342WAT      O50073   4.039   6.555   5.510 -0.2051 -0.3733  0.1987
12342WAT     H150074   3.977   6.551   5.449 -1.3042  2.6072  0.9462
12342WAT     H250075   4.057   6.472   5.526 -2.7777 -1.3422 -1.2833
12342WAT    EPW50076   4.033   6.542   5.503  0.2654 -0.4981 -0.1488
12343WAT      O50077   0.373   2.135   2.745 -0.1849  0.0173 -0.4189
12343WAT     H150078   0.411   2.213   2.748 -0.5388  0.1748  0.0006
12343WAT     H250079   0.363   2.121   2.659 -0.7156  0.7283 -0.4855
12343WAT    EPW50080   0.377   2.144   2.733 -0.4314 -0.5017  0.1866
12344WAT      O50081   0.143   0.185   0.656  0.4417 -0.7783 -0.1328
12344WAT     H150082   0.167   0.249   0.602  1.5726  0.1228  1.3755
12344WAT     H250083   0.215   0.166   0.700 -0.4611 -1.4220  1.1390
12344WAT    EPW50084   0.157   0.191   0.655  0.1513 -0.5578 -0.2766
12345WAT      O50085   1.436   3.632   2.004  0.4482  0.0631 -0.2402
12345WAT     H150086   1.419   3.617   1.919 -1.4981  0.3876  0.0417
12345WAT     H250087   1.424   3.554   2.041 -2.8325  0.6347  0.2422
12345WAT    EPW50088   1.432   3.618   1.997 -0.1630 -0.4182  0.7965
12346WAT      O50089   3.241   5.960   1.021  0.3333  0.0836 -0.0894
12346WAT     H150090   3.164   5.961   0.980  0.5111 -1.1658 -0.4949
12346WAT     H250091   3.239   5.885   1.066  0.9334  0.4990  0.6482
12346WAT    EPW50092   3.229   5.949   1.022 -0.0222  0.1819  0.1199
12347WAT      O50093   2.894   0.427   2.075 -0.6733  0.4734  0.2431
12347WAT     H150094   2.956   0.383   2.032  0.3415  1.6067  0.5067
12347WAT     H250095   2.919   0.421   2.158 -0.0461  2.2511  0.2053
12347WAT    EPW50096   2.907   0.420   2.081  0.1505  1.1240  0.8416
12348WAT      O50097   2.327   6.173   5.354 -0.1379  0.0997  0.0797
12348WAT     H150098   2.389   6.145   5.299 -1.3930 -0.5338 -1.0825
12348WAT     H250099   2.253   6.162   5.309 -1.0310  1.9242  0.9662
12348WAT    EPW50100   2.325   6.167   5.339 -0.0698 -0.1887 -0.3690
12349WAT      O50101   7.338   0.920   2.772  0.5936  0.9720 -0.0808
12349WAT     H150102   7.273   0.888   2.820  1.1068  1.4178  0.9483
12349WAT     H250103   7.398   0.856   2.772  0.3701  0.7504 -0.6269
12349WAT    EPW50104   7.338   0.906   2.779 -0.0744 -0.2315 -0.2568
12350WAT      O50105   1.133   3.101   4.347  0.0685  0.4748 -0.6089
12350WAT     H150106   1.153   3.069   4.268  0.5139  0.1139 -0.3480
12350WAT     H250107   1.047   3.116   4.341 -0.1425 -0.7002 -0.7648
12350WAT    EPW50108   1.123   3.098   4.334  0.2449  0.4758  0.0312
12351WAT      O50109   6.114   7.322   3.111  0.1387  0.0146 -0.4800
12351WAT     H150110   6.185   7.372   3.104 -1.2582  2.3265  0.6606
12351WAT     H250111   6.094   7.327   3.196 -1.6240 -0.1595 -0.8433
12351WAT    EPW50112   6.122   7.330   3.123  0.5235  0.2916 -0.4279
12352WAT      O50113   4.723   5.592   7.017  0.0603 -0.5470  0.4585
12352WAT     H150114   4.688   5.530   6.966 -0.5334  0.9617 -1.0653
12352WAT     H250115   4.670   5.593   7.087 -0.0336 -1.5973  0.4171
12352WAT    EPW50116   4.710   5.583   7.020  0.3116  0.7229  0.0850
12353WAT      O50117   3.624   1.436   2.518 -0.1815  0.0306  0.4087
12353WAT     H150118   3.694   1.474   2.552 -0.0518 -0.0159  0.2020
12353WAT     H250119   3.650   1.353   2.505 -0.8423 -0.4538  1.9715
12353WAT    EPW50120   3.638   1.429   2.521  0.1061  0.4054  0.2076
12354WAT      O50121   7.199   6.127   3.864 -0.3970 -0.4283 -0.1959
12354WAT     H150122   7.174   6.179   3.929  2.2450 -1.2600  1.6645
12354WAT     H250123   7.160   6.161   3.794 -2.8391  0.9271  1.6671
12354WAT    EPW50124   7.190   6.140   3.863  0.5199  0.5151 -0.0641
12355WAT      O50125   4.119   5.596   7.373 -0.4682  0.2925  0.0801
12355WAT     H150126   4.147   5.666   7.328  0.1093 -0.2749 -0.4677
12355WAT     H250127   4.035   5.589   7.349 -0.0906 -0.1948 -1.2093
12355WAT    EPW50128   4.111   5.605   7.363  0.1245 -0.1630  0.1442
12356WAT      O50129   1.845   8.019   8.008 -0.3166  0.0985 -0.0131
12356WAT     H150130   1.871   8.102   8.005  0.6573 -0.2176 -1.2996
12356WAT     H250131   1.908   7.980   8.053 -0.5824 -0.0048  0.2684
12356WAT    EPW50132   1.858   8.026   8.014  0.0938  0.9848  0.1461
12357WAT      O50133   1.917   0.847   5.069  0.2880 -0.0815 -0.7404
12357WAT     H150134   1.998   0.853   5.036  0.1518 -0.7322 -1.2297
12357WAT     H250135   1.930   0.831   5.154  0.6623  0.6759 -0.6518
12357WAT    EPW50136   1.931   0.845   5.076 -0.2066  0.3957 -0.0871
12358WAT      O50137   4.032   0.406   3.938  0.3494 -0.1313 -0.0823
12358WAT     H150138   3.965   0.399   3.883  0.4344  0.7355 -0.3058
12358WAT     H250139   4.090   0.348   3.907  0.7369  0.9207 -1.4313
12358WAT    EPW50140   4.031   0.396   3.925  0.5540 -0.1265  0.5386
12359WAT      O50141   4.899   2.950   6.158  0.7043  0.0472 -0.4955
12359WAT     H150142   4.957   3.001   6.199  1.2813 -1.4328  0.6435
12359WAT     H250143   4.937   2.871   6.160 -1.4868 -1.0744  0.6300
12359WAT    EPW50144   4.913   2.946   6.165  0.0507  0.5656  0.2564
12360WAT      O50145   5.250   2.869   1.496  0.1102  0.7770 -0.3077
12360WAT     H150146   5.325   2.913   1.489  0.7279  0.0910  1.5306
12360WAT     H250147   5.247   2.823   1.422  2.2780 -0.3075  0.1876
12360WAT    EPW50148   5.261   2.869   1.484 -0.1915 -0.0017  0.2555
12361WAT      O50149   0.983   1.194   2.638  0.0532  0.1497  0.0030
12361WAT     H150150   1.037   1.244   2.686 -0.1905 -0.3352  0.8051
12361WAT     H250151   0.906   1.204   2.678 -0.3497  0.4140 -0.8137
12361WAT    EPW50152   0.980   1.203   2.651  1.0426 -0.0815 -0.0452
12362WAT      O50153   5.482   7.388   4.386  0.0719  0.5945 -0.2519
12362WAT     H150154   5.530   7.451   4.349  1.3603 -0.7344 -0.9569
12362WAT     H250155   5.401   7.407   4.362  0.4230  1.9439 -0.4837
12362WAT    EPW50156   5.477   7.400   4.377 -0.7712  0.6638 -0.4520
12363WAT      O50157   3.648   6.459   1.239 -0.2252 -0.1782  0.3013
12363WAT     H150158   3.642   6.412   1.313  0.1954  0.1023  0.5243
12363WAT     H250159   3.710   6.518   1.258  0.5522 -0.6856 -0.5894
12363WAT    EPW50160   3.657   6.461   1.253  0.6031  0.1069  0.0603
12364WAT      O50161   0.051   7.357   0.561 -0.1858  0.2515 -0.4060
12364WAT     H150162   0.096   7.425   0.531 -0.1275  0.2718 -0.2713
12364WAT     H250163   0.082   7.345   0.641  1.2419 -1.1649 -1.0933
12364WAT    EPW50164   0.062   7.365   0.568  0.0953  0.1718  0.2316
12365WAT      O50165   1.115   5.974   4.584  0.2944  0.0986 -0.7728
12365WAT     H150166   1.194   6.009   4.593  0.1243  0.5990 -1.2188
12365WAT     H250167   1.124   5.894   4.618  0.6086  0.6623  0.5674
12365WAT    EPW50168   1.128   5.968   4.591 -0.0597  0.1818  0.7991
12366WAT      O50169   2.887   0.915   0.780  0.0807  0.1963  0.0088
12366WAT     H150170   2.805   0.889   0.766  0.2057  0.1510 -0.6765
12366WAT     H250171   2.887   0.939   0.864 -0.9852  1.5092 -0.3450
12366WAT    EPW50172   2.875   0.915   0.790 -0.3415  0.5221 -0.2162
12367WAT      O50173   2.120   1.013   0.398  0.2849 -0.2151  0.0410
12367WAT     H150174   2.087   1.003   0.318  0.6558  1.0296 -0.2860
12367WAT     H250175   2.049   1.016   0.449  0.0555 -1.3036 -0.1812
12367WAT    EPW50176   2.104   1.012   0.394 -0.0566 -0.0564 -0.2052
12368WAT      O50177   1.792   7.221   4.139 -0.6221 -0.2153  0.0634
12368WAT     H150178   1.864   7.268   4.129  0.6808 -2.1986 -0.4425
12368WAT     H250179   1.747   7.265   4.199  1.1718  0.9026  0.6570
12368WAT    EPW50180   1.796   7.234   4.147 -0.0523 -0.5812 -0.3420
12369WAT      O50181   6.900   6.472   3.505 -0.7331  0.7366  0.3404
12369WAT     H150182   6.867   6.415   3.448  0.7156  0.5653 -0.3757
12369WAT     H250183   6.944   6.528   3.455 -0.4118  1.2754  1.2079
12369WAT    EPW50184   6.902   6.472   3.489 -0.2747  0.4641  0.4452
12370WAT      O50185   0.449   7.798   0.087  0.0600 -0.5299  0.0007
12370WAT     H150186   0.457   7.763   0.166  0.9638 -2.4127 -0.8464
12370WAT     H250187   0.368   7.832   0.087  0.3540  0.2695  1.9598
12370WAT    EPW50188   0.438   7.798   0.099  0.5514  0.6400  0.3033
12371WAT      O50189   2.665   7.243   1.796 -0.2221  0.2293 -0.2249
12371WAT     H150190   2.702   7.290   1.733 -1.0763  0.6776 -0.4069
12371WAT     H250191   2.580   7.242   1.773 -0.3368 -0.6989  0.2185
12371WAT    EPW50192   2.658   7.250   1.783  0.2501 -0.6032 -0.4568
12372WAT      O50193   6.794   6.349   0.885 -0.2267  0.1030 -0.1033
12372WAT     H150194   6.806   6.434   0.866  0.5950  0.3505  1.4111
12372WAT     H250195   6.853   6.308   0.836  0.0182  0.4859 -0.1315
12372WAT    EPW50196   6.804   6.356   0.875  0.2466 -0.0820  0.1362
12373WAT      O50197   1.404   4.070   2.878  0.7182  0.1992  0.0893
12373WAT     H150198   1.446   4.132   2.833  0.5013  0.3257  0.0618
12373WAT     H250199   1.425   4.087   2.961 -0.4027  1.1132  0.1987
12373WAT    EPW50200   1.413   4.081   2.884 -0.1764  0.0132 -0.3208
12374WAT      O50201   6.124   4.592   7.968 -0.1772  0.4032  0.1911
12374WAT     H150202   6.064   4.578   7.906  0.4049 -0.4934 -0.1834
12374WAT     H250203   6.108   4.674   7.993 -0.8353  0.5624 -0.6864
12374WAT    EPW50204   6.113   4.602   7.963 -0.4390  0.2390 -0.0008
12375WAT      O50205   2.576   1.355   3.910 -0.0363  0.2671 -0.1411
12375WAT     H150206   2.584   1.296   3.846  1.8626  0.2458  0.0556
12375WAT     H250207   2.495   1.341   3.941 -0.2663 -1.0464 -1.2430
12375WAT    EPW50208   2.565   1.344   3.905  0.2132  0.2956 -0.1058
12376WAT      O50209   5.760   0.035   5.139 -0.1369  0.2497  0.4086
12376WAT     H150210   5.766   0.099   5.198 -0.9387 -0.3782  1.2030
12376WAT     H250211   5.823   0.053   5.082  0.6012  0.9305  1.4113
12376WAT    EPW50212   5.770   0.047   5.140  0.4985  0.3714  0.2378
12377WAT      O50213   8.010   6.062   3.798 -0.4909 -0.3145 -0.3547
12377WAT     H150214   7.932   6.043   3.765 -0.6479  0.8461 -0.7000
12377WAT     H250215   8.065   6.048   3.732 -0.5636  0.0282 -0.4938
12377WAT    EPW50216   8.007   6.057   3.784  0.0958  0.1827  0.0630
12378WAT      O50217   1.677   4.871   5.572  0.7869  0.0966  0.0131
12378WAT     H150218   1.695   4.896   5.491 -0.9572 -0.5886 -0.6250
12378WAT     H250219   1.748   4.827   5.597  0.2822 -2.1744 -2.2198
12378WAT    EPW50220   1.690   4.868   5.564 -0.0146  0.2059 -0.9196
12379WAT      O50221   6.070   6.250   0.290  0.8173  0.5770  0.6020
12379WAT     H150222   6.089   6.330   0.262  0.1440  0.3393 -0.5890
12379WAT     H250223   5.995   6.261   0.334  1.4242  0.8059  1.6096
12379WAT    EPW50224   6.061   6.263   0.292  0.3365 -0.0614 -0.7697
12380WAT      O50225   6.174   7.524   7.959  0.0233  0.3799  0.0946
12380WAT     H150226   6.089   7.542   7.956 -0.0035  0.1939 -0.3974
12380WAT     H250227   6.210   7.597   7.991 -0.3889  0.2056  1.0132
12380WAT    EPW50228   6.166   7.537   7.964  1.0224  0.2080 -0.1967
12381WAT      O50229   6.571   0.038   1.622 -0.7061 -0.8006  0.0111
12381WAT     H150230   6.573   0.102   1.681 -0.1740  0.9246 -1.7587
12381WAT     H250231   6.513   0.067   1.563  0.0315 -1.6421 -1.1654
12381WAT    EPW50232   6.563   0.052   1.622  0.5340 -0.0269  0.4255
12382WAT      O50233   5.392   3.863   1.039 -0.6345  0.0111 -0.0341
12382WAT     H150234   5.338   3.920   1.002  1.1734  1.2444 -0.9542
12382WAT     H250235   5.449   3.844   0.974  0.5633 -0.4951  1.1121
12382WAT    EPW50236   5.393   3.868   1.024 -0.0947  0.4483  0.3273
12383WAT      O50237   4.509   0.739   1.496 -0.3250 -0.3501 -0.2034
12383WAT     H150238   4.586   0.739   1.537 -0.7179  2.2958  0.7155
12383WAT     H250239   4.525   0.695   1.423  1.8555 -0.5243  0.3121
12383WAT    EPW50240   4.523   0.733   1.491  0.1448  0.4162 -0.0334
12384WAT      O50241   2.055   0.986   0.125  0.0676 -0.2985 -0.1410
12384WAT     H150242   2.012   0.949   0.059  1.4766 -1.9170 -0.2518
12384WAT     H250243   2.139   0.979   0.100  0.5267  0.6701  1.0411
12384WAT    EPW50244   2.061   0.980   0.111 -0.0289  0.4223 -0.0794
12385WAT      O50245   6.601   7.902  -0.000 -0.1670  0.6188 -0.5995
12385WAT     H150246   6.615   7.981   0.034  2.0579 -0.1641  0.4981
12385WAT     H250247   6.578   7.854   0.069 -0.9629  0.1541 -1.1678
12385WAT    EPW50248   6.600   7.907   0.015  0.8448 -0.3765  0.2167
12386WAT      O50249   0.292   0.201   1.186  0.3406  0.7780 -0.0604
12386WAT     H150250   0.362   0.189   1.136 -0.3811 -1.1324 -0.7011
12386WAT     H250251   0.326   0.209   1.266  1.3130  0.0879 -0.3773
12386WAT    EPW50252   0.307   0.200   1.191 -0.2801 -0.3055  0.0733
12387WAT      O50253   1.912   6.505   1.461  0.2404 -0.4760  0.2358
12387WAT     H150254   1.847   6.448   1.467 -0.1693  0.1508  3.1860
12387WAT     H250255   1.874   6.582   1.477  1.4561  0.1071  0.4767
12387WAT    EPW50256   1.897   6.508   1.464  0.2140  0.5696  0.4971
12388WAT      O50257   0.373   4.501   0.203 -0.1869  0.3084  0.2252
12388WAT     H150258   0.399   4.435   0.153  1.4611  0.8845  0.2847
12388WAT     H250259   0.423   4.568   0.179 -1.7844  1.5677  0.1866
12388WAT    EPW50260   0.384   4.501   0.192  0.5158  0.4660 -0.1365
12389WAT      O50261   0.171   2.423   2.410 -0.0502  0.1402  0.0360
12389WAT     H150262   0.173   2.478   2.477 -3.6733  1.5457 -0.7631
12389WAT     H250263   0.195   2.472   2.342  0.1837 -0.2857 -0.1954
12389WAT    EPW50264   0.175   2.439   2.410 -0.2205  0.3037 -0.6237
12390WAT      O50265   7.629   0.813   1.413 -0.0044  0.5270  0.1424
12390WAT     H150266   7.705   0.852   1.429  0.0100  1.1230 -1.2219
12390WAT     H250267   7.632   0.741   1.461  1.5119  0.4548 -0.0195
12390WAT    EPW50268   7.641   0.808   1.422 -0.4271 -0.0027  0.1817
12391WAT      O50269   0.525   0.035   0.619 -0.6583  0.0099 -0.0542
12391WAT     H150270   0.569   0.073   0.554 -1.3408 -1.4920 -1.4516
12391WAT     H250271   0.586  -0.006   0.665 -0.2498  0.5562 -0.0964
12391WAT    EPW50272   0.541   0.035   0.616 -0.4214  0.2974 -0.0970
12392WAT      O50273   1.641   7.716   2.984  0.2255  0.0082 -0.5286
12392WAT     H150274   1.709   7.761   3.016 -0.9546  2.0118 -0.6832
12392WAT     H250275   1.671   7.634   2.982  1.4143  0.1728  2.8713
12392WAT    EPW50276   1.656   7.710   2.989  0.0402  0.1787  0.2540
12393WAT      O50277   0.707   4.455   0.320  0.3618  0.2684  0.3153
12393WAT     H150278   0.681   4.411   0.250  1.3038 -1.6667  1.1014
12393WAT     H250279   0.652   4.522   0.324 -0.4085 -0.1793 -1.6205
12393WAT    EPW50280   0.695   4.458   0.311 -0.2088 -0.2522 -0.9016
12394WAT      O50281   6.560   0.579   7.839  0.2716  0.2934  0.2472
12394WAT     H150282   6.641   0.575   7.871  0.4055  1.5891  0.1517
12394WAT     H250283   6.556   0.513   7.783  0.4904 -1.1969  1.8823
12394WAT    EPW50284   6.571   0.569   7.836  0.0323 -0.5196 -0.3511
12395WAT      O50285   2.728   2.446   0.936 -0.2181  0.3069 -0.6259
12395WAT     H150286   2.777   2.422   1.004  1.3668 -0.2718 -1.8803
12395WAT     H250287   2.646   2.434   0.963  0.3631  0.1250  1.1569
12395WAT    EPW50288   2.723   2.440   0.950  0.4185  0.0709 -0.0326
12396WAT      O50289   1.740   1.139   2.169 -0.0251  0.0787  0.1155
12396WAT     H150290   1.768   1.191   2.105 -0.1759 -0.1007 -0.0960
12396WAT     H250291   1.665   1.176   2.194  0.9169  1.1989  1.4367
12396WAT    EPW50292   1.733   1.152   2.164  0.1182 -0.2586  0.2055
12397WAT      O50293   0.730   7.139   0.964  0.6343  0.1270  0.1688
12397WAT     H150294   0.736   7.212   0.917  0.6476  1.8372  2.6432
12397WAT     H250295   0.645   7.120   0.963  0.1720  1.8027  1.6490
12397WAT    EPW50296   0.718   7.147   0.957 -0.2076  0.4965 -0.0288
12398WAT      O50297   1.738   0.911   2.023  0.2678 -0.4626  0.3882
12398WAT     H150298   1.824   0.896   2.017  0.2746 -0.9570  1.4024
12398WAT     H250299   1.733   0.988   2.063  0.2650 -0.7590  0.9871
12398WAT    EPW50300   1.750   0.920   2.028  0.3865 -0.6344 -0.1558
12399WAT      O50301   6.069   4.203   2.635  0.3608  0.5124  0.2208
12399WAT     H150302   6.134   4.168   2.680  0.2023  0.2330  0.2369
12399WAT     H250303   6.097   4.199   2.552  0.5235  0.7430  0.2656
12399WAT    EPW50304   6.082   4.197   2.629 -0.0012  0.6349  0.1018
12400WAT      O50305   2.730   5.432   7.318  0.0131 -0.0524  0.1025
12400WAT     H150306   2.698   5.464   7.243  1.3167  0.8060 -0.1290
12400WAT     H250307   2.748   5.349   7.298  2.1457  0.6180 -1.2306
12400WAT    EPW50308   2.728   5.425   7.304 -0.3943  0.5312  0.7301
12401WAT      O50309   2.860   4.971   1.491 -0.3629  0.2853 -0.3660
12401WAT     H150310   2.785   5.013   1.506 -0.1576  0.9281 -1.0755
12401WAT     H250311   2.837   4.905   1.439 -1.0045 -1.6889  2.1988
12401WAT    EPW50312   2.845   4.967   1.486 -0.7059 -0.0709  0.1827
12402WAT      O50313   3.871   3.944   7.847  0.3364 -0.1814  0.0771
12402WAT     H150314   3.873   4.030   7.863 -0.1374 -0.1119 -0.2220
12402WAT     H250315   3.839   3.910   7.920 -0.9290  0.0492 -0.3451
12402WAT    EPW50316   3.866   3.952   7.860 -0.4837  0.2870  0.3257
12403WAT      O50317   1.614   5.200   7.089 -0.2387 -0.4047  0.5368
12403WAT     H150318   1.528   5.184   7.084 -0.3109  0.1994 -0.5098
12403WAT     H250319   1.650   5.133   7.046  0.0079 -1.8950  2.8962
12403WAT    EPW50320   1.606   5.188   7.082  0.3727 -0.5447  0.1426
12404WAT      O50321   6.579   5.997   4.238  0.4291 -0.6474 -0.2058
12404WAT     H150322   6.630   5.970   4.172 -0.5413 -1.0618 -0.8112
12404WAT     H250323   6.513   6.037   4.197  0.1746 -0.2728  0.5541
12404WAT    EPW50324   6.576   5.999   4.222  0.0315 -0.1496  0.8495
12405WAT      O50325   4.908   5.770   7.386  0.0296  0.6011 -0.4596
12405WAT     H150326   4.850   5.834   7.375  0.0309  0.4473 -1.4526
12405WAT     H250327   4.984   5.812   7.392 -0.2482  0.9060  2.1467
12405WAT    EPW50328   4.910   5.786   7.385 -0.0861  0.0327 -0.5279
12406WAT      O50329   1.610   4.552   6.289  0.4822  0.0875 -0.2218
12406WAT     H150330   1.675   4.592   6.331  0.3670  0.1189 -0.0741
12406WAT     H250331   1.628   4.567   6.205  0.0532  1.0522 -0.1442
12406WAT    EPW50332   1.623   4.560   6.283 -0.1535  0.1802 -0.0621
12407WAT      O50333   4.192   0.910   7.408  0.3462 -0.1701 -0.0056
12407WAT     H150334   4.138   0.842   7.413 -0.4780  0.5396  1.1273
12407WAT     H250335   4.261   0.884   7.456 -0.4538  0.2035  1.3952
12407WAT    EPW50336   4.194   0.896   7.416  0.1736 -0.4093  0.3619
12408WAT      O50337   0.486   4.742   0.131 -0.2819  0.6615  0.6368
12408WAT     H150338   0.465   4.826   0.134 -0.7478  0.6664 -1.5158
12408WAT     H250339   0.564   4.742   0.092 -0.4401  0.0998  0.3056
12408WAT    EPW50340   0.495   4.754   0.126  0.4923  0.4730  0.1185
12409WAT      O50341   5.249   3.909   7.658  0.0459  0.0748 -0.1674
12409WAT     H150342   5.275   3.878   7.735  0.0470  2.2346  0.7455
12409WAT     H250343   5.165   3.886   7.653 -0.5993  1.8240  1.5572
12409WAT    EPW50344   5.241   3.901   7.668 -0.2964 -0.2248  0.1057
12410WAT      O50345   5.116   4.961   1.874  0.4129  0.0043 -0.0336
12410WAT     H150346   5.099   5.047   1.882  0.8885  0.3489 -2.1803
12410WAT     H250347   5.051   4.924   1.917 -0.3681  1.4440  0.1097
12410WAT    EPW50348   5.104   4.968   1.882 -0.6510  0.3149  0.0382
12411WAT      O50349   2.493   6.013   6.629 -0.3172  0.2868  0.0108
12411WAT     H150350   2.539   6.059   6.572  0.4451  0.4055  0.7075
12411WAT     H250351   2.478   6.069   6.695 -1.0704  0.1159 -0.0006
12411WAT    EPW50352   2.498   6.028   6.631 -0.2255  0.7804  0.2422
12412WAT      O50353   2.876   5.874   1.357  0.3498 -0.2112  0.1085
12412WAT     H150354   2.842   5.831   1.426 -0.1030  1.0554  0.7040
12412WAT     H250355   2.864   5.818   1.291 -0.0943 -1.0634  0.8814
12412WAT    EPW50356   2.869   5.859   1.358 -0.2228 -0.4867  0.8922
12413WAT      O50357   7.475   4.230   0.559 -0.5657 -0.0586  0.3991
12413WAT     H150358   7.451   4.314   0.550 -3.7052 -0.8382  0.4420
12413WAT     H250359   7.546   4.224   0.510 -1.0605  2.3220 -0.7683
12413WAT    EPW50360   7.482   4.242   0.550 -0.2157 -0.1873 -0.4849
12414WAT      O50361   1.724   4.381   1.544  0.4226 -0.1771 -0.1276
12414WAT     H150362   1.781   4.335   1.496  0.7994 -0.6425  0.7368
12414WAT     H250363   1.773   4.416   1.607 -0.2894 -0.9667  0.9131
12414WAT    EPW50364   1.739   4.379   1.546  0.0441 -0.1936  0.1259
12415WAT      O50365   3.527   1.669   5.683 -0.6550  0.0062 -0.3809
12415WAT     H150366   3.609   1.641   5.694 -0.4655  0.3301 -0.9249
12415WAT     H250367   3.521   1.738   5.735 -0.8304 -0.4747  0.2492
12415WAT    EPW50368   3.538   1.675   5.692 -0.1025 -0.4548  0.4849
12416WAT      O50369   2.182   6.950   7.667 -0.4612  0.2601 -0.0352
12416WAT     H150370   2.140   7.026   7.657 -0.1900  0.5524  0.9396
12416WAT     H250371   2.265   6.974   7.681 -0.4056 -0.1939  0.4562
12416WAT    EPW50372   2.188   6.965   7.668 -0.2608  0.2519  0.2212
12417WAT      O50373   1.630   3.031   5.939  0.4054 -0.4764 -0.6714
12417WAT     H150374   1.675   3.041   6.013 -0.8806 -1.4199  0.2810
12417WAT     H250375   1.617   2.945   5.934 -1.4040 -0.2418 -0.8004
12417WAT    EPW50376   1.635   3.020   5.949 -0.1680  0.4417  0.1314
12418WAT      O50377   4.393   6.406   7.935  0.2083  0.1223 -0.7201
12418WAT     H150378   4.333   6.386   7.874  1.1838  0.6256 -1.8909
12418WAT     H250379   4.435   6.331   7.947 -1.5581 -0.6434  1.2309
12418WAT    EPW50380   4.390   6.392   7.928  0.4332 -0.6290 -0.0129
12419WAT      O50381   3.306   5.222   7.711  0.3841 -0.3017 -0.2266
12419WAT     H150382   3.238   5.255   7.669  0.2194  0.1989  0.4230
12419WAT     H250383   3.292   5.136   7.708  1.0084 -0.3825 -2.2555
12419WAT    EPW50384   3.294   5.214   7.704  0.0420  0.7077  0.6746
12420WAT      O50385   4.874   2.525   1.091  0.2689  0.8096  0.2741
12420WAT     H150386   4.939   2.488   1.136  1.4587  0.6546 -1.4311
12420WAT     H250387   4.844   2.460   1.041 -1.3799  0.8340  1.1752
12420WAT    EPW50388   4.879   2.510   1.090  0.0908  0.1053  0.9932
12421WAT      O50389   1.786   6.277   1.983 -0.1579 -0.4705 -0.4150
12421WAT     H150390   1.799   6.192   1.970  0.1444 -1.2343  3.7341
12421WAT     H250391   1.860   6.314   1.955  0.3605 -1.7539 -0.7748
12421WAT    EPW50392   1.799   6.270   1.977  0.0800  0.0310 -0.1917
12422WAT      O50393   7.422   1.937   2.672  0.2482 -0.0490  0.0836
12422WAT     H150394   7.454   1.894   2.741  0.3915 -1.0553 -0.5860
12422WAT     H250395   7.447   2.020   2.686  2.6365 -0.6683 -0.0868
12422WAT    EPW50396   7.430   1.943   2.684 -0.1957  0.2344 -0.4027
12423WAT      O50397   0.645   3.081   0.812 -0.6054  0.7966  0.4798
12423WAT     H150398   0.562   3.055   0.816 -0.4967  0.3996  0.2052
12423WAT     H250399   0.670   3.082   0.895 -0.4489 -0.5256  0.4647
12423WAT    EPW50400   0.637   3.077   0.825 -0.1360 -0.1135 -0.1417
12424WAT      O50401   2.738   1.272   0.621  0.3189 -0.9880 -0.3339
12424WAT     H150402   2.805   1.221   0.600 -0.2707 -1.5825 -0.8057
12424WAT     H250403   2.671   1.216   0.626  0.0569 -0.6008  1.2646
12424WAT    EPW50404   2.738   1.256   0.619 -0.1825 -0.1368  0.2665
12425WAT      O50405   7.882   2.157   2.285 -0.2781 -0.2138 -0.3522
12425WAT     H150406   7.841   2.128   2.356 -0.8601 -0.0151 -0.6037
12425WAT     H250407   7.818   2.191   2.236  0.1817  0.0867 -0.7565
12425WAT    EPW50408   7.867   2.158   2.288 -0.2258 -0.2220  0.3444
12426WAT      O50409   2.538   4.698   6.681  0.1039  0.0259 -0.7740
12426WAT     H150410   2.563   4.737   6.755 -1.9383 -0.2406  0.1169
12426WAT     H250411   2.473   4.748   6.652 -1.2669 -1.5806 -0.6387
12426WAT    EPW50412   2.532   4.711   6.688  0.4294  0.1199 -0.5739
12427WAT      O50413   2.503   3.441   3.897 -0.4026 -0.1737  0.1760
12427WAT     H150414   2.559   3.401   3.845 -1.2089 -1.5743  0.3428
12427WAT     H250415   2.480   3.513   3.852  0.0539 -0.5827 -0.7238
12427WAT    EPW50416   2.508   3.446   3.883 -0.1428  0.0650  0.6155
12428WAT      O50417   0.722   7.447   7.923  0.5631 -0.5465  0.6835
12428WAT     H150418   0.776   7.516   7.923  0.1601 -0.2201 -0.2919
12428WAT     H250419   0.774   7.381   7.901  0.7784 -0.4237  0.8082
12428WAT    EPW50420   0.738   7.447   7.920  0.1027  0.0141  0.0682
12429WAT      O50421   1.204   6.840   4.245  0.3255  0.0473  0.0308
12429WAT     H150422   1.205   6.801   4.323  0.7863 -2.1547 -0.9955
12429WAT     H250423   1.120   6.833   4.221  0.6019 -1.4328 -0.6221
12429WAT    EPW50424   1.191   6.833   4.253 -0.0608 -0.7165 -0.5017
12430WAT      O50425   4.478   2.088   2.029 -0.0318 -0.9661  0.2956
12430WAT     H150426   4.401   2.057   2.056 -0.6711  0.4372  0.1632
12430WAT     H250427   4.509   2.025   1.978 -0.9322 -1.7014  0.6344
12430WAT    EPW50428   4.471   2.074   2.025 -0.5201  0.1208  0.2619
12431WAT      O50429   7.920   0.112   0.374 -0.7255 -0.0279  0.2189
12431WAT     H150430   7.869   0.159   0.426 -0.8039  0.6212 -0.4220
12431WAT     H250431   7.973   0.171   0.338 -0.0443 -0.5881  0.2799
12431WAT    EPW50432   7.921   0.127   0.376  0.1310 -0.4164 -0.1922
12432WAT      O50433   3.364   3.330   5.752  0.4639  0.3156 -0.3333
12432WAT     H150434   3.348   3.270   5.690  1.0329 -2.6099  2.1246
12432WAT     H250435   3.448   3.348   5.742  0.5843 -0.2409 -0.3620
12432WAT    EPW50436   3.374   3.324   5.741 -0.2974  0.5645  0.0337
12433WAT      O50437   2.583   6.653   6.526  0.1765 -0.6558  0.3285
12433WAT     H150438   2.540   6.663   6.451 -0.8201  1.3566  1.0928
12433WAT     H250439   2.581   6.567   6.540 -1.8685 -0.8298 -0.6967
12433WAT    EPW50440   2.577   6.642   6.517 -0.2878 -0.0768 -0.1745
12434WAT      O50441   0.172   6.843   3.295  0.0660  0.3209  0.2196
12434WAT     H150442   0.094   6.803   3.296  0.1127  0.2299  0.3029
12434WAT     H250443   0.188   6.859   3.379  0.1666  0.2797  0.2090
12434WAT    EPW50444   0.163   6.839   3.308 -0.1620  0.2261 -0.0428
12435WAT      O50445   2.215   5.481   6.427  0.0664 -0.3030  0.0175
12435WAT     H150446   2.298   5.467   6.405  0.6357  2.6028 -0.0345
12435WAT     H250447   2.186   5.537   6.367 -1.3573  0.1837  1.0839
12435WAT    EPW50448   2.223   5.487   6.415  0.3106  0.4679  0.2946
12436WAT      O50449   5.002   6.228   0.774 -0.2039 -0.4405  0.1277
12436WAT     H150450   5.088   6.217   0.782 -0.1054  1.2565  2.6375
12436WAT     H250451   4.995   6.299   0.724 -0.0333  0.3099  1.1303
12436WAT    EPW50452   5.014   6.237   0.768  0.2410  0.1018  0.1232
12437WAT      O50453   1.586   6.550   1.392 -0.0502  0.1759  0.5136
12437WAT     H150454   1.540   6.600   1.337 -0.8351  0.4303  1.3603
12437WAT     H250455   1.625   6.608   1.444  1.0018 -0.0520 -0.0070
12437WAT    EPW50456   1.585   6.566   1.392  0.0851 -0.1401 -0.1792
12438WAT      O50457   1.626   1.285   0.068 -0.3274 -0.7691  0.7672
12438WAT     H150458   1.684   1.231   0.105 -1.0770 -0.8508  1.8656
12438WAT     H250459   1.608   1.343   0.131 -0.6239 -0.0910  0.0797
12438WAT    EPW50460   1.632   1.286   0.083 -0.1084 -0.1531  0.2561
12439WAT      O50461   4.571   5.402   6.837  0.6999  0.2441 -0.0952
12439WAT     H150462   4.513   5.443   6.786 -0.0412 -0.3163  0.2681
12439WAT     H250463   4.521   5.364   6.898  1.5474  0.8409  1.0176
12439WAT    EPW50464   4.555   5.402   6.839  0.3134 -0.1172  0.2051
12440WAT      O50465   4.026   7.050   2.080 -0.0558 -0.5749  0.6633
12440WAT     H150466   4.109   7.072   2.090  0.1090 -0.2465 -1.1065
12440WAT     H250467   4.013   6.988   2.140  1.4141 -0.5204  1.0575
12440WAT    EPW50468   4.036   7.044   2.090 -0.5489  0.1185  0.2381
12441WAT      O50469   1.263   6.628   1.087  0.2134  0.2509 -0.0393
12441WAT     H150470   1.301   6.572   1.033 -0.2716  1.2767 -1.4949
12441WAT     H250471   1.253   6.700   1.039 -0.6432  1.0621  1.2795
12441WAT    EPW50472   1.267   6.630   1.072 -0.2920 -0.0442 -0.1383
12442WAT      O50473   0.298   5.522   2.458 -0.4945  0.3200  0.0087
12442WAT     H150474   0.373   5.514   2.502 -0.6942  0.0229  0.2964
12442WAT     H250475   0.298   5.606   2.434 -0.1447  0.3609  0.1415
12442WAT    EPW50476   0.309   5.533   2.461 -0.2140 -0.2923  0.6018
12443WAT      O50477   3.169   1.145   3.631 -0.1149 -1.1160  0.2392
12443WAT     H150478   3.251   1.115   3.622  0.3682  0.0449  0.6090
12443WAT     H250479   3.162   1.158   3.717 -0.1137  0.3451  0.0325
12443WAT    EPW50480   3.180   1.142   3.642 -0.2737  0.6510 -0.8514
12444WAT      O50481   7.097   0.226   0.205  0.3593  0.2123 -0.0430
12444WAT     H150482   7.094   0.158   0.258 -0.8736  1.6181  1.8196
12444WAT     H250483   7.182   0.244   0.198  0.5599  0.0359  1.5732
12444WAT    EPW50484   7.109   0.219   0.212 -0.0992 -0.2173  0.0722
12445WAT      O50485   5.284   0.482   7.473  0.1459  0.1997  0.3301
12445WAT     H150486   5.353   0.510   7.428 -1.0040  1.0376 -0.9776
12445WAT     H250487   5.231   0.551   7.476 -0.6916 -0.4426  1.2295
12445WAT    EPW50488   5.287   0.496   7.467 -0.2184 -0.5538 -1.4612
12446WAT      O50489   1.870   5.927   6.987 -0.1122  0.5700  0.2930
12446WAT     H150490   1.899   5.848   6.964  1.4669  0.8232  1.3009
12446WAT     H250491   1.891   5.933   7.071 -0.9135  1.7782  0.4322
12446WAT    EPW50492   1.877   5.916   6.996 -0.1181  0.4504 -0.0410
12447WAT      O50493   1.476   5.589   0.732 -0.3434 -0.1391 -0.0545
12447WAT     H150494   1.452   5.653   0.679 -0.2567  0.7081  0.9095
12447WAT     H250495   1.551   5.560   0.697 -0.6302 -0.0447 -0.7549
12447WAT    EPW50496   1.484   5.594   0.719  0.4406  0.0977  0.0730
12448WAT      O50497   5.739   6.047   1.607 -0.3206 -0.2256 -0.1428
12448WAT     H150498   5.678   6.087   1.656 -0.8352 -0.7911 -0.3053
12448WAT     H250499   5.765   5.981   1.657 -0.0948 -0.1911 -0.2164
12448WAT    EPW50500   5.734   6.043   1.621  0.3080 -0.0240 -0.0733
12449WAT      O50501   0.545   2.520   2.289  0.4516  0.7411  0.7262
12449WAT     H150502   0.501   2.488   2.357 -0.9239  2.5539  0.7722
12449WAT     H250503   0.514   2.473   2.222  1.3612 -0.6297  1.2240
12449WAT    EPW50504   0.534   2.509   2.289 -0.0737  0.1373  0.4438
12450WAT      O50505   0.821   5.727   1.799  0.2377 -0.1612  0.1874
12450WAT     H150506   0.823   5.640   1.798 -0.2218 -0.2122  1.3655
12450WAT     H250507   0.757   5.747   1.743  0.5513 -0.5644 -0.3212
12450WAT    EPW50508   0.812   5.717   1.791 -0.0833  0.3078 -0.0609
12451WAT      O50509   5.285   0.075   4.733 -0.0783 -0.9554  0.0038
12451WAT     H150510   5.291   0.100   4.816 -1.0560 -0.4034 -0.0716
12451WAT     H250511   5.238   0.002   4.736 -0.2974 -0.8202 -0.0728
12451WAT    EPW50512   5.279   0.068   4.746 -0.0285 -0.4133  0.2268
12452WAT      O50513   0.356   4.919   0.803 -0.2065 -0.0994  0.2174
12452WAT     H150514   0.353   4.839   0.838  1.0848  0.3611  1.4726
12452WAT     H250515   0.276   4.950   0.819 -0.3718 -0.7414  0.7188
12452WAT    EPW50516   0.343   4.911   0.810  0.0372 -0.4125  0.3799
12453WAT      O50517   1.417   6.114   3.518 -0.1759 -0.7958  0.0608
12453WAT     H150518   1.390   6.125   3.601 -0.4929 -1.6300  0.0816
12453WAT     H250519   1.501   6.092   3.527 -0.3465 -1.4321  0.2130
12453WAT    EPW50520   1.425   6.112   3.532  0.4968  0.8026 -0.2463
12454WAT      O50521   6.546   0.871   1.103 -0.1129 -0.2586 -0.2233
12454WAT     H150522   6.628   0.900   1.097 -0.0019 -0.6271 -0.5711
12454WAT     H250523   6.555   0.784   1.094 -0.3415 -0.5055  1.5416
12454WAT    EPW50524   6.560   0.862   1.100  0.0953 -0.1813 -0.3905
12455WAT      O50525   1.492   4.127   7.173  0.5228 -0.5474 -0.1040
12455WAT     H150526   1.446   4.191   7.135  1.6033 -0.8051 -1.9202
12455WAT     H250527   1.480   4.059   7.120 -0.0779 -1.7191  1.4626
12455WAT    EPW50528   1.483   4.127   7.160 -0.3591  0.2876 -0.1634
12456WAT      O50529   0.195   6.531   3.644 -0.3577 -0.1302 -0.3306
12456WAT     H150530   0.237   6.518   3.569  0.6407 -2.0951  0.4893
12456WAT     H250531   0.118   6.494   3.631  0.5789 -2.4697  0.2271
12456WAT    EPW50532   0.190   6.523   3.631  0.3498 -0.3586 -0.5229
12457WAT      O50533   0.496   4.867   3.154  0.2172 -0.0122 -0.4659
12457WAT     H150534   0.491   4.781   3.169  0.9525  0.0696  0.2638
12457WAT     H250535   0.574   4.877   3.118 -0.8309  0.0321 -2.9537
12457WAT    EPW50536   0.507   4.856   3.151  0.2021  0.0711  0.2530
12458WAT      O50537   3.605   8.046   3.033  0.1454 -0.5541 -0.5657
12458WAT     H150538   3.555   8.001   3.090 -0.6337  2.4793  1.3856
12458WAT     H250539   3.681   8.054   3.074  0.3523 -0.3209 -0.9907
12458WAT    EPW50540   3.609   8.041   3.047  0.3293 -0.2266 -0.6032
12459WAT      O50541   0.607   0.361   0.177  0.4122 -0.2669 -0.3647
12459WAT     H150542   0.666   0.425   0.178  0.9770 -0.7809  0.3544
12459WAT     H250543   0.617   0.323   0.099 -0.2931  0.8392 -1.0145
12459WAT    EPW50544   0.617   0.365   0.166 -0.0503 -0.2272  0.5911
12460WAT      O50545   4.281   7.143   5.289 -0.4304  0.0627  0.0398
12460WAT     H150546   4.309   7.090   5.226 -1.5037 -0.1811 -0.2465
12460WAT     H250547   4.238   7.205   5.247  0.4222  0.9344  0.4126
12460WAT    EPW50548   4.279   7.144   5.274 -0.1149 -0.4276 -0.0974
12461WAT      O50549   4.177   5.480   6.946  0.3430  0.0767  0.1742
12461WAT     H150550   4.095   5.509   6.955  0.0007 -1.1900  1.4964
12461WAT     H250551   4.225   5.552   6.960 -0.4900  0.2515  2.7377
12461WAT    EPW50552   4.172   5.495   6.949  0.2329  0.0148  0.0096
12462WAT      O50553   2.525   4.517   7.953  0.2103  0.3385 -0.6128
12462WAT     H150554   2.581   4.487   7.893  0.5848 -1.9401  0.7744
12462WAT     H250555   2.470   4.451   7.964 -0.4054  1.0541  0.8937
12462WAT    EPW50556   2.525   4.503   7.946  0.3045 -0.7718 -0.0505
12463WAT      O50557   4.010   1.955   0.184 -0.1243  0.1023  0.3670
12463WAT     H150558   3.968   1.911   0.121 -0.3052 -2.3097  2.0407
12463WAT     H250559   3.949   2.008   0.216 -1.2632 -1.6151  1.1706
12463WAT    EPW50560   3.995   1.957   0.179 -0.3094  0.2507 -0.2108
12464WAT      O50561   1.599   2.143   3.054  0.2410 -0.4158  0.7536
12464WAT     H150562   1.561   2.194   3.113 -0.3155  0.0767 -0.0061
12464WAT     H250563   1.611   2.067   3.096 -0.0036 -0.0293  1.5268
12464WAT    EPW50564   1.595   2.139   3.069 -0.2908 -0.4697 -0.1706
12465WAT      O50565   3.345   2.051   5.270 -0.2472  0.1616  0.2835
12465WAT     H150566   3.432   2.051   5.266 -0.2427 -1.3445 -1.1583
12465WAT     H250567   3.324   2.135   5.262  1.0715  0.4895 -0.0077
12465WAT    EPW50568   3.355   2.064   5.268 -0.0241 -0.4317 -0.2962
12466WAT      O50569   1.291   4.462   2.247 -0.1814  0.1736  0.1645
12466WAT     H150570   1.326   4.532   2.209  1.5891 -1.2834 -1.0480
12466WAT     H250571   1.334   4.395   2.211 -3.5885 -1.7609 -0.7892
12466WAT    EPW50572   1.302   4.462   2.236 -0.2359 -0.7339 -0.0669
12467WAT      O50573   1.599   4.079   0.033 -0.1123 -0.3107 -0.4139
12467WAT     H150574   1.597   4.113   0.113 -0.3817 -0.4187 -0.3757
12467WAT     H250575   1.528   4.029   0.030 -0.2988 -0.0282 -0.8437
12467WAT    EPW50576   1.588   4.077   0.044 -0.4491 -0.2657 -0.8898
12468WAT      O50577   2.942   4.082   6.499 -0.2184 -0.5753  0.0441
12468WAT     H150578   2.973   4.162   6.517 -1.0732 -0.1261 -0.4208
12468WAT     H250579   2.867   4.079   6.543 -0.6199 -0.7842 -0.6388
12468WAT    EPW50580   2.936   4.093   6.508  0.6769 -0.2542  0.4157
12469WAT      O50581   2.434   3.577   2.785 -0.5216 -0.0825  0.1915
12469WAT     H150582   2.422   3.607   2.866 -1.1928 -3.0512  1.3105
12469WAT     H250583   2.495   3.630   2.753  0.5190  0.6086  2.9919
12469WAT    EPW50584   2.441   3.590   2.792 -0.1453 -0.7338 -0.4635
12470WAT      O50585   0.209   6.013   1.812  0.3814 -0.1244 -0.0119
12470WAT     H150586   0.194   5.946   1.758  0.0059 -1.1490  1.3044
12470WAT     H250587   0.140   6.064   1.801 -0.3859 -1.0296  0.5021
12470WAT    EPW50588   0.197   6.011   1.802  0.1947  0.4061  0.0597
12471WAT      O50589   2.480   6.247   4.140 -0.4801  0.7799  0.0967
12471WAT     H150590   2.505   6.247   4.224  0.1069 -1.5294 -0.0172
12471WAT     H250591   2.407   6.200   4.141  0.9942 -1.6723 -1.0060
12471WAT    EPW50592   2.473   6.240   4.153 -0.4214 -0.1057  0.4106
12472WAT      O50593   1.665   0.026   6.120 -0.0331  0.5473 -0.1526
12472WAT     H150594   1.698  -0.009   6.192  1.0000  2.5695  0.4260
12472WAT     H250595   1.652   0.109   6.141 -1.7369  0.7299 -1.6596
12472WAT    EPW50596   1.668   0.033   6.134 -0.3956 -0.0561  0.4121
12473WAT      O50597   0.990   0.609   3.084 -0.6762 -0.1600 -0.9139
12473WAT     H150598   0.946   0.610   3.159  0.5898 -1.1997 -0.1131
12473WAT     H250599   1.049   0.672   3.095 -1.1979  0.4419 -1.5070
12473WAT    EPW50600   0.992   0.618   3.097 -0.4097  0.6388  0.4836
12474WAT      O50601   2.427   5.633   3.399 -0.7689  0.0219 -0.4289
12474WAT     H150602   2.462   5.556   3.422 -1.7303 -0.4234 -0.3984
12474WAT     H250603   2.380   5.614   3.328 -0.2656  0.7799 -0.9788
12474WAT    EPW50604   2.425   5.619   3.392 -0.8555  0.7246 -0.6239
12475WAT      O50605   4.348   3.961   5.873  0.9536  0.2572 -0.1992
12475WAT     H150606   4.316   3.919   5.804  2.0926 -1.4901  0.2866
12475WAT     H250607   4.321   4.043   5.861 -0.4740 -0.3791 -1.7164
12475WAT    EPW50608   4.339   3.967   5.861  0.1982 -0.4046 -0.4354
12476WAT      O50609   7.430   4.984   4.191 -0.5538 -0.0051  0.3859
12476WAT     H150610   7.405   5.011   4.270 -1.6600  0.4812 -0.1122
12476WAT     H250611   7.367   5.012   4.138  0.2294 -0.2028 -0.7023
12476WAT    EPW50612   7.417   4.992   4.195 -0.4453  0.0311  0.4636
12477WAT      O50613   3.978   0.379   5.017  0.2822 -0.0279  0.3181
12477WAT     H150614   3.924   0.348   4.956  1.0810  1.1820 -1.0599
12477WAT     H250615   3.975   0.466   5.006  0.4881  0.2298  1.9851
12477WAT    EPW50616   3.970   0.387   5.007  0.0508  0.4477 -0.4458
12478WAT      O50617   6.464   0.876   0.637 -0.3444 -0.3771  0.0065
12478WAT     H150618   6.472   0.800   0.681  0.6829  0.2901  1.0435
12478WAT     H250619   6.477   0.853   0.554 -1.3658 -1.5387  0.1379
12478WAT    EPW50620   6.467   0.861   0.632 -0.1720 -0.1153 -0.0488
12479WAT      O50621   6.439   0.200   4.433 -0.3753 -0.4224 -0.5410
12479WAT     H150622   6.390   0.183   4.503 -0.6821  0.9834 -0.3855
12479WAT     H250623   6.446   0.122   4.393  0.0520 -1.3172  1.1748
12479WAT    EPW50624   6.433   0.186   4.437  0.2579  0.2701  0.1117
12480WAT      O50625   1.394   3.218   0.284 -0.1034  0.4367  0.5479
12480WAT     H150626   1.307   3.217   0.294 -0.1242  0.0981  0.3478
12480WAT     H250627   1.411   3.141   0.248  0.3450  0.2690  1.1043
12480WAT    EPW50628   1.383   3.206   0.281  0.0444  0.1473  0.2161
12481WAT      O50629   3.586   2.574   6.424 -0.1333  0.1442  0.1441
12481WAT     H150630   3.656   2.544   6.381 -0.0074 -0.5688  0.8363
12481WAT     H250631   3.558   2.506   6.470 -1.3331  0.4059 -0.1609
12481WAT    EPW50632   3.592   2.560   6.424 -0.9776  0.0710 -0.1372
12482WAT      O50633   1.605   3.502   5.426 -0.0466 -0.4423 -0.4162
12482WAT     H150634   1.589   3.530   5.345 -2.5832 -1.1546 -0.2570
12482WAT     H250635   1.625   3.418   5.416 -0.0122 -0.4452 -0.3293
12482WAT    EPW50636   1.606   3.494   5.413 -0.0711  0.2268  0.5188
12483WAT      O50637   2.197   5.466   2.953  0.6136  0.1696  0.3806
12483WAT     H150638   2.217   5.536   2.906  0.1682  1.5707  2.1669
12483WAT     H250639   2.120   5.441   2.921  1.2116 -0.0964 -0.8881
12483WAT    EPW50640   2.188   5.472   2.942 -0.3568  0.3489 -0.0905
12484WAT      O50641   1.593   0.485   7.541  0.2589  0.3640 -0.4279
12484WAT     H150642   1.539   0.429   7.580 -0.8863  1.0917 -0.9223
12484WAT     H250643   1.672   0.460   7.569 -0.0233 -2.4799 -1.8657
12484WAT    EPW50644   1.597   0.473   7.551 -0.0866  0.0623  0.0923
12485WAT      O50645   3.972   3.909   7.067 -0.4445 -0.2312 -0.0447
12485WAT     H150646   3.887   3.925   7.063 -0.9644 -2.5605  0.4314
12485WAT     H250647   3.981   3.833   7.026  1.4081 -0.0409 -0.0784
12485WAT    EPW50648   3.961   3.900   7.061 -0.1257  0.3636  0.1359
12486WAT      O50649   3.242   6.492   7.300 -0.0441  0.3549 -0.2543
12486WAT     H150650   3.213   6.509   7.220 -1.3780  1.1036  0.3604
12486WAT     H250651   3.329   6.491   7.290 -0.1835  0.2458 -1.7230
12486WAT    EPW50652   3.251   6.494   7.287 -0.6843  0.6304 -1.1047
12487WAT      O50653   5.196   3.708   6.549 -0.2967  0.2007  0.5298
12487WAT     H150654   5.227   3.748   6.478 -0.6386  0.6823  0.6404
12487WAT     H250655   5.143   3.647   6.517 -1.1806  1.0278  0.3670
12487WAT    EPW50656   5.193   3.705   6.534 -0.2681  0.1160 -0.3836
12488WAT      O50657   3.695   6.020   2.229  0.1643 -0.1920  0.1429
12488WAT     H150658   3.653   6.084   2.270 -0.5398 -0.7606  0.3458
12488WAT     H250659   3.676   6.034   2.145  0.4915  0.1985  0.1346
12488WAT    EPW50660   3.686   6.031   2.223  0.1159  0.4347 -0.0144
12489WAT      O50661   4.966   0.520   2.019  0.1410  0.0252 -0.2153
12489WAT     H150662   4.983   0.472   1.948 -1.0247  0.6500 -0.9542
12489WAT     H250663   5.008   0.479   2.083  0.7391 -0.8811 -1.1704
12489WAT    EPW50664   4.975   0.507   2.018 -0.1736 -0.1050 -0.1351
12490WAT      O50665   1.951   4.589   7.486 -0.6826 -0.4502 -0.7574
12490WAT     H150666   1.954   4.651   7.547 -1.2798  1.0225 -2.1403
12490WAT     H250667   1.995   4.624   7.419 -0.3831 -1.8460 -1.3231
12490WAT    EPW50668   1.958   4.603   7.485 -0.0508  0.0202 -0.0292
12491WAT      O50669   6.161   6.371   1.346 -1.0163  0.1887 -0.1507
12491WAT     H150670   6.111   6.432   1.310 -3.2665  0.2690  2.7053
12491WAT     H250671   6.117   6.348   1.418  1.0008 -2.9314  0.3021
12491WAT    EPW50672   6.147   6.376   1.352 -0.0396 -0.6536 -0.6638
12492WAT      O50673   1.163   0.036   7.878  0.1683 -0.0229 -0.0533
12492WAT     H150674   1.149   0.122   7.878 -1.5957 -0.2510  1.2441
12492WAT     H250675   1.088   0.003   7.847 -0.0398 -1.1560  1.5483
12492WAT    EPW50676   1.150   0.043   7.873 -0.0635  0.1312 -0.0373
12493WAT      O50677   3.600   5.178   7.700  0.0971 -0.4125 -0.0045
12493WAT     H150678   3.644   5.206   7.770  0.1061 -0.0926 -0.1400
12493WAT     H250679   3.522   5.215   7.709  0.2041 -0.1035 -0.3392
12493WAT    EPW50680   3.595   5.187   7.712  0.1554  0.6677 -0.4946
12494WAT      O50681   0.970   0.235   0.151  0.1213  0.1156  0.1721
12494WAT     H150682   1.017   0.308   0.148  0.5053 -0.1247  0.2580
12494WAT     H250683   1.021   0.176   0.113 -0.3483 -0.0254 -0.2597
12494WAT    EPW50684   0.984   0.237   0.145 -0.4424  0.6776  0.3627
12495WAT      O50685   2.468   2.125   6.953 -0.7424 -0.3429 -0.5633
12495WAT     H150686   2.399   2.073   6.964 -1.3893  0.5572 -0.2509
12495WAT     H250687   2.453   2.191   7.008  1.0089 -0.7554  0.4485
12495WAT    EPW50688   2.456   2.127   6.963  0.4995 -0.2109 -0.0893
12496WAT      O50689   2.820   0.309   1.782 -0.3058 -0.2786  0.0181
12496WAT     H150690   2.885   0.261   1.817 -1.4388 -0.1044  2.6133
12496WAT     H250691   2.855   0.388   1.775  0.7275 -0.8387 -1.7198
12496WAT    EPW50692   2.835   0.314   1.786 -0.3055 -0.6395  0.1797
12497WAT      O50693   3.075   2.403   6.533 -0.2428 -0.2930 -0.0566
12497WAT     H150694   3.123   2.349   6.485 -2.8537 -2.4919 -0.4731
12497WAT     H250695   3.128   2.470   6.549  2.2876 -1.6936 -1.9058
12497WAT    EPW50696   3.090   2.405   6.529  0.6379 -0.9996  0.1230
12498WAT      O50697   2.734   4.497   7.025  0.0153  0.7249 -0.1634
12498WAT     H150698   2.690   4.451   7.084  1.9064 -1.2192 -0.1446
12498WAT     H250699   2.691   4.483   6.951  0.3748 -0.8511 -0.0928
12498WAT    EPW50700   2.721   4.488   7.023  0.5810  0.2003 -0.3831
12499WAT      O50701   6.059   2.839   2.127 -0.4943 -0.1531 -0.3525
12499WAT     H150702   6.005   2.895   2.165  0.4595  0.3318  0.3583
12499WAT     H250703   6.017   2.814   2.055 -1.7165  0.0672  0.2643
12499WAT    EPW50704   6.045   2.843   2.122  0.1118 -0.1099 -0.0241
12500WAT      O50705   1.777   5.954   2.422  0.1518 -0.0777 -0.0824
12500WAT     H150706   1.704   5.999   2.406 -0.1764  0.5193  2.6113
12500WAT     H250707   1.802   5.982   2.500  2.4394 -1.4152 -0.2380
12500WAT    EPW50708   1.770   5.965   2.431  0.1803  0.1238 -0.1075
12501WAT      O50709   3.927   7.078   7.092  0.5498  0.3823 -0.1644
12501WAT     H150710   4.005   7.098   7.059  0.2364 -0.0085 -1.1764
12501WAT     H250711   3.872   7.103   7.029 -0.0981  0.0538  0.2672
12501WAT    EPW50712   3.930   7.085   7.078  0.2945  0.2613 -0.7100
12502WAT      O50713   2.103   6.331   6.512  0.0883 -0.0819 -0.4277
12502WAT     H150714   2.079   6.280   6.446  0.9580 -0.2832 -0.6031
12502WAT     H250715   2.179   6.296   6.539  0.5952  0.9690 -0.4081
12502WAT    EPW50716   2.111   6.319   6.506  0.2640  0.0731 -0.3387
12503WAT      O50717   6.032   2.558   2.343  0.6402 -0.0644 -0.1648
12503WAT     H150718   6.018   2.472   2.351 -1.4939  0.3919  1.7870
12503WAT     H250719   5.987   2.580   2.272 -0.9104 -0.2050  0.7318
12503WAT    EPW50720   6.024   2.548   2.334 -0.0884 -0.1318 -0.3312
12504WAT      O50721   3.837   6.633   7.942 -0.6996  0.4699  0.3042
12504WAT     H150722   3.831   6.651   8.027 -1.7181 -0.1643  0.3845
12504WAT     H250723   3.763   6.666   7.909  0.0169  1.3774 -0.4864
12504WAT    EPW50724   3.825   6.641   7.950 -0.2630  0.3374 -0.3339
12505WAT      O50725   6.757   6.754   4.432 -0.5709 -0.7674 -0.1600
12505WAT     H150726   6.794   6.677   4.414  0.6479 -0.4560  0.8287
12505WAT     H250727   6.793   6.809   4.375  0.6388 -0.4443  0.8680
12505WAT    EPW50728   6.767   6.751   4.421  0.4190  0.0019  0.0215
12506WAT      O50729   1.743   3.249   3.281 -0.4681  0.1244  0.2866
12506WAT     H150730   1.689   3.271   3.346  0.1223  0.2928  0.7298
12506WAT     H250731   1.754   3.323   3.237 -0.9544 -0.0136 -0.0839
12506WAT    EPW50732   1.737   3.263   3.284 -0.7938 -0.0416 -0.5167
12507WAT      O50733   2.564   4.565   3.975 -0.0809  0.3349 -0.1808
12507WAT     H150734   2.500   4.550   4.032  1.3283  0.6738  1.5694
12507WAT     H250735   2.595   4.485   3.957  0.3455  0.3125  0.6138
12507WAT    EPW50736   2.559   4.551   3.981  0.3719  0.0844  0.2874
12508WAT      O50737   1.706   5.031   0.161 -0.5228 -0.5406 -0.3792
12508WAT     H150738   1.639   5.085   0.146 -0.7540 -0.6161  0.3593
12508WAT     H250739   1.707   5.023   0.248 -1.4301 -2.8734 -0.5021
12508WAT    EPW50740   1.696   5.038   0.171 -0.4725  0.1366  0.3655
12509WAT      O50741   7.955   1.235   4.227 -0.2864  0.3378  0.1405
12509WAT     H150742   7.971   1.150   4.226 -0.0935  0.2363 -3.5513
12509WAT     H250743   7.871   1.241   4.205 -0.0461  1.0400 -0.6685
12509WAT    EPW50744   7.945   1.224   4.224 -0.1982  0.6633  0.2827
12510WAT      O50745   1.627   6.177   3.827 -0.1521  0.2010 -0.2489
12510WAT     H150746   1.626   6.216   3.749 -0.2991 -0.9813 -0.8603
12510WAT     H250747   1.598   6.097   3.810  1.3665 -0.6011  0.7381
12510WAT    EPW50748   1.623   6.171   3.813  0.3666  0.6815 -0.4775
12511WAT      O50749   3.927   3.483   2.173  0.1477  0.0052 -0.7203
12511WAT     H150750   3.962   3.563   2.173  1.6583 -0.5416  1.8909
12511WAT     H250751   3.996   3.431   2.163 -0.5638 -1.0362 -0.3156
12511WAT    EPW50752   3.942   3.487   2.171 -0.5723  0.0136 -0.1406
12512WAT      O50753   1.540   7.156   3.006  0.1490  0.2863 -0.3984
12512WAT     H150754   1.534   7.100   3.072 -1.0833  0.2688 -0.5077
12512WAT     H250755   1.527   7.107   2.935  1.6492  0.2681 -0.7044
12512WAT    EPW50756   1.537   7.141   3.005  0.3523 -0.1733 -0.4661
12513WAT      O50757   3.365   5.494   5.122  0.6334  0.0768  0.2012
12513WAT     H150758   3.423   5.551   5.090 -0.5971  0.2864 -1.8409
12513WAT     H250759   3.392   5.481   5.204  0.7208  3.9888  1.0078
12513WAT    EPW50760   3.377   5.501   5.129 -0.3171 -0.4880 -0.3967
12514WAT      O50761   3.182   3.131   6.828  0.1723  0.3523  0.2482
12514WAT     H150762   3.256   3.087   6.845  1.0305  1.4303 -0.4897
12514WAT     H250763   3.208   3.215   6.830 -0.4194  0.7185 -2.4920
12514WAT    EPW50764   3.197   3.137   6.831 -0.2277  0.8627 -0.1804
12515WAT      O50765   4.399   1.794   5.506  0.0204  0.8619 -0.1005
12515WAT     H150766   4.436   1.873   5.504 -1.0620  1.3776 -1.1606
12515WAT     H250767   4.466   1.739   5.495  0.8422  1.5890  1.1036
12515WAT    EPW50768   4.414   1.797   5.504  0.4149 -0.0583  0.1497
12516WAT      O50769   1.990   4.417   5.454 -0.3419 -0.1403  0.8850
12516WAT     H150770   2.045   4.456   5.508 -1.2467  1.9411  0.3892
12516WAT     H250771   1.939   4.369   5.507  0.4999 -0.2928  1.5653
12516WAT    EPW50772   1.990   4.416   5.470 -0.2510 -0.7573  0.2779
12517WAT      O50773   3.418   7.399   5.604 -0.6443  0.0341 -0.1451
12517WAT     H150774   3.440   7.452   5.538 -1.0853  1.1394  0.5692
12517WAT     H250775   3.444   7.320   5.576  0.5167  0.6906 -1.0216
12517WAT    EPW50776   3.425   7.395   5.590  0.0666  0.1312  0.2114
12518WAT      O50777   2.234   3.054   6.648 -0.6473 -0.4716 -0.9906
12518WAT     H150778   2.271   2.975   6.654 -1.0725 -0.6985 -1.2715
12518WAT     H250779   2.276   3.101   6.709  1.0468 -0.3268 -2.1854
12518WAT    EPW50780   2.246   3.049   6.658  0.3261 -0.8834 -0.6062
12519WAT      O50781   3.099   5.806   4.841 -0.4991 -0.3759 -0.5236
12519WAT     H150782   3.033   5.795   4.786  0.6550 -1.7086 -1.7137
12519WAT     H250783   3.077   5.756   4.910 -2.1618  1.6584  0.5300
12519WAT    EPW50784   3.086   5.797   4.843  0.1038  0.3476 -0.0369
12520WAT      O50785   0.359   2.012   1.895  0.3084 -0.2914  0.0360
12520WAT     H150786   0.368   1.979   1.975 -1.0558 -1.1471 -0.1401
12520WAT     H250787   0.437   2.048   1.879 -0.0770  2.0413  2.6824
12520WAT    EPW50788   0.372   2.013   1.904  0.2580 -0.2800  0.0662
12521WAT      O50789   1.561   0.170   3.301 -0.0457  0.4075 -0.2566
12521WAT     H150790   1.581   0.140   3.222  1.3028 -1.4972  0.7351
12521WAT     H250791   1.475   0.184   3.297  0.0530  0.7003 -2.1302
12521WAT    EPW50792   1.551   0.168   3.289  0.0104  0.6997 -0.0785
12522WAT      O50793   4.792   7.602   3.914  0.4034  0.1502  0.1663
12522WAT     H150794   4.724   7.632   3.868  0.1943 -0.4471  0.0816
12522WAT     H250795   4.768   7.521   3.937  0.8698  0.1220  0.5816
12522WAT    EPW50796   4.778   7.595   3.911 -0.7985 -0.6836 -0.9205
12523WAT      O50797   2.625   6.348   4.613 -0.3933  0.2064 -0.6275
12523WAT     H150798   2.647   6.327   4.532 -0.1725  0.3077 -0.5952
12523WAT     H250799   2.539   6.335   4.615 -0.0653 -2.4632 -0.0839
12523WAT    EPW50800   2.616   6.343   4.602 -0.2425 -0.5625 -0.4288
12524WAT      O50801   1.714   6.057   3.542  0.1754  0.0437 -0.1652
12524WAT     H150802   1.728   6.010   3.470  2.5113 -1.4522  1.1610
12524WAT     H250803   1.777   6.117   3.540  0.1476  0.1012  0.5423
12524WAT    EPW50804   1.725   6.059   3.531 -0.0209 -0.3174 -0.3196
12525WAT      O50805   3.297   4.575   0.889 -0.2331 -0.1642  0.2447
12525WAT     H150806   3.299   4.521   0.821  1.9714  3.2276 -2.7883
12525WAT     H250807   3.375   4.561   0.927 -0.3198 -0.2100  0.4028
12525WAT    EPW50808   3.309   4.565   0.884 -0.2777  0.7777 -0.4200
12526WAT      O50809   1.409   5.118   4.591  0.0992 -0.4186  0.0519
12526WAT     H150810   1.460   5.048   4.580 -0.6989 -1.4278  2.2006
12526WAT     H250811   1.330   5.089   4.568  0.0874  0.5432 -1.3061
12526WAT    EPW50812   1.405   5.104   4.586 -0.2638 -0.2079 -0.5137
12527WAT      O50813   0.441   5.709   1.290 -0.0284 -0.1212 -0.1384
12527WAT     H150814   0.412   5.627   1.282 -1.8340  0.3901  0.6697
12527WAT     H250815   0.395   5.753   1.231 -0.0358  0.5442  0.3548
12527WAT    EPW50816   0.430   5.703   1.280  0.0150  0.1062  0.2769
12528WAT      O50817   2.224   5.249   5.151  0.1621  0.0164  0.6684
12528WAT     H150818   2.142   5.278   5.149 -0.2588 -1.0121 -2.4732
12528WAT     H250819   2.272   5.323   5.156 -0.8966  0.7235  0.6812
12528WAT    EPW50820   2.219   5.265   5.152 -0.2903  0.1212  0.2082
12529WAT      O50821   0.866   3.156   4.282  0.4772  0.0663  0.3420
12529WAT     H150822   0.814   3.205   4.331  0.4761  0.7217 -0.2967
12529WAT     H250823   0.887   3.208   4.215  1.0578 -0.5587  0.0168
12529WAT    EPW50824   0.862   3.171   4.279  0.1377 -0.6258  0.3990
12530WAT      O50825   2.486   2.131   0.541  0.2930 -0.9538 -0.0360
12530WAT     H150826   2.496   2.201   0.490  3.2546 -2.2772 -1.5150
12530WAT     H250827   2.446   2.073   0.489  0.5296 -1.3029  0.1673
12530WAT    EPW50828   2.482   2.133   0.526 -0.2850 -0.2216 -0.1783
12531WAT      O50829   3.648   2.408   6.997  0.0410  0.1965  0.1376
12531WAT     H150830   3.564   2.430   6.999  0.3819  1.8441 -1.1369
12531WAT     H250831   3.689   2.481   7.024  1.0846 -0.3542  0.1120
12531WAT    EPW50832   3.642   2.422   7.001  0.6405 -0.4639  0.6833
12532WAT      O50833   3.943   1.805   3.441 -0.4284 -0.0556  0.5512
12532WAT     H150834   3.998   1.754   3.486 -1.0021 -1.9199 -0.7194
12532WAT     H250835   3.906   1.749   3.384 -2.9909  1.3106  0.7547
12532WAT    EPW50836   3.946   1.789   3.439 -0.0714  0.4911 -0.2423
12533WAT      O50837   6.512   4.782   3.359 -0.5659 -0.2909 -0.0743
12533WAT     H150838   6.484   4.818   3.434 -0.2098  0.3720 -0.2545
12533WAT     H250839   6.563   4.716   3.386 -1.8332 -1.1764  0.2583
12533WAT    EPW50840   6.516   4.778   3.374  0.0340 -0.2751  0.2112
12534WAT      O50841   7.430   1.267   0.868 -0.3938 -0.0385 -0.0894
12534WAT     H150842   7.364   1.258   0.812  1.1116 -2.1715 -1.7177
12534WAT     H250843   7.499   1.285   0.817  0.9470 -1.4890  1.0695
12534WAT    EPW50844   7.431   1.268   0.852 -0.1177 -0.3820 -0.0419
12535WAT      O50845   0.565   3.641   0.499  1.0432  0.6616 -0.3145
12535WAT     H150846   0.570   3.618   0.583 -0.7073 -0.7086 -0.5502
12535WAT     H250847   0.516   3.713   0.500 -1.7969 -1.1491 -0.3654
12535WAT    EPW50848   0.559   3.648   0.511  0.0494 -0.1460 -0.1148
12536WAT      O50849   4.714   5.686   6.673 -0.3844 -0.5285 -0.3570
12536WAT     H150850   4.750   5.653   6.746  0.8391  1.8272  0.2213
12536WAT     H250851   4.737   5.629   6.611  0.7332 -1.2919  0.7060
12536WAT    EPW50852   4.723   5.673   6.675 -0.3490  0.5176 -0.0597
12537WAT      O50853   1.169   7.498   1.474  0.0996  0.0214  0.1490
12537WAT     H150854   1.116   7.433   1.495  0.3102 -0.3774 -0.5140
12537WAT     H250855   1.122   7.570   1.490 -0.3053 -0.3013  0.4227
12537WAT    EPW50856   1.155   7.499   1.479 -0.4801 -0.4060  0.2494
12538WAT      O50857   7.444   4.003   3.323 -0.0792 -0.3541 -0.4005
12538WAT     H150858   7.461   4.014   3.408  0.4601  1.0281 -0.6596
12538WAT     H250859   7.357   3.998   3.319 -0.1300 -0.0202  0.1967
12538WAT    EPW50860   7.434   4.004   3.335  0.4720  0.3001 -0.2397
12539WAT      O50861   2.054   5.471   3.361  0.2506  0.3579 -0.5166
12539WAT     H150862   2.019   5.547   3.385  1.3124  0.8494 -0.4335
12539WAT     H250863   2.085   5.486   3.281  0.0231 -0.1491 -0.7068
12539WAT    EPW50864   2.054   5.484   3.353 -0.5817 -0.4812 -0.3366
12540WAT      O50865   2.121   6.411   5.194  0.0937 -0.0244 -0.4316
12540WAT     H150866   2.148   6.449   5.268  0.5934 -0.4228 -0.3990
12540WAT     H250867   2.070   6.471   5.157  0.6035  0.5457 -0.2263
12540WAT    EPW50868   2.118   6.425   5.200 -0.2304  0.5048 -0.9416
12541WAT      O50869   1.587   1.278   5.341  0.4918  0.1624  0.1013
12541WAT     H150870   1.649   1.216   5.338  0.2958 -0.0106 -0.4914
12541WAT     H250871   1.576   1.300   5.258 -0.9081 -0.4798  0.0782
12541WAT    EPW50872   1.595   1.272   5.329 -0.7600 -0.5467  0.0915
12542WAT      O50873   5.207   5.135   5.894  0.0204  0.0051 -0.0226
12542WAT     H150874   5.187   5.219   5.881 -0.1441  0.1286  1.0089
12542WAT     H250875   5.257   5.136   5.965  0.7448 -0.6866 -0.5001
12542WAT    EPW50876   5.212   5.148   5.902 -0.2230 -0.0195 -0.1908
12543WAT      O50877   3.959   7.055   3.936  0.0388  0.0060 -0.7196
12543WAT     H150878   4.046   7.046   3.932  0.1637 -0.5940  1.7542
12543WAT     H250879   3.932   6.978   3.965 -1.3183  0.2598 -1.2600
12543WAT    EPW50880   3.968   7.043   3.940 -0.7928  0.0464 -0.3638
12544WAT      O50881   1.952   6.436   7.805  0.2550 -0.6985 -0.0817
12544WAT     H150882   2.024   6.403   7.768  0.0661 -0.0037 -1.1236
12544WAT     H250883   1.920   6.489   7.743 -0.2317  0.3029  1.0071
12544WAT    EPW50884   1.958   6.439   7.790 -0.7632  0.2119 -0.3010
12545WAT      O50885   1.138   7.417   2.092  0.2941  0.0016  0.4574
12545WAT     H150886   1.211   7.374   2.071  0.6547  1.4927 -1.6895
12545WAT     H250887   1.153   7.498   2.063 -2.0523  0.4699  0.3579
12545WAT    EPW50888   1.151   7.423   2.085 -0.5011  0.1287  0.5134
12546WAT      O50889   4.984   0.989   0.763 -0.4309  0.9450  0.0772
12546WAT     H150890   5.032   1.025   0.699  1.4348  0.7157  1.2810
12546WAT     H250891   4.955   0.915   0.727  1.0905  0.5177 -0.3426
12546WAT    EPW50892   4.987   0.984   0.748 -0.5874  0.5678  0.3459
12547WAT      O50893   2.050   5.060   5.403  0.3772 -0.1658  0.5105
12547WAT     H150894   2.108   5.025   5.349  0.2187  1.2265 -0.6197
12547WAT     H250895   2.072   5.028   5.481  0.5170 -2.3566 -0.3526
12547WAT    EPW50896   2.062   5.050   5.407  0.8735 -0.2096  0.0646
12548WAT      O50897   7.231   5.079   1.526 -0.2372  0.0207  0.1008
12548WAT     H150898   7.193   5.001   1.535 -0.4806  0.2908  1.6853
12548WAT     H250899   7.164   5.132   1.505  0.0666 -0.3092 -1.9053
12548WAT    EPW50900   7.215   5.075   1.524  0.4356  0.1170  0.5590
12549WAT      O50901   7.718   5.856   3.375 -0.3030 -0.1323  0.2371
12549WAT     H150902   7.686   5.837   3.453  0.6994 -1.2955  0.3978
12549WAT     H250903   7.652   5.896   3.334 -1.5629 -1.4282  0.9299
12549WAT    EPW50904   7.703   5.860   3.380  0.2491  0.6659  0.0798
12550WAT      O50905   2.477   6.699   4.677 -0.1831  0.7843 -0.1692
12550WAT     H150906   2.518   6.766   4.715  0.1213  1.5144 -1.7166
12550WAT     H250907   2.431   6.663   4.743  0.5083  1.8290  0.9238
12550WAT    EPW50908   2.476   6.704   4.692 -0.1970 -0.1979 -0.0151
12551WAT      O50909   1.670   3.683   3.486 -0.3086  0.2496 -0.1685
12551WAT     H150910   1.718   3.617   3.517 -0.2635  0.5871  0.5146
12551WAT     H250911   1.591   3.670   3.521 -0.4003  0.3349 -0.3447
12551WAT    EPW50912   1.666   3.671   3.496 -0.3956  0.3345 -0.4892
12552WAT      O50913   2.150   6.460   4.212  0.2644 -0.2403  0.2797
12552WAT     H150914   2.086   6.499   4.257  0.4382  0.6759 -0.2421
12552WAT     H250915   2.142   6.376   4.234 -0.2396  0.0560  1.2926
12552WAT    EPW50916   2.139   6.453   4.222 -0.0000  0.2725 -0.8090
12553WAT      O50917   1.496   4.191   1.136 -0.3010 -0.0826  0.0276
12553WAT     H150918   1.518   4.171   1.053 -1.9680  1.0815 -0.7484
12553WAT     H250919   1.421   4.149   1.148  0.2745 -0.8174  1.2392
12553WAT    EPW50920   1.488   4.182   1.125 -0.0210 -0.0899 -0.1046
12554WAT      O50921   1.933   1.568   7.420 -0.1487  1.0036  0.0558
12554WAT     H150922   1.914   1.533   7.498  0.1152  0.6844 -0.0223
12554WAT     H250923   1.968   1.502   7.376  0.1306  1.3031 -0.1762
12554WAT    EPW50924   1.935   1.553   7.425  0.2591 -0.0819 -0.7499
12555WAT      O50925   1.955   2.497   7.862  0.7806  0.3012 -0.5082
12555WAT     H150926   2.019   2.524   7.810 -1.0744  0.2820 -2.9478
12555WAT     H250927   1.944   2.414   7.840  2.0124 -0.7255  2.2618
12555WAT    EPW50928   1.963   2.489   7.851 -0.3281  0.4410  0.3098
12556WAT      O50929   1.125   3.150   0.238  0.5705 -0.6186 -0.5717
12556WAT     H150930   1.066   3.213   0.250  0.7539 -0.3174 -1.2092
12556WAT     H250931   1.085   3.079   0.268 -0.1289 -0.4221 -1.0096
12556WAT    EPW50932   1.110   3.149   0.244 -0.7401  0.6004  0.3066
12557WAT      O50933   2.904   7.128   5.421 -0.1159  0.2927 -0.1570
12557WAT     H150934   2.961   7.178   5.464 -1.3840  0.3382  1.5723
12557WAT     H250935   2.951   7.092   5.357  1.8212  0.4042  1.1493
12557WAT    EPW50936   2.919   7.130   5.418 -0.0654 -0.5379  0.1417
12558WAT      O50937   3.395   2.006   7.756  0.7392 -0.3291 -0.1798
12558WAT     H150938   3.360   2.013   7.835 -1.6509 -0.1869 -1.1811
12558WAT     H250939   3.440   1.931   7.759  0.7991 -0.2520  1.3203
12558WAT    EPW50940   3.397   1.996   7.768  0.0688  0.0849  0.8397
12559WAT      O50941   2.148   2.489   1.493  0.4038 -0.2610  0.0338
12559WAT     H150942   2.062   2.480   1.483  0.5319 -0.4819 -0.9802
12559WAT     H250943   2.177   2.407   1.499  0.4865 -0.1720  1.0142
12559WAT    EPW50944   2.139   2.475   1.493  0.2142 -0.3284 -0.2156
12560WAT      O50945   2.682   1.782   0.925  0.2109  0.1978  0.1741
12560WAT     H150946   2.642   1.730   0.867  0.8624 -1.3946  1.0928
12560WAT     H250947   2.666   1.743   1.001  0.6841  1.4009  0.9190
12560WAT    EPW50948   2.673   1.768   0.928  0.4877 -0.3370  0.0790
12561WAT      O50949   3.016   5.130   5.329  0.5304  0.6982  0.4084
12561WAT     H150950   3.072   5.109   5.393 -1.4158 -1.0579  1.6594
12561WAT     H250951   2.972   5.197   5.362  1.6313  1.8909 -0.4599
12561WAT    EPW50952   3.018   5.137   5.343 -0.0158 -0.4692 -0.5642
12562WAT      O50953   0.644   6.530   4.756 -0.1409 -0.2496 -0.1832
12562WAT     H150954   0.573   6.527   4.704  0.2664 -0.9402 -0.7158
12562WAT     H250955   0.674   6.611   4.745 -0.5957 -0.0936 -0.2979
12562WAT    EPW50956   0.638   6.542   4.747  0.2289  0.4242 -0.2938
12563WAT      O50957   7.449   6.288   3.521 -0.8274 -0.5937  0.0858
12563WAT     H150958   7.409   6.314   3.448  1.5268 -1.1365 -1.5187
12563WAT     H250959   7.474   6.363   3.559 -2.0751 -0.3112  0.4065
12563WAT    EPW50960   7.447   6.303   3.516  0.1405 -0.0122  0.7339
12564WAT      O50961   2.224   1.308   4.503  0.0904 -0.4672 -0.1912
12564WAT     H150962   2.297   1.321   4.457  1.6912 -0.0369  2.3192
12564WAT     H250963   2.253   1.282   4.581 -2.4598 -0.4341  0.8505
12564WAT    EPW50964   2.239   1.306   4.508 -1.4503 -0.0203 -0.0051
12565WAT      O50965   0.218   7.638   2.351 -0.4551  0.0486  0.6179
12565WAT     H150966   0.189   7.698   2.406  0.3614 -0.5357  1.7219
12565WAT     H250967   0.247   7.574   2.403 -1.3293 -1.3286 -0.5097
12565WAT    EPW50968   0.218   7.637   2.367  0.2277  0.7583 -0.6014
12566WAT      O50969   6.308   3.461   2.279  0.4023  0.0489 -0.3151
12566WAT     H150970   6.296   3.522   2.340 -0.0167  0.3131 -0.6561
12566WAT     H250971   6.269   3.494   2.208 -2.6446 -1.9517  0.2522
12566WAT    EPW50972   6.300   3.475   2.277  0.2170 -0.6178 -0.2041
12567WAT      O50973   2.527   5.470   6.656 -0.1942  0.1554 -0.2258
12567WAT     H150974   2.532   5.415   6.724 -0.0886 -0.8417 -1.0092
12567WAT     H250975   2.557   5.546   6.688 -0.3384 -0.2422  0.8849
12567WAT    EPW50976   2.533   5.473   6.671 -0.1823 -0.5980  0.1937
12568WAT      O50977   2.946   7.415   5.230  0.0879  0.2190 -0.2927
12568WAT     H150978   3.020   7.403   5.185 -0.7748 -2.7486 -1.1543
12568WAT     H250979   2.973   7.458   5.301  2.2255  1.2116 -1.5925
12568WAT    EPW50980   2.961   7.419   5.234 -0.4551 -0.2459 -0.9262
12569WAT      O50981   1.648   5.953   1.106  0.0477  0.7629  0.2012
12569WAT     H150982   1.699   6.012   1.146  0.1080  1.2449 -0.5710
12569WAT     H250983   1.584   5.940   1.163  0.3421  1.1465  0.6282
12569WAT    EPW50984   1.646   5.960   1.120 -0.3611 -0.0524 -0.3927
12570WAT      O50985   7.939   4.373   2.150 -0.4343 -0.4855 -0.0653
12570WAT     H150986   8.024   4.392   2.148 -0.7738  1.1315 -0.4118
12570WAT     H250987   7.928   4.334   2.227  0.1452  1.8450  1.2824
12570WAT    EPW50988   7.950   4.370   2.161  0.4945 -0.3567  0.2516
12571WAT      O50989   2.539   6.188   1.468 -0.0855  0.5585  0.1614
12571WAT     H150990   2.556   6.184   1.553 -0.6539  0.0248  0.2562
12571WAT     H250991   2.452   6.199   1.466  0.0293  1.4335 -0.3307
12571WAT    EPW50992   2.529   6.189   1.480 -0.4172  0.0076  0.2286
12572WAT      O50993   4.309   5.378   2.701 -0.4068 -0.1372  0.1767
12572WAT     H150994   4.364   5.413   2.643  1.0823 -2.3951  0.0931
12572WAT     H250995   4.331   5.416   2.776  0.5616 -0.2142 -0.0548
12572WAT    EPW50996   4.320   5.388   2.703 -0.5599  0.1958 -0.2403
12573WAT      O50997   6.240   3.759   3.581  0.2636  0.8347 -0.4952
12573WAT     H150998   6.191   3.691   3.603 -0.8699  0.9089 -2.5596
12573WAT     H250999   6.296   3.766   3.647 -2.7021  1.0110  2.2442
12573WAT    EPW51000   6.241   3.750   3.594  0.8503  0.1956  0.3703
12574WAT      O51001   7.452   0.491   0.814  0.0636 -0.6772 -0.0966
12574WAT     H151002   7.415   0.556   0.859  2.2365 -0.0503  0.9462
12574WAT     H251003   7.468   0.430   0.874  0.8347 -0.8500 -0.4578
12574WAT    EPW51004   7.449   0.492   0.829 -0.3009  0.2556  0.4181
12575WAT      O51005   0.181   3.056   4.040 -0.1107 -0.1044 -0.3666
12575WAT     H151006   0.101   3.087   4.026 -0.9883 -2.4503 -1.0311
12575WAT     H251007   0.232   3.108   3.992 -1.8544 -1.4380 -4.0665
12575WAT    EPW51008   0.177   3.068   4.031 -0.2807  0.0291  0.1584
12576WAT      O51009   4.879   4.817   1.943 -0.1917 -0.1575 -0.0510
12576WAT     H151010   4.878   4.792   2.027 -1.0593 -0.6861 -0.2046
12576WAT     H251011   4.891   4.742   1.900  0.2832  0.1176 -0.4005
12576WAT    EPW51012   4.881   4.802   1.949  0.0074  0.3429 -0.8536
12577WAT      O51013   1.976   0.738   2.230  0.3503  0.1577 -0.0035
12577WAT     H151014   1.955   0.807   2.280  1.2456  0.9329 -0.6607
12577WAT     H251015   2.063   0.743   2.225  0.2391  0.7580 -2.4995
12577WAT    EPW51016   1.986   0.749   2.237 -0.7632 -0.4042  0.0404
12578WAT      O51017   1.214   1.538   4.157 -0.2998 -0.0681 -0.1699
12578WAT     H151018   1.235   1.616   4.122  0.2648 -0.0997  0.0876
12578WAT     H251019   1.190   1.558   4.238 -0.4893 -0.1229 -0.2137
12578WAT    EPW51020   1.214   1.553   4.164  0.0801 -0.5048 -0.2251
12579WAT      O51021   2.413   4.012   1.328 -0.3949  0.5086 -0.2179
12579WAT     H151022   2.366   3.975   1.265  2.1079  0.3891 -2.1651
12579WAT     H251023   2.435   4.090   1.294  1.4981  0.2051  0.2226
12579WAT    EPW51024   2.409   4.018   1.314  0.7920 -0.2376 -0.1377
12580WAT      O51025   5.349   6.787   2.948 -0.0472 -0.1807  0.0442
12580WAT     H151026   5.337   6.727   2.886 -0.4457 -2.8190  2.4552
12580WAT     H251027   5.339   6.742   3.022 -0.1748  2.8690  2.0639
12580WAT    EPW51028   5.345   6.771   2.950  0.0445 -0.0447 -0.5335
12581WAT      O51029   7.320   2.594   3.298 -0.2860  0.2940  0.4440
12581WAT     H151030   7.395   2.614   3.338 -0.1325  0.1057  0.2528
12581WAT     H251031   7.270   2.563   3.362  0.4589 -1.3835  0.2566
12581WAT    EPW51032   7.324   2.592   3.313 -0.4046 -0.1065 -0.2300
12582WAT      O51033   0.515   2.488   3.816 -0.4677  0.1859 -0.1961
12582WAT     H151034   0.599   2.493   3.794 -0.6019  2.5955 -0.4470
12582WAT     H251035   0.518   2.466   3.901  0.3359 -1.0855 -0.5315
12582WAT    EPW51036   0.528   2.485   3.826  0.7545 -0.3475 -0.0334
12583WAT      O51037   3.057   4.276   3.118  0.1783  0.3057 -0.4184
12583WAT     H151038   2.989   4.238   3.079  0.7038 -0.9042 -0.2065
12583WAT     H251039   3.077   4.221   3.182  0.9543  0.9715 -0.0667
12583WAT    EPW51040   3.050   4.262   3.122 -0.2539 -0.1740 -0.6584
12584WAT      O51041   1.318   6.398   4.997  0.7196  0.9991 -0.5313
12584WAT     H151042   1.279   6.366   5.068  1.9950  1.4725  0.4197
12584WAT     H251043   1.262   6.457   4.967  0.0274  0.5706 -0.1019
12584WAT    EPW51044   1.304   6.402   5.003  0.2662 -0.2287 -0.2328
12585WAT      O51045   6.537   4.343   3.254 -0.1782  0.0649 -0.0167
12585WAT     H151046   6.511   4.357   3.336 -0.2912 -3.2613  0.6492
12585WAT     H251047   6.463   4.331   3.210 -0.0444 -1.2086  0.0866
12585WAT    EPW51048   6.523   4.344   3.260 -0.2032  0.2330 -0.8029
12586WAT      O51049   7.817   2.901   3.592 -0.0078 -0.6867 -0.1706
12586WAT     H151050   7.782   2.933   3.665  0.7886 -0.7607  0.2583
12586WAT     H251051   7.817   2.815   3.605  0.4363 -0.6826 -0.1022
12586WAT    EPW51052   7.812   2.893   3.605  0.3900  0.4680 -0.6852
12587WAT      O51053   3.830   5.734   5.828  0.4894  0.1559  0.1639
12587WAT     H151054   3.797   5.677   5.771 -0.1467  0.1350  0.5435
12587WAT     H251055   3.909   5.701   5.847  0.9375  0.4447 -1.1004
12587WAT    EPW51056   3.837   5.721   5.823  0.7394  0.0712 -0.6472
12588WAT      O51057   2.600   6.916   3.419  0.1533  0.0858 -0.2734
12588WAT     H151058   2.544   6.929   3.353 -0.5267 -1.7935 -0.1145
12588WAT     H251059   2.549   6.892   3.485  0.6779  3.0673  1.4105
12588WAT    EPW51060   2.584   6.915   3.419 -0.1146  0.0062  0.3518
12589WAT      O51061   6.935   4.470   3.002  0.5667 -0.2811  0.1149
12589WAT     H151062   6.872   4.410   2.997 -1.0386  1.1248  1.9933
12589WAT     H251063   7.008   4.422   3.012 -0.1055 -1.9494 -2.1691
12589WAT    EPW51064   6.936   4.454   3.003 -0.2725  0.0086 -0.2821
12590WAT      O51065   2.025   6.188   4.216 -0.3910 -0.6687 -0.1646
12590WAT     H151066   2.093   6.139   4.192  0.2395 -0.2870  0.7483
12590WAT     H251067   1.977   6.195   4.144  1.4860  0.6106 -1.3798
12590WAT    EPW51068   2.028   6.182   4.202  0.2564 -0.1834  0.0215
12591WAT      O51069   2.496   3.453   5.218  0.5100 -0.4691 -0.2497
12591WAT     H151070   2.475   3.517   5.274 -0.1854 -0.6596 -0.2872
12591WAT     H251071   2.573   3.425   5.247 -0.0263 -0.8389  0.8560
12591WAT    EPW51072   2.504   3.459   5.231 -0.0994 -0.2419 -0.1139
12592WAT      O51073   2.329   4.631   5.816  0.2821 -0.7238  0.1992
12592WAT     H151074   2.254   4.650   5.856 -0.5639 -1.2523 -1.0607
12592WAT     H251075   2.378   4.703   5.828 -0.9912  0.2659 -0.2248
12592WAT    EPW51076   2.326   4.645   5.823 -0.0263  0.0516 -0.5110
12593WAT      O51077   0.189   5.840   2.967 -0.5309 -0.2543 -0.0129
12593WAT     H151078   0.180   5.763   2.928 -0.3631  0.3421 -1.2923
12593WAT     H251079   0.258   5.875   2.927 -1.9742  1.5038 -1.1229
12593WAT    EPW51080   0.198   5.834   2.956  0.3579  0.6318 -0.4815
12594WAT      O51081   1.886   6.884   1.782 -0.3148 -0.1858  0.2647
12594WAT     H151082   1.884   6.927   1.857  0.3387 -0.4493  0.4356
12594WAT     H251083   1.887   6.947   1.722 -0.0781  0.0319  0.4976
12594WAT    EPW51084   1.886   6.900   1.784  0.0705  0.1901  0.0532
12595WAT      O51085   3.274   5.749   4.483  0.4669 -0.4072 -0.3074
12595WAT     H151086   3.310   5.749   4.563  0.6527 -0.7308 -0.3918
12595WAT     H251087   3.189   5.759   4.499  0.3034 -2.1107  0.0245
12595WAT    EPW51088   3.267   5.751   4.497  0.0358 -0.5136 -0.2039
12596WAT      O51089   2.756   5.624   8.022 -0.5616  0.2133 -0.0889
12596WAT     H151090   2.669   5.622   8.034 -0.9264 -2.3329 -2.1674
12596WAT     H251091   2.765   5.670   7.948 -0.1731  0.1937 -0.0515
12596WAT    EPW51092   2.744   5.630   8.013 -0.0527 -0.2381 -0.8722
12597WAT      O51093   7.519   7.035   3.683  0.3917  0.0515  0.4339
12597WAT     H151094   7.469   7.020   3.753  0.9340 -0.1550  0.7857
12597WAT     H251095   7.534   7.121   3.686  0.8747 -0.0463  0.8929
12597WAT    EPW51096   7.514   7.045   3.694 -0.1945 -0.3043 -0.2221
12598WAT      O51097   2.584   6.816   4.216  0.1578  0.0554  0.0346
12598WAT     H151098   2.651   6.828   4.272  0.6502 -0.1608 -0.4934
12598WAT     H251099   2.532   6.760   4.257  1.0739 -0.9811 -0.1695
12598WAT    EPW51100   2.586   6.810   4.230 -0.4394  0.1751  0.1270
12599WAT      O51101   0.437   0.460   4.431  0.4266 -0.1242 -0.0754
12599WAT     H151102   0.420   0.376   4.450  0.5588 -0.1274  0.0292
12599WAT     H251103   0.369   0.503   4.466  0.6162 -0.1398  0.3159
12599WAT    EPW51104   0.424   0.454   4.439 -0.2412  0.1792 -0.8845
12600WAT      O51105   5.891   6.542   3.527  0.0641  0.4973 -0.0653
12600WAT     H151106   5.894   6.611   3.580  2.1295 -0.5106  1.2805
12600WAT     H251107   5.812   6.509   3.539 -0.7779  2.2765 -0.3429
12600WAT    EPW51108   5.880   6.547   3.536  0.3274 -0.3586 -0.6902
12601WAT      O51109   5.539   5.178   2.354  0.0342 -0.0265 -0.0476
12601WAT     H151110   5.493   5.168   2.280  0.6629 -1.3923 -0.2888
12601WAT     H251111   5.570   5.259   2.348 -0.8658  0.2799 -0.7405
12601WAT    EPW51112   5.537   5.189   2.342  0.4163 -0.6374  0.0739
12602WAT      O51113   3.676   7.186   4.762 -0.3580 -0.1152 -0.4443
12602WAT     H151114   3.657   7.198   4.678  2.1158  0.3745 -1.0111
12602WAT     H251115   3.631   7.114   4.782 -0.0073 -1.0110 -2.5656
12602WAT    EPW51116   3.667   7.177   4.752 -0.2775 -0.5616 -0.4409
12603WAT      O51117   7.901   1.142   2.264  0.0927 -0.1271  0.1858
12603WAT     H151118   7.869   1.165   2.342  1.4230  0.7813  0.4926
12603WAT     H251119   7.917   1.218   2.225  0.1286 -0.5764 -0.6910
12603WAT    EPW51120   7.898   1.156   2.270 -0.8208  0.2191  0.4197
12604WAT      O51121   0.310   4.639   4.293 -0.0312 -0.6068  0.4465
12604WAT     H151122   0.254   4.572   4.293  0.1161 -0.7310  0.2188
12604WAT     H251123   0.300   4.675   4.214 -0.5995  0.0600  0.8032
12604WAT    EPW51124   0.300   4.635   4.281 -0.1723  0.1818  1.0521
12605WAT      O51125   2.801   4.033   1.608 -0.1114 -0.1247 -0.0400
12605WAT     H151126   2.867   4.053   1.662 -0.1771  0.1601 -0.0613
12605WAT     H251127   2.839   3.985   1.546  0.3948  1.2550 -0.8663
12605WAT    EPW51128   2.816   4.029   1.607  0.1114 -0.4231  0.2085
12606WAT      O51129   2.355   6.070   2.792  0.0876  0.2248  0.3527
12606WAT     H151130   2.301   6.100   2.853 -1.5557 -0.5997 -0.6179
12606WAT     H251131   2.302   6.031   2.735  1.8615 -2.7504  0.5209
12606WAT    EPW51132   2.339   6.069   2.793  0.5327  0.0425  0.4326
12607WAT      O51133   0.361   4.516   2.769 -0.4158  0.6680  0.2378
12607WAT     H151134   0.363   4.472   2.844  1.0709  0.9918  0.4297
12607WAT     H251135   0.413   4.584   2.785  0.7110  0.2335 -1.3790
12607WAT    EPW51136   0.369   4.520   2.783  0.8962  0.2258 -0.2758
12608WAT      O51137   6.917   1.634   3.666  0.1526  0.5454  0.0323
12608WAT     H151138   6.897   1.613   3.749  1.6302  0.4483  0.3828
12608WAT     H251139   6.894   1.563   3.621  0.9402 -0.0915  0.6100
12608WAT    EPW51140   6.910   1.620   3.672 -0.3144  0.0695  0.0877
12609WAT      O51141   2.533   7.907   7.947 -0.4136  0.1437  0.4887
12609WAT     H151142   2.478   7.924   7.883 -0.2876  0.1415  0.3796
12609WAT     H251143   2.485   7.916   8.019 -0.3383  1.0424  0.4460
12609WAT    EPW51144   2.518   7.911   7.948 -0.6203  0.0369  0.3849
12610WAT      O51145   1.763   3.130   5.685 -0.1796  0.1631 -0.2825
12610WAT     H151146   1.730   3.154   5.762  0.9865 -0.8994  0.6030
12610WAT     H251147   1.714   3.062   5.662 -0.4045  0.3601 -0.3942
12610WAT    EPW51148   1.751   3.124   5.693  0.0089 -0.3596 -0.7651
12611WAT      O51149   2.236   3.608   0.490  0.4708 -0.0768  0.0923
12611WAT     H151150   2.231   3.525   0.461  1.7372 -0.0830 -0.1977
12611WAT     H251151   2.246   3.599   0.576 -0.3090 -0.1869  0.1732
12611WAT    EPW51152   2.237   3.594   0.498  0.5003 -0.3994 -0.2600
12612WAT      O51153   1.281   6.039   1.713 -0.1684  0.0892 -0.2674
12612WAT     H151154   1.346   6.047   1.770  0.6447 -0.8876 -0.9968
12612WAT     H251155   1.267   5.953   1.710 -1.1860  0.2459 -0.4644
12612WAT    EPW51156   1.288   6.027   1.721 -0.1503 -0.0922 -0.1267
12613WAT      O51157   0.362   0.121   0.822  0.9433 -0.1377  0.9116
12613WAT     H151158   0.323   0.044   0.836  0.0314  0.4706  1.7837
12613WAT     H251159   0.417   0.103   0.757  1.3735 -1.7401  1.6546
12613WAT    EPW51160   0.364   0.107   0.814  0.2688  0.0086 -0.7288
12614WAT      O51161   4.050   7.097   4.526  0.5074  0.2981 -0.6815
12614WAT     H151162   4.129   7.126   4.502 -0.3447  2.3979 -1.2156
12614WAT     H251163   4.017   7.164   4.571  0.1602 -1.7188  2.3338
12614WAT    EPW51164   4.057   7.111   4.529 -0.2234  0.7011 -0.7900
12615WAT      O51165   2.393   5.443   7.185 -0.3415 -0.2202 -0.1165
12615WAT     H151166   2.357   5.490   7.249  1.7911 -0.2614  1.2316
12615WAT     H251167   2.328   5.430   7.130 -2.1883  0.2408  1.8168
12615WAT    EPW51168   2.378   5.448   7.187 -0.3283 -0.4256 -0.1740
12616WAT      O51169   0.737   7.717   4.346  0.1217  0.6359 -0.5160
12616WAT     H151170   0.656   7.750   4.345  0.3380  1.2716  1.0487
12616WAT     H251171   0.777   7.759   4.280 -0.6179  0.8443 -0.8403
12616WAT    EPW51172   0.731   7.728   4.336  0.2000  0.4580  0.5840
12617WAT      O51173   2.338   5.351   2.029  0.2662 -0.1956  0.3036
12617WAT     H151174   2.298   5.274   2.037  0.4105 -0.1714  1.3436
12617WAT     H251175   2.287   5.396   1.975 -0.2423 -0.7356  0.3327
12617WAT    EPW51176   2.325   5.346   2.022 -0.3677 -0.3326  0.3618
12618WAT      O51177   0.401   7.005   2.503  0.1661  0.4529 -0.3861
12618WAT     H151178   0.445   6.996   2.578  1.4984 -3.4488 -1.3571
12618WAT     H251179   0.460   7.040   2.449  0.7121 -0.7877 -0.6244
12618WAT    EPW51180   0.417   7.009   2.506  0.1569 -0.0451 -0.5364
12619WAT      O51181   7.497   7.399   1.688 -0.0913 -0.3341  0.1854
12619WAT     H151182   7.448   7.378   1.757 -1.4978 -0.3254 -0.7481
12619WAT     H251183   7.548   7.329   1.676  0.0111 -0.4190  1.0926
12619WAT    EPW51184   7.497   7.386   1.696  0.1137  0.4687 -0.9637
12620WAT      O51185   6.430   7.425   3.403  0.3696 -0.4364 -0.0339
12620WAT     H151186   6.509   7.450   3.375  1.0361 -1.4951  0.8433
12620WAT     H251187   6.379   7.493   3.382  1.2113 -0.3105 -1.9045
12620WAT    EPW51188   6.434   7.439   3.396  0.2794 -0.4384 -0.1519
12621WAT      O51189   0.380   0.631   4.132  0.2624  0.4002 -0.3814
12621WAT     H151190   0.359   0.560   4.177 -1.9339  2.0780  1.4770
12621WAT     H251191   0.365   0.696   4.188  1.4467  2.3982 -2.2353
12621WAT    EPW51192   0.374   0.630   4.147 -0.0621 -0.1884 -0.4344
12622WAT      O51193   0.990   4.703   5.394  0.3237 -0.1148 -0.4568
12622WAT     H151194   1.053   4.671   5.445 -0.1893 -0.9460 -0.3229
12622WAT     H251195   0.949   4.631   5.364  0.6491  0.3345 -2.1000
12622WAT    EPW51196   0.993   4.688   5.397  0.3267  0.4029 -0.2386
12623WAT      O51197   2.968   0.567   1.751  0.5599 -0.4037  0.2040
12623WAT     H151198   2.937   0.624   1.809  0.9967  0.1116 -0.0431
12623WAT     H251199   2.922   0.585   1.678 -0.4919 -1.5374  0.5644
12623WAT    EPW51200   2.957   0.578   1.749  0.5191  0.3769  0.2685
12624WAT      O51201   5.842   6.339   3.198 -0.1118 -0.5843  0.6655
12624WAT     H151202   5.895   6.403   3.173 -1.2982  0.6195  1.1285
12624WAT     H251203   5.781   6.337   3.136 -1.2490  0.2098  1.6913
12624WAT    EPW51204   5.841   6.348   3.185  0.6184 -0.0464 -0.3256
12625WAT      O51205   0.877   0.086   2.776 -0.1756 -0.6732 -0.3730
12625WAT     H151206   0.866   0.006   2.810 -0.3750  0.3084  2.1028
12625WAT     H251207   0.954   0.111   2.809 -0.7167  0.6226 -0.0590
12625WAT    EPW51208   0.887   0.078   2.786 -0.1184 -0.4764  0.0527
12626WAT      O51209   6.738   2.732   3.304 -0.0436  0.0572 -0.2099
12626WAT     H151210   6.712   2.696   3.229 -1.1029  0.1093  0.1090
12626WAT     H251211   6.769   2.810   3.279 -2.0255  0.8370 -0.4582
12626WAT    EPW51212   6.739   2.738   3.289 -0.4914 -0.0783 -0.5221
12627WAT      O51213   4.783   3.612   5.440  0.4369  0.3619 -0.2026
12627WAT     H151214   4.724   3.643   5.496  0.3592  1.2600 -0.7663
12627WAT     H251215   4.856   3.608   5.487  0.1856  0.3363  0.1856
12627WAT    EPW51216   4.785   3.616   5.455 -0.6576 -0.1750  0.1780
12628WAT      O51217   1.865   7.579   2.828  0.4600 -0.5442  0.1036
12628WAT     H151218   1.877   7.492   2.831  1.0218 -0.4872 -0.3470
12628WAT     H251219   1.940   7.610   2.860  0.5595 -0.2133 -0.4417
12628WAT    EPW51220   1.878   7.571   2.833 -0.4615 -0.2248 -0.6742
12629WAT      O51221   8.015   7.056   1.222  0.2246  0.0116 -0.8045
12629WAT     H151222   7.987   7.123   1.173  1.3795 -0.3428 -1.9975
12629WAT     H251223   8.101   7.071   1.229  0.0726  0.1580  1.3305
12629WAT    EPW51224   8.024   7.068   1.216  0.3626  0.1277  0.3253
12630WAT      O51225   0.479   4.145   0.337  0.3345  0.1401 -0.1297
12630WAT     H151226   0.522   4.209   0.296  1.5288 -0.0712  0.7626
12630WAT     H251227   0.434   4.187   0.399  1.7003  0.0658  0.9387
12630WAT    EPW51228   0.478   4.161   0.340  0.2275 -0.5985  0.4665
12631WAT      O51229   2.610   4.212   6.282 -0.0852 -0.2174  0.3987
12631WAT     H151230   2.665   4.143   6.279 -1.2883 -1.1878 -0.3963
12631WAT     H251231   2.650   4.271   6.232 -0.7243 -1.7136 -2.0695
12631WAT    EPW51232   2.624   4.210   6.274 -0.1969  0.3831  0.1066
12632WAT      O51233   0.274   1.426   3.711  0.1819  1.0486 -0.7742
12632WAT     H151234   0.222   1.446   3.643 -3.4862 -2.2546  0.6489
12632WAT     H251235   0.307   1.349   3.689 -1.5907 -0.4042  1.2605
12632WAT    EPW51236   0.271   1.418   3.698  0.5137 -0.1442  0.1567
12633WAT      O51237   2.227   0.836   3.069 -0.1253  0.9418  0.0988
12633WAT     H151238   2.202   0.820   3.151  0.3022 -0.6023 -0.0463
12633WAT     H251239   2.291   0.895   3.079 -0.6969  1.4712  0.7896
12633WAT    EPW51240   2.233   0.843   3.083  0.0842 -0.0953 -0.1136
12634WAT      O51241   2.953   6.511   5.917  0.3798 -0.1588 -0.0885
12634WAT     H151242   2.933   6.460   5.849 -1.0291 -0.9433  0.8720
12634WAT     H251243   3.013   6.464   5.960 -0.8245 -1.0137  0.7283
12634WAT    EPW51244   2.959   6.496   5.913 -0.2724  0.5414  0.4444
12635WAT      O51245   1.847   3.993   4.274 -0.3120 -0.3229  0.1392
12635WAT     H151246   1.861   3.946   4.202  1.1564 -2.6658  1.7974
12635WAT     H251247   1.765   4.021   4.264  0.6637  1.8336 -3.6126
12635WAT    EPW51248   1.837   3.990   4.262  0.2533 -0.4550 -0.2030
12636WAT      O51249   5.375   4.106   4.012 -0.2429  0.8154 -0.0159
12636WAT     H151250   5.293   4.132   4.029 -0.8344 -0.5230 -0.7300
12636WAT     H251251   5.424   4.171   4.045 -1.5629  1.4278  0.8140
12636WAT    EPW51252   5.370   4.120   4.019 -0.2808 -0.1753 -0.4172
12637WAT      O51253   2.337   5.601   2.216  0.0578  0.7329 -0.0686
12637WAT     H151254   2.333   5.590   2.303  2.4005  0.9332  0.1184
12637WAT     H251255   2.371   5.526   2.188  0.5131  1.1549 -0.6657
12637WAT    EPW51256   2.341   5.588   2.225  0.3844 -0.0148 -0.3299
12638WAT      O51257   1.802   0.284   2.109 -0.1188  0.3639 -0.2176
12638WAT     H151258   1.747   0.248   2.165 -0.3492  1.3116  0.1898
12638WAT     H251259   1.846   0.342   2.158  1.8308 -0.9294 -0.3368
12638WAT    EPW51260   1.800   0.287   2.124  0.5026 -0.0044 -0.1012
12639WAT      O51261   0.920   0.881   4.574 -0.0548  0.6833  0.3494
12639WAT     H151262   0.950   0.963   4.563 -1.7491  1.2506 -0.4562
12639WAT     H251263   0.954   0.837   4.507 -0.2359  1.0776 -0.0061
12639WAT    EPW51264   0.929   0.887   4.562  0.1340  0.4976 -0.4837
12640WAT      O51265   2.829   3.151   4.808 -0.0012  0.1904  0.6283
12640WAT     H151266   2.805   3.203   4.874  0.9961  2.4175 -0.6367
12640WAT     H251267   2.916   3.161   4.805  0.1196 -0.9782 -0.1401
12640WAT    EPW51268   2.838   3.160   4.817 -0.1625 -0.1148  0.3017
12641WAT      O51269   2.592   3.250   3.317 -0.2558  0.0828  0.0804
12641WAT     H151270   2.642   3.186   3.283 -0.5003  0.3006 -0.7193
12641WAT     H251271   2.647   3.295   3.367  0.0874 -0.3463  0.0911
12641WAT    EPW51272   2.608   3.247   3.319 -0.3152  0.0325 -0.0393
12642WAT      O51273   3.632   5.617   6.600 -0.2398  0.3941 -0.2045
12642WAT     H151274   3.643   5.686   6.548 -1.1881  0.9533  0.3035
12642WAT     H251275   3.695   5.626   6.659 -1.4142  1.8603  0.9105
12642WAT    EPW51276   3.643   5.629   6.601 -0.1161 -0.6210  0.0251
12643WAT      O51277   6.262   7.286   0.558 -0.4086  0.5087 -0.1105
12643WAT     H151278   6.214   7.245   0.618 -0.5691  0.9352  0.0549
12643WAT     H251279   6.322   7.226   0.537 -0.2322  0.4149  0.6163
12643WAT    EPW51280   6.264   7.271   0.564 -0.6264  0.1050  0.2276
12644WAT      O51281   5.946   5.028   7.315 -0.4130 -0.6718  0.2205
12644WAT     H151282   5.935   4.955   7.269 -0.5254  0.3084 -1.3822
12644WAT     H251283   5.865   5.057   7.329 -0.3955 -1.1428  1.3727
12644WAT    EPW51284   5.933   5.021   7.310  0.0136 -0.6976 -0.5611
12645WAT      O51285   5.678   0.331   6.090  0.1773 -0.2821  0.3958
12645WAT     H151286   5.630   0.337   6.017 -1.1594  0.5941  1.2919
12645WAT     H251287   5.733   0.399   6.083 -1.1780  0.9495  0.9936
12645WAT    EPW51288   5.679   0.342   6.078 -0.3445 -0.1180 -0.1809
12646WAT      O51289   0.825   7.330   4.479 -0.2689 -0.5581  0.5083
12646WAT     H151290   0.754   7.381   4.479 -0.2731 -0.5640  0.5169
12646WAT     H251291   0.796   7.254   4.448 -0.4111 -0.7598  1.1190
12646WAT    EPW51292   0.810   7.326   4.474  0.6433 -0.4330 -0.3121
12647WAT      O51293   7.093   6.927   2.270  0.6106 -0.3476  0.6337
12647WAT     H151294   7.058   6.964   2.341  0.4353  0.2699  0.2349
12647WAT     H251295   7.116   6.995   2.221 -1.2053 -0.7272 -0.8438
12647WAT    EPW51296   7.091   6.942   2.273 -0.2464  0.1532 -0.2992
12648WAT      O51297   4.739   7.411   5.446  0.0936 -0.2780  0.4690
12648WAT     H151298   4.660   7.375   5.451 -0.4205  0.6067 -0.8685
12648WAT     H251299   4.733   7.466   5.379  1.2617  1.2813  1.5610
12648WAT    EPW51300   4.727   7.413   5.437  0.1408  0.3460 -0.4329
12649WAT      O51301   2.780   5.537   4.188  0.1934 -0.6028  0.1166
12649WAT     H151302   2.721   5.474   4.182 -0.6993  0.1308  0.8538
12649WAT     H251303   2.819   5.522   4.265  0.5029 -0.6841 -0.0529
12649WAT    EPW51304   2.777   5.526   4.198  0.5429  0.5951  0.2603
12650WAT      O51305   7.394   5.310   2.882 -0.2981  0.0897  0.5877
12650WAT     H151306   7.360   5.350   2.812 -0.6818 -1.0208  0.1225
12650WAT     H251307   7.458   5.364   2.907 -0.1349  0.4960 -0.6399
12650WAT    EPW51308   7.399   5.324   2.875 -0.7063  0.4217  0.0178
12651WAT      O51309   7.925   4.274   1.889  0.0153  0.0318 -0.1482
12651WAT     H151310   7.841   4.252   1.879  0.2114 -2.9729  2.9524
12651WAT     H251311   7.927   4.311   1.968  1.6174 -0.1169 -0.1022
12651WAT    EPW51312   7.913   4.276   1.899  0.3733  0.2128 -0.1824
12652WAT      O51313   7.056   0.020   0.406  0.0808  0.5503 -0.1056
12652WAT     H151314   7.114  -0.037   0.438  0.3270  1.3624  0.9637
12652WAT     H251315   7.014   0.047   0.478 -0.2697  1.4384 -0.6403
12652WAT    EPW51316   7.058   0.016   0.422  0.3139 -0.0613  0.0189
12653WAT      O51317   2.600   5.798   5.400  0.2274  0.5685  0.1215
12653WAT     H151318   2.570   5.774   5.322  2.0023  1.2637 -0.8318
12653WAT     H251319   2.643   5.872   5.383  1.3497  0.3022  1.6126
12653WAT    EPW51320   2.602   5.806   5.386 -0.2993  0.2635  0.1436
12654WAT      O51321   0.164   3.611   4.711  0.6052  0.2010 -0.4015
12654WAT     H151322   0.221   3.545   4.700 -0.7593 -1.1063 -0.0732
12654WAT     H251323   0.117   3.610   4.637  1.7534  2.0939 -1.2215
12654WAT    EPW51324   0.165   3.601   4.699 -0.1469  0.3837  0.4627
12655WAT      O51325   1.622   4.144   1.666  0.0682  0.5103 -0.3653
12655WAT     H151326   1.553   4.132   1.720 -0.1929  0.4924 -0.6996
12655WAT     H251327   1.604   4.219   1.627  1.3600  1.6974  1.1998
12655WAT    EPW51328   1.609   4.153   1.668  0.1510  0.7263  0.0935
12656WAT      O51329   0.445   7.817   1.108  0.5107  0.6848  0.8149
12656WAT     H151330   0.474   7.734   1.106  1.5276  1.0283  0.5952
12656WAT     H251331   0.487   7.851   1.177 -0.1026  0.9520  1.0638
12656WAT    EPW51332   0.456   7.810   1.118  0.4263 -0.0361 -0.1878
12657WAT      O51333   3.935   4.732   4.124 -0.2775  0.2508  0.4223
12657WAT     H151334   3.906   4.738   4.206  0.5132  0.6853  0.6842
12657WAT     H251335   4.002   4.678   4.130 -0.5629 -0.1620 -0.0447
12657WAT    EPW51336   3.941   4.725   4.137  0.4216 -0.6432 -0.1264
12658WAT      O51337   7.396   3.007   1.037 -0.0477  0.4356 -0.5185
12658WAT     H151338   7.408   2.999   0.951  2.9946 -0.7281 -0.1030
12658WAT     H251339   7.424   3.088   1.055  0.1011  0.3771 -0.4915
12658WAT    EPW51340   7.402   3.018   1.027  0.1264  0.1399  0.1677
12659WAT      O51341   7.931   3.085   0.867 -0.0420  0.3134 -0.7446
12659WAT     H151342   7.960   3.028   0.808 -0.8677  0.9227 -1.7777
12659WAT     H251343   7.846   3.066   0.873 -0.0101  0.4116  0.0897
12659WAT    EPW51344   7.923   3.074   0.859 -0.0332 -0.4844 -0.2636
12660WAT      O51345   6.281   0.153   4.648 -0.1630  0.6253  0.0288
12660WAT     H151346   6.258   0.090   4.704 -0.5247  0.6051 -0.1393
12660WAT     H251347   6.205   0.176   4.611  0.0422  0.7914 -0.2930
12660WAT    EPW51348   6.266   0.147   4.651 -0.3653 -0.6241  0.3398
12661WAT      O51349   0.505   5.232   1.438  0.2771  0.2271  0.2596
12661WAT     H151350   0.466   5.251   1.514  0.0306 -1.0394  0.4624
12661WAT     H251351   0.590   5.244   1.455  0.0849  2.8178 -0.1314
12661WAT    EPW51352   0.512   5.237   1.452 -0.5571  0.5287  0.3055
12662WAT      O51353   4.910   7.256   3.362  0.7059 -0.0554 -0.0633
12662WAT     H151354   4.864   7.230   3.431  0.7606 -0.1220 -0.0513
12662WAT     H251355   4.927   7.340   3.379 -1.7789  0.7903 -1.3740
12662WAT    EPW51356   4.906   7.264   3.375 -0.2846  0.1428 -0.1684
12663WAT      O51357   3.216   5.794   3.148  0.2529 -0.1315 -0.3067
12663WAT     H151358   3.257   5.736   3.097 -1.0312  0.7860 -2.5306
12663WAT     H251359   3.183   5.851   3.091 -1.9119  0.5778  1.5356
12663WAT    EPW51360   3.217   5.794   3.132  0.0516 -0.3184  0.0367
12664WAT      O51361   4.788   6.649   4.979  0.1718 -0.2703 -0.1973
12664WAT     H151362   4.795   6.655   5.066  0.3012  0.6537 -0.2611
12664WAT     H251363   4.750   6.571   4.967  0.6347 -0.6455  0.6591
12664WAT    EPW51364   4.783   6.638   4.990  0.4288 -0.1556 -0.2510
12665WAT      O51365   1.856   6.973   2.065 -0.0737  0.3157 -0.4023
12665WAT     H151366   1.826   7.054   2.078  0.8444  0.5706  0.2710
12665WAT     H251367   1.789   6.923   2.088 -0.0989  0.8708  0.8119
12665WAT    EPW51368   1.841   6.978   2.070 -0.3144 -0.0890 -0.3911
12666WAT      O51369   7.592   6.832   2.237 -0.5726 -0.6415  0.1394
12666WAT     H151370   7.629   6.868   2.307  0.0707 -1.3659  0.1915
12666WAT     H251371   7.517   6.800   2.268 -0.8139  0.0170  0.2438
12666WAT    EPW51372   7.586   6.832   2.252  0.0626  0.5174  0.2897
12667WAT      O51373   5.160   2.476   7.757  0.6168  0.4686  0.3823
12667WAT     H151374   5.207   2.448   7.689 -0.1160  1.1315 -0.4213
12667WAT     H251375   5.083   2.438   7.746  0.6132  0.2455  1.1003
12667WAT    EPW51376   5.156   2.466   7.745  0.5891 -0.1573  0.2817
12668WAT      O51377   6.854   3.719   3.653  0.3346 -1.1984  0.1361
12668WAT     H151378   6.906   3.778   3.691 -1.1645  0.4950 -0.2746
12668WAT     H251379   6.875   3.724   3.568 -0.0552 -0.9355  0.0485
12668WAT    EPW51380   6.865   3.728   3.646 -0.1733  0.0288  0.0329
12669WAT      O51381   7.221   1.393   2.840 -0.6198  0.3090 -0.1554
12669WAT     H151382   7.143   1.430   2.827 -0.5339  0.7764  0.5611
12669WAT     H251383   7.270   1.459   2.870  1.2846  1.1773 -4.3594
12669WAT    EPW51384   7.217   1.408   2.842 -0.3504 -0.4876 -0.4296
12670WAT      O51385   7.502   5.045   2.193 -0.2105 -0.1730 -0.2444
12670WAT     H151386   7.478   5.129   2.196  0.9209  0.1432  0.7709
12670WAT     H251387   7.588   5.048   2.206 -0.0280 -1.4498 -0.9677
12670WAT    EPW51388   7.511   5.058   2.195 -0.2385  0.1297 -0.6678
12671WAT      O51389   2.297   3.793   5.066 -0.0855 -0.0432 -0.4020
12671WAT     H151390   2.380   3.819   5.058  0.8198 -2.6228 -0.2053
12671WAT     H251391   2.266   3.845   5.128  1.8140  0.1259  0.5021
12671WAT    EPW51392   2.305   3.804   5.074 -0.6017 -0.4604  0.1718
12672WAT      O51393   4.879   3.928   4.845 -0.7114 -0.7440 -0.0390
12672WAT     H151394   4.811   3.960   4.801  0.1171  0.7579 -0.2846
12672WAT     H251395   4.842   3.887   4.912 -1.8433  0.6722  0.2557
12672WAT    EPW51396   4.863   3.927   4.848 -0.0609  0.2424  0.2764
12673WAT      O51397   3.734   2.542   0.418 -0.0065 -0.7098 -1.1968
12673WAT     H151398   3.711   2.580   0.493 -0.0158  0.8006 -1.9282
12673WAT     H251399   3.821   2.552   0.416  0.0876 -1.4399 -1.0385
12673WAT    EPW51400   3.743   2.549   0.429  0.2862 -0.3401 -0.5122
12674WAT      O51401   1.959   5.867   1.114 -0.3020 -0.8602  0.4199
12674WAT     H151402   1.888   5.816   1.111  0.1420 -1.5308  1.1144
12674WAT     H251403   1.933   5.934   1.163 -0.5706 -0.9086  0.3487
12674WAT    EPW51404   1.945   5.869   1.121 -0.1617  0.3865 -0.2674
12675WAT      O51405   3.873   3.272   7.124 -0.5398  0.4045  0.0919
12675WAT     H151406   3.840   3.235   7.052 -1.0788  2.3340 -0.7138
12675WAT     H251407   3.811   3.260   7.184 -1.5602  1.6259 -0.6772
12675WAT    EPW51408   3.859   3.265   7.122  0.0115  0.6990  0.2693
12676WAT      O51409   1.687   3.246   5.427  0.6379 -0.3297 -0.3820
12676WAT     H151410   1.681   3.227   5.512  0.9309 -0.9845 -0.5005
12676WAT     H251411   1.699   3.168   5.390 -1.0748 -0.2592 -1.1892
12676WAT    EPW51412   1.688   3.232   5.434  0.0807  0.1934 -0.3980
12677WAT      O51413   3.672   4.805   7.389 -0.7530 -0.3373  0.3536
12677WAT     H151414   3.623   4.733   7.385  1.1620 -1.9208  2.4753
12677WAT     H251415   3.616   4.866   7.417 -2.3830 -0.9922 -1.2861
12677WAT    EPW51416   3.656   4.804   7.393  0.5286 -0.0613 -0.5363
12678WAT      O51417   2.130   5.425   4.576  0.2038  0.3650  0.1351
12678WAT     H151418   2.172   5.359   4.537 -0.0459 -0.2224  0.8528
12678WAT     H251419   2.095   5.468   4.509 -0.2739 -0.6755 -0.3121
12678WAT    EPW51420   2.131   5.421   4.560  0.4871  0.1787 -0.3337
12679WAT      O51421   4.771   7.217   1.191 -0.1474 -0.4834  0.5277
12679WAT     H151422   4.758   7.274   1.126 -2.9554 -2.2988 -0.7057
12679WAT     H251423   4.824   7.158   1.155  3.2599  1.3774  1.9940
12679WAT    EPW51424   4.777   7.217   1.176  0.1879  0.0874 -0.5662
12680WAT      O51425   7.236   7.544   2.770  0.2370  0.4477 -0.1581
12680WAT     H151426   7.299   7.570   2.824 -3.1812  3.3318  3.0994
12680WAT     H251427   7.204   7.619   2.738 -0.5458 -0.9751 -3.0489
12680WAT    EPW51428   7.240   7.559   2.774  0.0685  0.3594  0.9056
12681WAT      O51429   5.624   2.848   2.983  0.3224  0.2011 -0.2083
12681WAT     H151430   5.626   2.816   2.902  1.5205  1.4606 -0.7107
12681WAT     H251431   5.568   2.794   3.024  1.7610 -2.1603 -1.1265
12681WAT    EPW51432   5.616   2.835   2.977 -0.4337  0.4557  0.5074
12682WAT      O51433   0.360   5.721   4.359  0.2874 -0.3922 -0.2864
12682WAT     H151434   0.367   5.787   4.303  0.7788  1.1133  1.4645
12682WAT     H251435   0.292   5.675   4.328  0.5378  0.3489 -2.0734
12682WAT    EPW51436   0.351   5.724   4.346 -0.7856  0.7549 -0.0094
12683WAT      O51437   1.823   5.145   2.950 -0.0919  0.1908 -0.6006
12683WAT     H151438   1.757   5.137   2.893 -0.6020 -0.4460  0.0495
12683WAT     H251439   1.799   5.092   3.016  1.2083 -0.2582 -0.4726
12683WAT    EPW51440   1.810   5.136   2.952  0.5631  0.2317  0.7698
12684WAT      O51441   7.061   0.020   4.746  0.0048 -0.5824 -0.0776
12684WAT     H151442   7.013   0.091   4.764  0.2873 -0.2013 -0.7876
12684WAT     H251443   7.127   0.051   4.700 -0.8944 -1.5288 -2.1376
12684WAT    EPW51444   7.063   0.035   4.742 -0.3566 -0.1301 -0.4395
12685WAT      O51445   2.994   7.045   3.391  0.5174 -0.7226  0.0812
12685WAT     H151446   3.081   7.042   3.388  0.7027 -0.0596  2.4914
12685WAT     H251447   2.978   7.113   3.443 -1.4822 -0.4150 -0.8424
12685WAT    EPW51448   3.004   7.055   3.398  0.1933 -0.3150 -1.2160
12686WAT      O51449   0.864   3.652   5.121 -0.6437 -0.5125 -0.2708
12686WAT     H151450   0.880   3.710   5.185  0.5935 -3.5968  2.5167
12686WAT     H251451   0.778   3.660   5.109 -0.8585  0.5335  1.4804
12686WAT    EPW51452   0.854   3.662   5.129  0.0722 -0.3691  0.2764
12687WAT      O51453   1.510   0.651   4.412  0.4702  0.0621 -0.5479
12687WAT     H151454   1.582   0.605   4.427 -0.6315 -1.8326 -0.7619
12687WAT     H251455   1.540   0.731   4.394  2.5810 -0.9457 -1.8325
12687WAT    EPW51456   1.525   0.656   4.412 -0.1840 -0.1311  0.4813
12688WAT      O51457   5.258   5.782   4.512  0.2841 -0.4575  0.0276
12688WAT     H151458   5.247   5.700   4.539  0.1532  0.2089  2.1333
12688WAT     H251459   5.177   5.814   4.510  0.3627 -0.2854 -0.4947
12688WAT    EPW51460   5.245   5.775   4.515  0.1280  0.0120 -0.0927
12689WAT      O51461   7.871   3.338   3.649  0.1803  0.2170  0.2691
12689WAT     H151462   7.864   3.425   3.654 -1.0750  0.3367 -1.9828
12689WAT     H251463   7.936   3.326   3.593 -0.6717 -0.2030 -0.6658
12689WAT    EPW51464   7.879   3.349   3.642 -0.1969 -0.3209  0.0191
12690WAT      O51465   0.909   7.364   1.556 -0.0281  0.1760 -0.0502
12690WAT     H151466   0.932   7.377   1.639  1.0037 -0.1576 -0.2718
12690WAT     H251467   0.852   7.429   1.540 -0.3330  0.1699  0.9413
12690WAT    EPW51468   0.904   7.375   1.566 -0.6239 -0.3200  0.1665
12691WAT      O51469   3.547   5.930   4.784 -0.2191 -0.5418 -0.3098
12691WAT     H151470   3.499   5.871   4.741 -0.4366 -1.5993  1.3257
12691WAT     H251471   3.629   5.905   4.768 -0.3158 -1.4827  0.6013
12691WAT    EPW51472   3.552   5.918   4.775 -0.3652 -0.4100 -0.2098
12692WAT      O51473   0.185   0.179   4.502  0.0104  0.7074  0.0496
12692WAT     H151474   0.269   0.164   4.483  0.4846 -0.1646  2.4775
12692WAT     H251475   0.188   0.227   4.575 -1.4423 -2.4493  2.4333
12692WAT    EPW51476   0.198   0.184   4.510 -0.2849 -0.5405 -0.5779
12693WAT      O51477   7.751   3.281   1.520 -0.0639  0.1152  0.4899
12693WAT     H151478   7.707   3.298   1.593  0.8002 -0.3995  1.1602
12693WAT     H251479   7.826   3.247   1.550 -0.4836 -1.9976 -0.6394
12693WAT    EPW51480   7.756   3.278   1.535  0.6961 -0.2949  0.3076
12694WAT      O51481   0.908   6.878   4.277  0.1808  0.2488 -0.7139
12694WAT     H151482   0.983   6.899   4.316  0.0059  1.0694 -0.8032
12694WAT     H251483   0.891   6.798   4.307  0.8278  0.2586 -0.2973
12694WAT    EPW51484   0.916   6.869   4.287  0.2636  0.0431  0.0446
12695WAT      O51485   6.439   4.375   3.501  0.5137 -0.0195  0.1042
12695WAT     H151486   6.418   4.293   3.520  1.2608  0.1367  1.8399
12695WAT     H251487   6.364   4.418   3.508  0.0475 -0.5842 -1.1669
12695WAT    EPW51488   6.425   4.369   3.505 -0.0562  0.2899 -0.0407
12696WAT      O51489   7.678   6.411   0.655 -0.1208  0.3992 -0.3644
12696WAT     H151490   7.711   6.346   0.607  0.8631  0.7913 -0.2364
12696WAT     H251491   7.746   6.463   0.669 -0.7293  1.0677  0.1891
12696WAT    EPW51492   7.693   6.409   0.650  0.1868  0.2108 -0.0126
12697WAT      O51493   5.243   7.400   5.091  0.1955  0.1363  0.1215
12697WAT     H151494   5.227   7.409   5.006  0.3358 -3.3953 -0.3934
12697WAT     H251495   5.195   7.331   5.114  1.5401 -0.1074  2.5053
12697WAT    EPW51496   5.233   7.391   5.082 -0.0440 -0.2169  0.2307
12698WAT      O51497   2.039   6.817   2.463  0.1457  0.3010  0.0468
12698WAT     H151498   2.106   6.856   2.504  0.3771  2.3176 -2.0582
12698WAT     H251499   1.992   6.884   2.433 -3.0822 -1.0434  1.7076
12698WAT    EPW51500   2.042   6.833   2.464 -0.8662  0.0358 -0.1352
12699WAT      O51501   0.772   6.599   1.455  0.0556 -0.2227 -0.6211
12699WAT     H151502   0.817   6.657   1.502 -0.5427 -0.5399  0.3731
12699WAT     H251503   0.815   6.524   1.468  0.1751 -0.2193 -0.9892
12699WAT    EPW51504   0.785   6.597   1.464 -0.0387  0.5119 -0.2270
12700WAT      O51505   2.384   3.848   0.772  0.4649 -0.1217 -0.4469
12700WAT     H151506   2.345   3.915   0.733  1.8117  1.4080  0.6654
12700WAT     H251507   2.464   3.847   0.737  0.3508 -1.4364 -0.7324
12700WAT    EPW51508   2.390   3.857   0.761 -0.0518 -0.2857  0.2009
12701WAT      O51509   3.949   5.753   1.614  0.3529  0.3394 -0.2049
12701WAT     H151510   3.928   5.815   1.556 -0.5539  1.3702  1.1550
12701WAT     H251511   3.874   5.709   1.624  0.5297  0.1053  0.0931
12701WAT    EPW51512   3.935   5.756   1.607 -0.1456 -0.3916  0.2488
12702WAT      O51513   2.397   1.324   2.207 -0.5470 -0.4065 -0.7503
12702WAT     H151514   2.429   1.399   2.175  1.6494 -1.5511 -1.4126
12702WAT     H251515   2.355   1.290   2.139  0.2073 -0.7000 -1.0821
12702WAT    EPW51516   2.396   1.330   2.192 -0.0042  0.4016 -0.0940
12703WAT      O51517   1.847   0.778   0.745  0.4075  0.1185 -0.3439
12703WAT     H151518   1.928   0.752   0.764  0.9336  1.2939 -0.8994
12703WAT     H251519   1.804   0.767   0.820  1.7656  2.0380  0.8124
12703WAT    EPW51520   1.852   0.773   0.759 -0.3278  0.3878 -0.1045
12704WAT      O51521   2.533   5.340   4.439 -0.5178  0.3121 -0.1334
12704WAT     H151522   2.602   5.332   4.492 -0.0471 -0.7452 -0.8868
12704WAT     H251523   2.495   5.414   4.467  0.4052  0.4367  0.8706
12704WAT    EPW51524   2.537   5.350   4.451 -0.3711  0.1748 -0.3486
12705WAT      O51525   4.803   5.825   1.045 -0.4044 -0.7201  0.6506
12705WAT     H151526   4.781   5.748   1.078 -1.0571 -0.7573  0.1353
12705WAT     H251527   4.792   5.816   0.960  1.2726 -0.6201  0.3903
12705WAT    EPW51528   4.798   5.813   1.038 -0.4079  0.5430 -0.3638
12706WAT      O51529   7.653   7.159   1.655  0.2599  0.3183  0.1267
12706WAT     H151530   7.636   7.074   1.642 -2.6705  0.8517 -0.1582
12706WAT     H251531   7.635   7.170   1.740 -0.8661  0.9190 -0.1737
12706WAT    EPW51532   7.648   7.148   1.666  0.2042 -0.1045  0.2380
12707WAT      O51533   7.587   5.960   0.398  0.6131 -0.0412 -0.1880
12707WAT     H151534   7.551   5.889   0.363 -0.5647  0.3634  0.1669
12707WAT     H251535   7.524   5.994   0.446 -0.6890  3.9333 -4.0065
12707WAT    EPW51536   7.573   5.954   0.400  0.2327 -0.4371 -0.5549
12708WAT      O51537   7.308   7.626   2.352 -0.2303 -0.1146 -0.4448
12708WAT     H151538   7.366   7.653   2.411  0.9389 -0.5959 -1.3358
12708WAT     H251539   7.353   7.568   2.304 -0.9046  0.7918 -2.2658
12708WAT    EPW51540   7.323   7.621   2.354 -0.3783  0.1528  0.1158
12709WAT      O51541   6.446   4.636   3.118 -0.9483 -0.2623  0.4406
12709WAT     H151542   6.459   4.554   3.146  2.4491  0.3803  1.1977
12709WAT     H251543   6.467   4.685   3.187 -1.0367  1.2571 -0.5703
12709WAT    EPW51544   6.451   4.631   3.132  0.3245 -0.0713 -0.4730
12710WAT      O51545   7.376   7.847   3.811 -0.7177 -0.2229  0.1275
12710WAT     H151546   7.390   7.927   3.845  0.4167  0.0054 -0.8335
12710WAT     H251547   7.308   7.859   3.758 -2.3493 -0.5268  2.0113
12710WAT    EPW51548   7.368   7.861   3.808 -0.4826  0.5965  0.7508
12711WAT      O51549   7.506   4.015   0.719  0.4565  0.3259  0.4618
12711WAT     H151550   7.504   4.086   0.668  0.2523  0.6327  0.8847
12711WAT     H251551   7.435   4.024   0.769  0.5218 -0.0910  0.6342
12711WAT    EPW51552   7.496   4.027   0.719  0.2916  0.1527 -0.3560
12712WAT      O51553   0.263   7.608   0.838 -0.3908 -0.4015  0.1222
12712WAT     H151554   0.331   7.554   0.853 -0.3658 -0.5681 -0.5545
12712WAT     H251555   0.196   7.567   0.877 -0.5122 -1.2869 -0.9596
12712WAT    EPW51556   0.264   7.594   0.846 -0.5279  0.0536 -0.7386
12713WAT      O51557   4.110   7.726   1.537 -0.0226  0.0987  0.1740
12713WAT     H151558   4.191   7.735   1.503  0.0065  2.1669  0.6655
12713WAT     H251559   4.063   7.785   1.493 -0.6621  0.7515  1.6918
12713WAT    EPW51560   4.115   7.736   1.525  0.2525  0.4914  0.0537
12714WAT      O51561   4.058   3.677   6.927  0.4009  0.5269 -0.2137
12714WAT     H151562   4.027   3.632   6.995 -0.2389  0.1975 -0.7136
12714WAT     H251563   4.140   3.647   6.919  0.0673 -0.3619 -0.3794
12714WAT    EPW51564   4.066   3.666   6.936 -0.0637 -0.0172 -0.1757
12715WAT      O51565   5.060   6.165   6.918 -0.1886  0.1368 -0.0038
12715WAT     H151566   5.037   6.249   6.913 -0.0349  0.1207 -1.2025
12715WAT     H251567   5.116   6.155   6.852  0.7091 -0.6327  0.8414
12715WAT    EPW51568   5.065   6.176   6.907 -0.3202 -0.6265 -0.1378
12716WAT      O51569   0.848   4.084   1.146  0.4514 -0.1712 -0.0685
12716WAT     H151570   0.884   4.120   1.217  0.7719  0.6578 -0.6393
12716WAT     H251571   0.766   4.068   1.171  0.5845  0.0386  0.5175
12716WAT    EPW51572   0.841   4.087   1.160 -1.2113 -0.4747 -0.2718
12717WAT      O51573   3.033   6.672   3.364 -0.1189  0.1541  0.3949
12717WAT     H151574   2.984   6.719   3.419 -0.5298  1.6779 -1.1846
12717WAT     H251575   2.985   6.671   3.291  0.5156 -1.6208 -0.0264
12717WAT    EPW51576   3.018   6.679   3.361  0.1351  0.3555  0.0901
12718WAT      O51577   6.013   4.734   3.931 -0.2973  0.6177  0.4839
12718WAT     H151578   5.964   4.783   3.984 -2.3825 -0.6087 -0.1930
12718WAT     H251579   6.066   4.792   3.893 -0.4604  1.8583  2.0537
12718WAT    EPW51580   6.013   4.750   3.933  0.4994  0.3310 -0.2842
12719WAT      O51581   5.792   4.051   1.908  0.1717  0.3971 -0.1834
12719WAT     H151582   5.780   3.971   1.876 -0.4901  0.7002 -0.7158
12719WAT     H251583   5.712   4.073   1.936  0.8271 -0.1228  2.3566
12719WAT    EPW51584   5.778   4.042   1.908 -0.2136 -0.2306 -0.1997
12720WAT      O51585   0.549   3.573   2.178 -0.2230 -0.6211 -0.7812
12720WAT     H151586   0.550   3.486   2.183 -1.3252 -0.5988  3.2792
12720WAT     H251587   0.629   3.595   2.206 -1.0344 -0.4450  1.6477
12720WAT    EPW51588   0.561   3.563   2.183  0.5498  0.3677 -0.1714
12721WAT      O51589   1.882   5.827   3.002  0.4690  0.0584  0.3324
12721WAT     H151590   1.876   5.907   2.967  1.1792  0.3118  0.7513
12721WAT     H251591   1.899   5.776   2.934  0.8756  0.4014  0.1669
12721WAT    EPW51592   1.884   5.831   2.987  0.0998 -0.3369  0.2232
12722WAT      O51593   6.940   4.608   1.185  0.5164  0.1729  0.5570
12722WAT     H151594   6.986   4.534   1.175 -1.4939 -1.7203  3.7520
12722WAT     H251595   6.877   4.602   1.125  1.5624  0.4118 -0.6042
12722WAT    EPW51596   6.938   4.596   1.174  0.5596  0.0520  0.1003
12723WAT      O51597   5.441   2.488   1.053 -0.1993  0.1001 -0.0503
12723WAT     H151598   5.500   2.551   1.060  1.4638 -1.3250 -0.5463
12723WAT     H251599   5.406   2.500   0.974 -0.9009  1.1938  0.4116
12723WAT    EPW51600   5.444   2.499   1.043  0.7854  0.2620  0.0168
12724WAT      O51601   3.995   5.427   8.023 -0.0620 -1.0384  0.2232
12724WAT     H151602   4.059   5.396   7.972 -1.3543 -1.5731 -1.1316
12724WAT     H251603   3.972   5.501   7.985  0.4614 -0.2725  1.3360
12724WAT    EPW51604   4.001   5.433   8.010 -0.0196 -0.0852  0.4869
12725WAT      O51605   0.172   1.072   3.385  0.2870  0.3598 -0.0250
12725WAT     H151606   0.138   1.151   3.371 -0.2934  0.1989  0.3985
12725WAT     H251607   0.109   1.018   3.359  1.1534 -0.0028 -1.4798
12725WAT    EPW51608   0.157   1.076   3.379  0.1513  0.3229 -0.1198
12726WAT      O51609   3.982   7.063   1.608  0.4286 -0.0312 -0.4292
12726WAT     H151610   3.980   6.998   1.549 -1.1411  1.1594 -1.7782
12726WAT     H251611   4.024   7.127   1.566 -1.7281  1.2386 -0.7918
12726WAT    EPW51612   3.988   7.063   1.593 -0.3496 -0.0470 -0.2261
12727WAT      O51613   7.202   6.770   3.534 -0.3358 -0.1794  0.0485
12727WAT     H151614   7.133   6.820   3.555  0.0241  0.1388  0.4823
12727WAT     H251615   7.174   6.726   3.464 -0.6987  0.5491 -0.2809
12727WAT    EPW51616   7.187   6.771   3.527  0.1435 -0.7511  0.2175
12728WAT      O51617   3.101   7.177   4.394  0.0583  0.3613  0.0626
12728WAT     H151618   3.172   7.201   4.437 -1.1455  2.8519  0.8771
12728WAT     H251619   3.068   7.111   4.442  2.7745 -2.3762 -1.4887
12728WAT    EPW51620   3.107   7.171   4.407 -0.1263 -0.0065 -0.3507
12729WAT      O51621   4.420   4.796   1.482  0.6248 -0.3803  0.6830
12729WAT     H151622   4.460   4.772   1.409 -2.3229  0.1181 -1.2654
12729WAT     H251623   4.398   4.721   1.520  2.3913 -0.6409  1.2917
12729WAT    EPW51624   4.423   4.782   1.477  0.4020  0.1546  0.0996
12730WAT      O51625   7.834   4.414   1.612 -0.6205 -0.2564 -0.0787
12730WAT     H151626   7.765   4.363   1.619 -1.0307  0.2133 -0.6164
12730WAT     H251627   7.816   4.465   1.544 -0.1706  0.5171  0.3584
12730WAT    EPW51628   7.821   4.414   1.603 -0.1767 -0.3593  0.0361
12731WAT      O51629   4.150   6.180   3.414  0.1253 -0.2235  0.1219
12731WAT     H151630   4.217   6.233   3.398  0.0240 -0.1550 -0.0722
12731WAT     H251631   4.110   6.173   3.337  0.1200 -0.5589  0.1511
12731WAT    EPW51632   4.154   6.187   3.400 -0.3625 -0.0381 -0.0742
12732WAT      O51633   6.531   7.437   1.761  0.3076  0.0431  0.2083
12732WAT     H151634   6.588   7.380   1.728 -0.3373 -0.9520  0.7834
12732WAT     H251635   6.578   7.480   1.821  0.5555 -0.5496  0.4525
12732WAT    EPW51636   6.546   7.435   1.765 -0.6247 -0.4726 -0.0539
12733WAT      O51637   6.273   6.454   7.943 -0.1664  0.1070 -0.3533
12733WAT     H151638   6.235   6.447   8.021  0.9301  1.8518  0.3908
12733WAT     H251639   6.294   6.371   7.923  2.8805 -0.1235  2.9500
12733WAT    EPW51640   6.270   6.440   7.951 -0.5326 -0.5866  0.8669
12734WAT      O51641   1.199   0.540   7.922  0.1314  0.2660 -0.3825
12734WAT     H151642   1.208   0.618   7.884  0.6417  1.5835  2.2195
12734WAT     H251643   1.278   0.524   7.955 -0.1585 -1.0257 -0.2795
12734WAT    EPW51644   1.212   0.549   7.921  0.2953 -0.0278 -0.1148
12735WAT      O51645   2.346   4.016   1.819  0.4099 -0.3861 -0.0950
12735WAT     H151646   2.423   4.052   1.797  1.5735 -2.6366 -0.0290
12735WAT     H251647   2.349   4.013   1.906 -0.0026 -0.0033 -0.0650
12735WAT    EPW51648   2.358   4.021   1.828 -0.2810 -0.3397  0.6920
12736WAT      O51649   7.674   6.191   2.907  0.2848 -0.0414 -0.1416
12736WAT     H151650   7.725   6.175   2.976  0.3634 -0.6132 -0.3256
12736WAT     H251651   7.712   6.146   2.843 -0.0887  0.0554 -0.4343
12736WAT    EPW51652   7.687   6.182   2.908 -0.0981 -0.0306  0.0326
12737WAT      O51653   7.117   0.328   3.620  0.5951  0.1682 -0.4386
12737WAT     H151654   7.135   0.244   3.602  0.0475  0.1241 -0.8104
12737WAT     H251655   7.040   0.323   3.662  0.3115  0.5211 -0.9077
12737WAT    EPW51656   7.108   0.315   3.624  0.2018  0.0132 -0.1913
12738WAT      O51657   3.371   5.545   0.915  0.0072 -0.8262 -0.0794
12738WAT     H151658   3.408   5.506   0.983  0.4608  0.0821  0.1980
12738WAT     H251659   3.290   5.563   0.943  0.7707  1.2832  0.9353
12738WAT    EPW51660   3.364   5.542   0.929 -0.3306 -0.0062  0.2098
12739WAT      O51661   0.887   7.751   4.592  0.4573  0.5265  0.2115
12739WAT     H151662   0.846   7.730   4.519  1.0840 -1.4424  0.3849
12739WAT     H251663   0.866   7.835   4.604 -2.3803 -0.0252 -0.3932
12739WAT    EPW51664   0.878   7.761   4.583  0.4498 -0.5873  0.0887
12740WAT      O51665   1.027   2.261   0.685  0.9076  0.1607 -0.6459
12740WAT     H151666   1.066   2.188   0.712  1.6339  0.6026 -0.4665
12740WAT     H251667   1.063   2.323   0.734 -0.8362  0.4782  0.3194
12740WAT    EPW51668   1.038   2.259   0.696  0.4313  0.3021 -0.5112
12741WAT      O51669   3.533   1.388   0.037 -0.1448  0.2906 -0.5168
12741WAT     H151670   3.611   1.368   0.070  1.0037  0.2273 -3.0696
12741WAT     H251671   3.481   1.327   0.071  1.6621 -2.0087 -1.5839
12741WAT    EPW51672   3.537   1.376   0.047  0.4464 -0.2871 -0.2335
12742WAT      O51673   5.824   7.669   0.133 -0.5118  0.0650 -0.4748
12742WAT     H151674   5.846   7.585   0.147  1.7507  0.2278 -2.3466
12742WAT     H251675   5.877   7.713   0.187  0.1426  0.3248 -1.3043
12742WAT    EPW51676   5.835   7.663   0.143  0.1004 -0.0219  0.4963
12743WAT      O51677   2.575   1.130   3.720  0.2379  0.5212  0.4080
12743WAT     H151678   2.501   1.133   3.675  1.0750 -1.2736 -1.2111
12743WAT     H251679   2.582   1.046   3.742  2.4420  0.3773 -0.6656
12743WAT    EPW51680   2.565   1.118   3.717  0.3805  0.1230  0.2072
12744WAT      O51681   2.851   1.524   0.503  0.4384  0.3920  0.1497
12744WAT     H151682   2.836   1.446   0.538  1.1222  0.3594  0.3738
12744WAT     H251683   2.774   1.565   0.511 -0.2133 -0.5872 -0.8744
12744WAT    EPW51684   2.837   1.519   0.509  0.2960 -0.0151 -0.0301
12745WAT      O51685   1.242   5.296   5.020 -0.3347 -0.0413  0.3446
12745WAT     H151686   1.202   5.321   5.094  2.6637 -1.0957  2.5112
12745WAT     H251687   1.289   5.365   4.997  1.5796 -0.8090  1.6563
12745WAT    EPW51688   1.243   5.310   5.027  0.2963  0.1284 -0.8129
12746WAT      O51689   5.387   7.178   3.967  0.2026 -0.1868 -0.0068
12746WAT     H151690   5.342   7.111   4.000 -0.5330  0.0273 -0.5382
12746WAT     H251691   5.380   7.167   3.881 -1.7093  1.6669 -0.1720
12746WAT    EPW51692   5.379   7.167   3.959 -0.3293 -0.5842 -0.6183
12747WAT      O51693   8.009   6.812   1.367 -0.6072  0.0176 -0.1645
12747WAT     H151694   8.016   6.742   1.315 -0.1589 -1.2524  1.5255
12747WAT     H251695   8.027   6.878   1.314 -1.7453 -1.0506 -2.0053
12747WAT    EPW51696   8.012   6.811   1.352 -0.2010  0.2984 -0.3579
12748WAT      O51697   7.334   6.330   2.077  0.3601 -0.2313 -0.4330
12748WAT     H151698   7.373   6.252   2.072 -1.6197 -1.2125 -1.3978
12748WAT     H251699   7.389   6.382   2.033  2.3228 -0.7455  1.2408
12748WAT    EPW51700   7.348   6.326   2.070 -0.2864 -0.0188 -0.2607
12749WAT      O51701   3.472   4.798   6.153 -0.5502 -0.3225 -0.3198
12749WAT     H151702   3.520   4.823   6.222  0.5991  1.5290 -1.6915
12749WAT     H251703   3.391   4.820   6.177 -0.2758 -0.3469  0.7100
12749WAT    EPW51704   3.467   4.805   6.167 -0.9580  0.0407  0.8178
12750WAT      O51705   3.306   7.608   1.697 -0.0646  0.2105 -0.0412
12750WAT     H151706   3.317   7.609   1.610 -1.4933 -0.1669 -0.2569
12750WAT     H251707   3.388   7.614   1.728  0.4839  0.2389 -1.4022
12750WAT    EPW51708   3.320   7.609   1.689 -0.0136  0.3567 -0.0486
12751WAT      O51709   5.966   7.813   7.760  0.3005  0.2065  0.0112
12751WAT     H151710   5.950   7.735   7.796  2.0552 -0.0952  0.2059
12751WAT     H251711   5.935   7.805   7.679  0.5151 -0.7246  0.0144
12751WAT    EPW51712   5.959   7.800   7.753 -0.0039  0.2884  0.0443
12752WAT      O51713   2.547   1.653   3.841 -0.1480 -0.4035 -0.1470
12752WAT     H151714   2.576   1.681   3.918  1.5562 -1.9932 -0.1266
12752WAT     H251715   2.552   1.566   3.848  1.1988 -0.6010 -2.3950
12752WAT    EPW51716   2.552   1.644   3.853  0.1100  0.0053 -0.1312
12753WAT      O51717   2.243   6.651   1.168 -0.5174  0.3131 -0.2291
12753WAT     H151718   2.318   6.606   1.171 -0.4480  0.3720 -1.0652
12753WAT     H251719   2.182   6.590   1.180 -0.3849  0.1165 -0.5506
12753WAT    EPW51720   2.245   6.635   1.170  0.3273 -0.0159  0.2847
12754WAT      O51721   2.314   7.150   1.829  0.6484 -0.2078 -0.1907
12754WAT     H151722   2.231   7.142   1.805  0.4875 -0.8611  0.5228
12754WAT     H251723   2.309   7.175   1.912  1.1588 -0.8210  0.0294
12754WAT    EPW51724   2.301   7.152   1.838  0.2855  0.3809  0.4422
12755WAT      O51725   6.820   3.174   0.293 -0.5735  0.3674 -0.0600
12755WAT     H151726   6.833   3.087   0.290 -0.4028  0.4136 -1.3899
12755WAT     H251727   6.736   3.183   0.271 -0.9376  0.4910  1.3017
12755WAT    EPW51728   6.810   3.162   0.290  0.2824  0.9047 -0.2854
12756WAT      O51729   1.208   6.698   3.644  0.3953 -0.1522 -0.4021
12756WAT     H151730   1.153   6.720   3.580  0.2305  0.6996  0.0139
12756WAT     H251731   1.191   6.614   3.659 -0.4411 -0.0258 -0.6144
12756WAT    EPW51732   1.198   6.689   3.637  0.4618 -0.6112  0.7643
12757WAT      O51733   2.699   7.309   5.423  0.7516  0.5142  0.2482
12757WAT     H151734   2.768   7.257   5.430 -0.0632 -0.6412 -0.1228
12757WAT     H251735   2.634   7.264   5.460  0.2220  1.6780  0.8243
12757WAT    EPW51736   2.700   7.295   5.430  0.0887 -0.4565 -0.2593
12758WAT      O51737  -0.011   6.445   2.128  0.0561  0.6609 -0.3473
12758WAT     H151738  -0.033   6.381   2.072  1.5452 -0.1711 -0.0204
12758WAT     H251739   0.071   6.427   2.149  0.3807  2.4682  0.0993
12758WAT    EPW51740  -0.002   6.433   2.123  0.4673  0.2162  0.4332
12759WAT      O51741   0.251   7.581   1.318 -0.5020 -0.1045  0.2299
12759WAT     H151742   0.164   7.591   1.316 -0.6971 -1.5385 -1.5131
12759WAT     H251743   0.281   7.661   1.305 -1.6660  0.0546 -2.0125
12759WAT    EPW51744   0.242   7.594   1.316 -1.0428 -0.3788 -0.0174
12760WAT      O51745   3.571   6.424   7.955  0.4813 -0.9601 -0.9988
12760WAT     H151746   3.536   6.479   7.897  2.0857  0.7760 -0.4406
12760WAT     H251747   3.510   6.364   7.966 -1.4147  0.7331 -1.6678
12760WAT    EPW51748   3.557   6.423   7.948 -0.7438  0.3562 -0.0465
12761WAT      O51749   7.111   5.351   0.832  0.6698  0.3738 -1.0420
12761WAT     H151750   7.043   5.344   0.778  0.0655 -1.0193 -0.1757
12761WAT     H251751   7.086   5.304   0.902  2.0040  0.9100 -0.1688
12761WAT    EPW51752   7.097   5.343   0.834  0.4763  0.6834  0.4416
12762WAT      O51753   7.016   6.457   3.083  0.0039  0.1182 -0.0128
12762WAT     H151754   7.082   6.507   3.057 -0.2881  0.6776  0.3251
12762WAT     H251755   7.043   6.376   3.064 -0.4610  0.5105 -2.7248
12762WAT    EPW51756   7.029   6.452   3.076  0.3824  0.2464 -0.6776
12763WAT      O51757   1.571   6.393   7.638  0.0290 -0.5211 -0.3274
12763WAT     H151758   1.541   6.332   7.583 -0.7770 -0.2726 -0.1788
12763WAT     H251759   1.506   6.451   7.641  0.8480  0.4253 -0.5877
12763WAT    EPW51760   1.557   6.393   7.630  0.1976 -0.0237  0.6886
12764WAT      O51761   1.721   4.222   2.076 -0.4892  0.7064  0.1999
12764WAT     H151762   1.801   4.208   2.045 -0.6045  0.1937  0.1303
12764WAT     H251763   1.729   4.210   2.161 -0.8961 -1.3073 -0.0053
12764WAT    EPW51764   1.734   4.218   2.084 -0.3270 -0.2030  0.1114
12765WAT      O51765   7.627   3.595   3.868 -0.5266 -0.0807 -0.5056
12765WAT     H151766   7.620   3.622   3.786 -1.0411  0.7744 -0.1930
12765WAT     H251767   7.593   3.661   3.915  2.3112  0.7617  0.5882
12765WAT    EPW51768   7.621   3.609   3.863  0.0073 -0.1290  0.1281
12766WAT      O51769   3.653   6.723   6.356  0.0185  0.4133  0.3787
12766WAT     H151770   3.642   6.748   6.273 -0.4483  0.0932  0.3404
12766WAT     H251771   3.667   6.637   6.349  1.5857  0.6194  0.5040
12766WAT    EPW51772   3.653   6.714   6.342 -0.7103  0.8931 -0.2267
12767WAT      O51773   2.756   5.742   0.664  0.5708 -0.1565 -0.5429
12767WAT     H151774   2.724   5.774   0.590  1.0634  3.4376  0.5916
12767WAT     H251775   2.774   5.659   0.645 -1.9997 -0.1952 -3.5063
12767WAT    EPW51776   2.754   5.734   0.650  0.2078  0.1911  0.3928
12768WAT      O51777   2.245   0.931   7.282  0.0887 -0.0744 -0.0197
12768WAT     H151778   2.288   0.953   7.209 -0.1482  0.2016 -0.0815
12768WAT     H251779   2.274   0.851   7.300  0.4852  0.0363 -0.1629
12768WAT    EPW51780   2.255   0.922   7.274  0.5113  0.1735 -0.0205
12769WAT      O51781   2.008   6.028   2.285 -0.0164 -0.1406  0.0258
12769WAT     H151782   1.935   6.000   2.325 -0.2265  0.2127 -0.1055
12769WAT     H251783   2.009   5.983   2.211 -0.2994  0.1190 -0.1389
12769WAT    EPW51784   1.997   6.017   2.280 -0.3450  0.1805 -0.1938
12770WAT      O51785   3.689   7.763   0.596 -0.0290  0.1268  0.4882
12770WAT     H151786   3.664   7.787   0.516  0.1520  0.9714  0.6675
12770WAT     H251787   3.617   7.774   0.644 -0.4031 -1.2925  0.2793
12770WAT    EPW51788   3.675   7.768   0.591 -0.1872 -0.2514  0.1112
12771WAT      O51789   2.975   7.848   3.516  0.1862  0.0813 -0.0655
12771WAT     H151790   2.892   7.872   3.528  0.6238  1.5033  0.2141
12771WAT     H251791   3.011   7.915   3.474  1.2336 -0.4677 -0.0970
12771WAT    EPW51792   2.968   7.861   3.512  0.4386  0.3362 -0.3438
12772WAT      O51793   2.656   4.297   3.934 -0.3003 -0.1570 -0.0406
12772WAT     H151794   2.644   4.242   4.000  0.8628 -0.2422  0.1250
12772WAT     H251795   2.661   4.245   3.864  1.8235 -0.3956  0.2411
12772WAT    EPW51796   2.655   4.281   3.933 -0.2882 -0.0554  0.2454
12773WAT      O51797   7.689   4.249   2.391 -0.0183 -0.5682 -0.0642
12773WAT     H151798   7.772   4.273   2.405 -0.2653 -0.0203  0.5000
12773WAT     H251799   7.648   4.271   2.465 -0.6125 -1.1159 -0.2172
12773WAT    EPW51800   7.695   4.256   2.404  0.4329 -0.4978 -0.0772
12774WAT      O51801   5.980   2.328   5.995  0.2430 -0.2744 -0.3550
12774WAT     H151802   5.921   2.392   5.998  0.2613 -0.2096 -1.0675
12774WAT     H251803   5.963   2.280   6.065 -1.5214 -1.0296 -1.2412
12774WAT    EPW51804   5.969   2.331   6.006  0.1804  0.4100 -0.2273
12775WAT      O51805   6.153   6.113   2.402  0.4156  0.1325 -0.6111
12775WAT     H151806   6.184   6.050   2.454 -0.9132 -0.6340 -0.7064
12775WAT     H251807   6.213   6.175   2.407  1.1631 -0.6449  0.4604
12775WAT    EPW51808   6.167   6.113   2.410 -0.0910  0.3924 -0.3172
12776WAT      O51809   3.206   5.036   2.026 -0.2345  0.0499  0.3607
12776WAT     H151810   3.262   5.053   1.961  0.3707  0.1742  0.9102
12776WAT     H251811   3.176   5.115   2.048 -0.5101 -0.0017  0.1735
12776WAT    EPW51812   3.210   5.050   2.019 -0.1453  0.4964 -0.3330
12777WAT      O51813   1.221   4.647   3.506  0.3514 -0.7406 -0.2822
12777WAT     H151814   1.233   4.633   3.421  0.0202  3.3080 -1.2353
12777WAT     H251815   1.151   4.699   3.508  0.0947 -1.0482  2.5290
12777WAT    EPW51816   1.212   4.653   3.494  0.0782 -0.3646 -0.0485
12778WAT      O51817   1.632   3.123   2.862 -0.0933  0.4271  0.2088
12778WAT     H151818   1.678   3.077   2.805  1.0110  1.2459  0.3901
12778WAT     H251819   1.689   3.139   2.926  0.2311  3.6171 -0.7039
12778WAT    EPW51820   1.647   3.119   2.863  0.7543 -0.3465 -0.2819
12779WAT      O51821   1.548   7.065   6.813 -0.2443 -0.4801  0.0334
12779WAT     H151822   1.616   7.088   6.763 -1.0502  0.0540 -0.8554
12779WAT     H251823   1.509   7.001   6.768 -1.2606  0.3397 -0.2983
12779WAT    EPW51824   1.552   7.059   6.799 -0.1750 -0.0755  0.1275
12780WAT      O51825   7.767   5.239   3.706  0.8634 -0.3897 -0.4601
12780WAT     H151826   7.845   5.254   3.669  0.5567  0.2455 -0.8577
12780WAT     H251827   7.722   5.200   3.643  0.4585  0.3660 -0.6519
12780WAT    EPW51828   7.772   5.236   3.691 -0.0854 -0.1213 -0.2947
12781WAT      O51829   6.322   0.758   7.771 -0.0314 -0.5321  0.5338
12781WAT     H151830   6.398   0.717   7.765 -0.9538 -2.1502 -1.2288
12781WAT     H251831   6.280   0.734   7.698 -0.8108  3.3346 -0.5636
12781WAT    EPW51832   6.327   0.749   7.759 -0.2654 -0.9661  0.4883
12782WAT      O51833   5.936   7.365   5.222 -0.1447 -0.1696  0.2598
12782WAT     H151834   5.850   7.352   5.226 -0.1484  0.0319  0.9832
12782WAT     H251835   5.961   7.362   5.306  0.5533 -0.2485  0.0557
12782WAT    EPW51836   5.927   7.362   5.235 -0.3687 -0.8612  0.1166
12783WAT      O51837   6.375   0.018   0.266  0.3904  0.1023  0.4184
12783WAT     H151838   6.347   0.096   0.292  1.0174  0.6082 -0.3585
12783WAT     H251839   6.321  -0.003   0.201 -0.1933 -0.4348  1.0561
12783WAT    EPW51840   6.363   0.026   0.260  0.3172 -0.2006  0.5686
12784WAT      O51841   0.603   5.296   3.135 -0.0095  0.1960 -0.4252
12784WAT     H151842   0.587   5.270   3.216 -0.3008 -0.8167 -0.7929
12784WAT     H251843   0.524   5.318   3.104  0.0956  0.5513 -0.4416
12784WAT    EPW51844   0.589   5.295   3.142 -0.0778 -0.1716 -0.9158
12785WAT      O51845   8.005   6.713   2.128  0.8054 -0.3922  0.4495
12785WAT     H151846   7.967   6.765   2.187 -4.0631 -3.5550  0.6985
12785WAT     H251847   8.038   6.648   2.176  0.4530 -0.9833 -0.0946
12785WAT    EPW51848   8.004   6.711   2.144 -0.6029 -0.2168 -0.1508
12786WAT      O51849   2.710   7.089   2.747  0.0276 -0.2673  0.3551
12786WAT     H151850   2.641   7.053   2.788  0.2330 -1.5428 -0.3567
12786WAT     H251851   2.763   7.021   2.734  1.3567  0.6790  0.7420
12786WAT    EPW51852   2.707   7.073   2.751 -0.5008  0.3086  0.1543
12787WAT      O51853   0.521   3.875   1.494  0.0094 -0.4097 -0.3485
12787WAT     H151854   0.518   3.928   1.563  0.2452  1.4925 -1.7292
12787WAT     H251855   0.454   3.820   1.507  0.1858 -0.2563  1.4638
12787WAT    EPW51856   0.511   3.875   1.506  0.1189 -0.3925  0.1389
12788WAT      O51857   6.914   3.168   1.797  0.2246 -0.3237  0.1137
12788WAT     H151858   6.897   3.226   1.860 -0.9263  0.7809 -1.1357
12788WAT     H251859   6.904   3.214   1.724 -1.4413 -2.2217 -0.9878
12788WAT    EPW51860   6.910   3.183   1.795 -0.4793 -0.1976 -0.4175
12789WAT      O51861   2.239   5.642   0.552  0.0734 -0.2799 -0.0223
12789WAT     H151862   2.169   5.635   0.603 -1.3906  0.2148 -1.8683
12789WAT     H251863   2.265   5.725   0.564 -0.2521 -0.1695 -0.0884
12789WAT    EPW51864   2.233   5.653   0.562  0.1796  0.1073 -0.4065
12790WAT      O51865   7.693   5.563   3.326  0.0597 -0.5113  0.0580
12790WAT     H151866   7.775   5.548   3.300  0.2237  1.0771 -0.4525
12790WAT     H251867   7.691   5.649   3.339 -2.2363  0.0471 -2.7849
12790WAT    EPW51868   7.705   5.574   3.324 -0.4474 -0.6186 -0.1035
12791WAT      O51869   3.127   2.572   6.191  0.4193  0.1243  0.4585
12791WAT     H151870   3.205   2.607   6.208 -0.0553  0.9572  0.9512
12791WAT     H251871   3.072   2.640   6.194 -0.5769 -0.6798  1.8261
12791WAT    EPW51872   3.131   2.587   6.194  0.0951  0.0214  0.1531
12792WAT      O51873   2.282   6.888   1.009  0.1272  0.3933 -0.1224
12792WAT     H151874   2.343   6.887   0.947 -0.6645 -0.4369 -0.9153
12792WAT     H251875   2.285   6.807   1.042 -0.9617  0.1402 -0.6054
12792WAT    EPW51876   2.291   6.876   1.005 -0.1509 -0.2586 -0.3853
12793WAT      O51877   1.214   0.301   7.793 -0.3515  0.1133  0.3934
12793WAT     H151878   1.291   0.305   7.752 -0.1627  0.6968  0.7901
12793WAT     H251879   1.218   0.367   7.851 -1.3712  0.5096  0.0353
12793WAT    EPW51880   1.226   0.311   7.796 -0.5392  0.1607 -0.4340
12794WAT      O51881   6.085   6.360   0.947 -0.2999 -0.8818 -0.0313
12794WAT     H151882   5.997   6.355   0.949 -0.3648  0.1344  0.6090
12794WAT     H251883   6.110   6.299   1.004 -0.7762  1.1129  2.5341
12794WAT    EPW51884   6.075   6.350   0.956  0.5164 -0.4437  0.7601
12795WAT      O51885   4.832   6.849   2.136 -0.1990  0.0613  0.6903
12795WAT     H151886   4.890   6.783   2.130  0.3988  0.6640 -0.4199
12795WAT     H251887   4.845   6.894   2.062 -1.1585  0.9755  1.0663
12795WAT    EPW51888   4.843   6.846   2.124  0.3351 -0.4731 -0.5799
12796WAT      O51889   7.737   4.809   0.352  0.2051 -0.6985 -0.0928
12796WAT     H151890   7.669   4.862   0.337  1.0369  0.1595 -0.9235
12796WAT     H251891   7.796   4.862   0.387  0.8296 -1.2199 -0.3431
12796WAT    EPW51892   7.736   4.824   0.355  0.6721 -0.2489  0.3448
12797WAT      O51893   3.848   0.421   0.477  0.0045  0.7927 -0.0945
12797WAT     H151894   3.817   0.428   0.396 -0.1710  0.0265 -0.1015
12797WAT     H251895   3.802   0.355   0.511 -1.0669  2.1111  1.1598
12797WAT    EPW51896   3.837   0.412   0.470 -0.5098  0.5910  0.5078
12798WAT      O51897   7.269   0.116   0.623  0.1298 -0.2592 -0.6713
12798WAT     H151898   7.269   0.204   0.622 -1.7199 -0.2236 -0.4176
12798WAT     H251899   7.282   0.096   0.706 -3.2345 -0.0794  0.0363
12798WAT    EPW51900   7.271   0.126   0.635 -0.0880 -0.1858  0.0162
12799WAT      O51901   3.381   5.752   7.590 -0.4200  0.1591  0.3462
12799WAT     H151902   3.402   5.668   7.580 -2.8546 -0.4016 -0.7912
12799WAT     H251903   3.378   5.762   7.676  3.0057  0.0109  0.5935
12799WAT    EPW51904   3.383   5.741   7.601 -0.9321  0.1071  0.3025
12800WAT      O51905   7.340   5.901   4.493 -0.0413 -0.1462  0.0267
12800WAT     H151906   7.396   5.960   4.524  0.5653 -0.4314 -0.4993
12800WAT     H251907   7.302   5.942   4.426  1.8517 -0.9903 -1.6549
12800WAT    EPW51908   7.342   5.916   4.488 -0.1507  0.0692 -0.0316
12801WAT      O51909   8.097   7.210   0.811 -0.0104 -0.3865 -0.1426
12801WAT     H151910   8.040   7.171   0.864 -1.6974  1.1008 -0.7995
12801WAT     H251911   8.094   7.161   0.739 -1.7492  0.6125 -0.7849
12801WAT    EPW51912   8.088   7.197   0.808 -0.1081  0.1262  0.5921
12802WAT      O51913   4.084   2.357   0.604 -0.0664 -0.0120 -0.4119
12802WAT     H151914   4.162   2.322   0.584  0.0824  0.7872 -1.3007
12802WAT     H251915   4.027   2.294   0.585  0.2284  0.0446 -1.5340
12802WAT    EPW51916   4.087   2.343   0.599 -0.0004 -0.1127 -0.6469
12803WAT      O51917   4.618   5.886   7.413  0.0896  0.2797  0.2638
12803WAT     H151918   4.574   5.943   7.463 -0.5853 -0.3171  0.3605
12803WAT     H251919   4.635   5.820   7.467  1.8478  0.8351  0.4557
12803WAT    EPW51920   4.614   5.885   7.428  0.3893  0.1752  0.2635
12804WAT      O51921   5.327   7.208   1.473  0.3194 -0.7088  0.1016
12804WAT     H151922   5.395   7.155   1.472  1.5367  0.7550  0.8545
12804WAT     H251923   5.353   7.276   1.425 -1.1076 -0.6508 -0.6524
12804WAT    EPW51924   5.341   7.210   1.466  0.1449 -0.0025  0.3764
12805WAT      O51925   7.580   5.190   3.483  0.0238  0.1911  0.0565
12805WAT     H151926   7.593   5.182   3.397 -1.3665  1.7078 -0.3458
12805WAT     H251927   7.545   5.114   3.506  0.6454 -0.3215 -0.6579
12805WAT    EPW51928   7.577   5.178   3.474 -0.0633  0.0003 -0.1442
12806WAT      O51929   2.798   0.213   2.832  0.0243  0.1764  0.1833
12806WAT     H151930   2.764   0.254   2.901 -0.7495 -0.5099  0.2336
12806WAT     H251931   2.825   0.137   2.865  0.0408  0.0186 -0.1886
12806WAT    EPW51932   2.797   0.208   2.847 -0.2371 -0.0452 -0.5685
12807WAT      O51933   3.062   4.099   1.694  0.2652 -0.2063 -0.5712
12807WAT     H151934   3.055   4.182   1.718 -0.9449 -0.1387 -1.0728
12807WAT     H251935   3.070   4.104   1.607 -1.5252 -0.6388 -0.8023
12807WAT    EPW51936   3.062   4.112   1.684 -0.3291 -0.2733 -0.1996
12808WAT      O51937   4.653   3.591   1.624 -0.0850  0.2172 -0.0746
12808WAT     H151938   4.627   3.521   1.669  0.5368  0.0530  0.0345
12808WAT     H251939   4.580   3.639   1.616 -0.5279 -0.4679 -0.1976
12808WAT    EPW51940   4.638   3.588   1.629 -0.0146 -0.2085  0.0752
12809WAT      O51941   3.304   3.617   0.596 -0.1973  0.1884 -0.7327
12809WAT     H151942   3.270   3.664   0.530 -0.3268  0.4740 -0.4676
12809WAT     H251943   3.390   3.621   0.581 -0.1802  0.8450 -0.4990
12809WAT    EPW51944   3.312   3.625   0.584  0.3733  0.2231 -1.1856
12810WAT      O51945   1.648   0.601   6.250 -0.0347  0.2444 -0.4355
12810WAT     H151946   1.629   0.657   6.186 -0.1128  0.7063 -0.0131
12810WAT     H251947   1.570   0.573   6.278 -0.0071 -2.0303 -2.3025
12810WAT    EPW51948   1.634   0.605   6.245 -0.8450 -0.2069  0.4681
12811WAT      O51949   0.959   6.250   1.536 -0.0060 -0.7778  0.4952
12811WAT     H151950   0.923   6.174   1.510 -0.6881 -0.3928  0.2947
12811WAT     H251951   1.015   6.269   1.472 -0.5329 -0.6297  0.0767
12811WAT    EPW51952   0.962   6.241   1.523  1.0609  0.2367 -0.5217
12812WAT      O51953   0.335   3.268   4.248  0.1200 -0.4953 -0.1837
12812WAT     H151954   0.273   3.251   4.190  0.3305 -0.4376 -0.4287
12812WAT     H251955   0.403   3.291   4.199 -0.2529  1.4068  0.1373
12812WAT    EPW51956   0.336   3.269   4.232  0.1983  0.0392 -0.2041
12813WAT      O51957   4.745   7.971   2.986 -0.3304  0.1471  0.4513
12813WAT     H151958   4.786   8.048   2.990 -2.0629  1.0706  1.8325
12813WAT     H251959   4.809   7.913   2.998  0.8652  1.3960  0.4063
12813WAT    EPW51960   4.760   7.974   2.988  0.9729  0.3181  0.4171
12814WAT      O51961   6.116   3.530   6.843 -0.1576 -0.1324  0.7611
12814WAT     H151962   6.048   3.583   6.832 -1.3702 -1.6499  0.5171
12814WAT     H251963   6.079   3.455   6.869  1.2403 -1.5343 -1.0214
12814WAT    EPW51964   6.100   3.527   6.845  0.3680 -0.3952  0.3822
12815WAT      O51965   7.130   6.744   1.028  0.2769  0.1228 -0.3424
12815WAT     H151966   7.110   6.824   1.055 -0.0424 -0.2894  0.6855
12815WAT     H251967   7.094   6.692   1.089  0.1139 -0.8145 -1.2089
12815WAT    EPW51968   7.122   6.748   1.041  0.2315  0.4020  0.1710
12816WAT      O51969   6.436   0.001   1.032 -0.4677 -0.7683 -0.0956
12816WAT     H151970   6.442   0.003   0.945 -1.7627  1.1880 -0.1948
12816WAT     H251971   6.351   0.006   1.047 -0.1868  2.3533  1.2424
12816WAT    EPW51972   6.424   0.002   1.021 -0.3845 -0.3931  0.1049
12817WAT      O51973   1.733   5.162   5.602  0.1690  0.1466 -0.3743
12817WAT     H151974   1.798   5.216   5.579 -0.8485  1.0330 -1.2785
12817WAT     H251975   1.691   5.148   5.527 -1.1224  0.2016  0.3116
12817WAT    EPW51976   1.736   5.168   5.588 -0.0154  0.2672  0.1125
12818WAT      O51977   3.709   3.207   1.820  0.2394 -0.1456  0.0768
12818WAT     H151978   3.734   3.288   1.799  0.4824 -0.0515  0.7175
12818WAT     H251979   3.733   3.198   1.903  1.0145 -1.1855 -0.2322
12818WAT    EPW51980   3.716   3.217   1.829 -0.0335 -0.6942  0.4335
12819WAT      O51981   7.058   2.231   0.608  0.0075  0.4142  0.2787
12819WAT     H151982   7.132   2.259   0.644  0.7840 -1.3413  0.1288
12819WAT     H251983   7.072   2.240   0.522 -0.6245  1.6303  0.2801
12819WAT    EPW51984   7.071   2.237   0.601 -0.9913 -1.3321 -0.0971
12820WAT      O51985   0.680   7.887   0.331 -0.7108  0.1112 -0.1755
12820WAT     H151986   0.604   7.848   0.348 -0.9000  0.2288 -0.7252
12820WAT     H251987   0.665   7.930   0.256 -0.3954  0.9413  0.2236
12820WAT    EPW51988   0.667   7.887   0.322  0.0986 -0.2410  0.7925
12821WAT      O51989   7.742   5.771   2.527  0.5021  0.0101  0.5718
12821WAT     H151990   7.678   5.713   2.540  0.1770  0.0651 -0.7240
12821WAT     H251991   7.799   5.729   2.477  2.0748 -0.4276  2.5986
12821WAT    EPW51992   7.741   5.756   2.522 -0.3635  0.9093 -0.1530
12822WAT      O51993   3.189   6.302   5.340 -0.0365 -0.3008  0.2367
12822WAT     H151994   3.145   6.264   5.274 -1.3644 -0.0044  0.9198
12822WAT     H251995   3.258   6.251   5.350 -0.0400 -0.6095 -1.0966
12822WAT    EPW51996   3.192   6.289   5.332  0.8302  0.0365  0.1737
12823WAT      O51997   5.968   3.404   8.006 -1.0701 -0.2982  0.0934
12823WAT     H151998   6.014   3.473   8.034 -0.2506 -1.3775  1.5338
12823WAT     H251999   5.904   3.397   8.064 -0.8671 -1.0283  0.2401
12823WAT    EPW52000   5.966   3.413   8.019  0.1471 -0.0371  0.0623
12824WAT      O52001   2.540   7.010   6.968  0.0991  0.1574 -0.4522
12824WAT     H152002   2.598   6.949   6.992 -0.4741 -0.6800 -1.1291
12824WAT     H252003   2.476   7.000   7.026  0.6001  1.0961  0.3070
12824WAT    EPW52004   2.539   6.999   6.980 -0.1938 -0.5744  0.0352
12825WAT      O52005   1.021   3.853   2.481  0.0119 -0.1102  0.6351
12825WAT     H152006   1.071   3.886   2.544 -0.2169 -0.5202  1.0374
12825WAT     H252007   0.974   3.922   2.454 -0.9939 -0.2257  1.9723
12825WAT    EPW52008   1.021   3.868   2.487  0.2804  0.1777 -0.9680
12826WAT      O52009   6.994   6.111   2.172 -0.3109 -0.4075 -0.3749
12826WAT     H152010   6.920   6.087   2.211 -0.0952  2.4401  2.2321
12826WAT     H252011   6.967   6.163   2.107 -0.6265 -0.1024 -0.0042
12826WAT    EPW52012   6.979   6.115   2.168 -0.2120  0.0731  0.0264
12827WAT      O52013   7.128   7.719   1.246  0.2520  0.3336  0.1445
12827WAT     H152014   7.205   7.754   1.267  0.1217  0.2172  0.8488
12827WAT     H252015   7.149   7.656   1.189  0.7607 -0.1684  0.8641
12827WAT    EPW52016   7.143   7.715   1.240  0.0808  0.0433 -0.3427
12828WAT      O52017   0.182   5.341   1.141 -0.0066  0.1707 -0.2563
12828WAT     H152018   0.215   5.297   1.074  2.3807  2.3278 -0.6742
12828WAT     H252019   0.136   5.405   1.102 -0.5913  0.0677  0.2473
12828WAT    EPW52020   0.180   5.344   1.125  0.0723  0.0004  0.1242
12829WAT      O52021   5.361   4.676   7.804 -0.4509  0.0540  0.1851
12829WAT     H152022   5.384   4.670   7.720 -0.5149 -1.4532  0.2546
12829WAT     H252023   5.377   4.596   7.835 -1.6182  0.2290  1.3025
12829WAT    EPW52024   5.367   4.663   7.796 -0.8209 -0.1592 -0.1158
12830WAT      O52025   3.126   0.040   0.974 -0.1073  0.4006  0.2959
12830WAT     H152026   3.138   0.096   1.040  2.5449 -1.1868  1.3254
12830WAT     H252027   3.056  -0.006   0.999 -0.1802  0.9444  1.1638
12830WAT    EPW52028   3.118   0.042   0.988  0.4681 -0.3441  0.5000
12831WAT      O52029   4.440   3.977   3.934  0.1048  0.1580  0.7787
12831WAT     H152030   4.399   3.921   3.986 -0.4934 -0.9449 -0.8005
12831WAT     H252031   4.383   4.043   3.927 -0.5690 -0.4665  0.1838
12831WAT    EPW52032   4.425   3.979   3.941 -0.3621  0.3406 -0.0375
12832WAT      O52033   0.768   1.264   2.796  0.0737  0.4414  0.0350
12832WAT     H152034   0.748   1.221   2.869 -0.7830 -0.4518 -0.7024
12832WAT     H252035   0.704   1.324   2.791 -1.6934 -1.4578 -1.5407
12832WAT    EPW52036   0.756   1.267   2.806  0.1428 -0.2831  0.1679
12833WAT      O52037   5.207   5.647   2.438 -0.3258 -0.3626  0.0614
12833WAT     H152038   5.197   5.681   2.518 -1.6198  1.4867 -0.8226
12833WAT     H252039   5.126   5.620   2.418 -0.6762  1.7594 -1.6783
12833WAT    EPW52040   5.193   5.648   2.447  0.1121 -0.3803 -0.1942
12834WAT      O52041   1.143   0.015   0.093 -0.4834  0.5971  0.1743
12834WAT     H152042   1.217   0.005   0.137 -0.6494 -1.4565  0.0864
12834WAT     H252043   1.168   0.011   0.010 -0.4831  1.8569  0.1004
12834WAT    EPW52044   1.157   0.013   0.087  0.2549  0.9796  0.0421
12835WAT      O52045   5.790   0.419   7.915  0.3484 -0.0886  0.1854
12835WAT     H152046   5.717   0.466   7.908  0.0254 -0.2953  1.6928
12835WAT     H252047   5.854   0.478   7.907 -0.0296  0.4009  0.7076
12835WAT    EPW52048   5.789   0.435   7.913  0.6207  0.0595  0.4601
12836WAT      O52049   0.897   4.341   0.010  0.0090  0.6269  0.0484
12836WAT     H152050   0.890   4.254   0.001  1.1539  0.5956 -0.7512
12836WAT     H252051   0.925   4.350   0.092 -0.9765  0.3075  0.4384
12836WAT    EPW52052   0.900   4.329   0.021  0.6645 -0.0759 -0.1759
12837WAT      O52053   3.101   7.941   2.550  1.0275  0.3541 -0.2892
12837WAT     H152054   3.020   7.934   2.580  0.3960 -0.0578 -2.0046
12837WAT     H252055   3.135   8.006   2.597 -1.1345  2.3549 -1.3268
12837WAT    EPW52056   3.094   7.950   2.561 -0.3366 -0.0319  0.5519
12838WAT      O52057   2.130   7.412   3.706 -0.7500 -0.3394 -0.4288
12838WAT     H152058   2.087   7.336   3.716 -1.7538 -0.0869 -2.3189
12838WAT     H252059   2.212   7.392   3.727 -1.0471 -1.8976 -0.5928
12838WAT    EPW52060   2.135   7.398   3.710  0.6324 -0.1046 -0.4096
12839WAT      O52061   7.785   3.395   3.222 -0.4634 -0.4872 -0.0190
12839WAT     H152062   7.842   3.457   3.245  1.8448 -2.3463 -0.2972
12839WAT     H252063   7.780   3.404   3.135 -1.0978  0.0577  0.0685
12839WAT    EPW52064   7.793   3.406   3.213 -0.2981 -0.8408  1.0668
12840WAT      O52065   2.096   5.899   6.311 -0.3669 -0.1405 -0.0016
12840WAT     H152066   2.135   5.936   6.380 -1.1497  1.7247 -0.4902
12840WAT     H252067   2.017   5.877   6.342 -0.8651  1.0560 -0.3449
12840WAT    EPW52068   2.090   5.901   6.326  0.1575 -0.5467 -0.3106
12841WAT      O52069   1.675   7.095   1.101  0.0303  0.7109  0.7377
12841WAT     H152070   1.739   7.097   1.160  1.2095 -0.4488 -0.4300
12841WAT     H252071   1.707   7.141   1.034 -0.3361  0.1071  0.1300
12841WAT    EPW52072   1.689   7.102   1.100  0.0224  0.0365 -0.5063
12842WAT      O52073   2.409   5.140   6.703  0.3548 -0.1658 -0.4480
12842WAT     H152074   2.448   5.145   6.625  1.7229  1.5027  0.2877
12842WAT     H252075   2.472   5.108   6.755 -0.4153 -0.8768  0.0701
12842WAT    EPW52076   2.424   5.136   6.699 -0.0854 -0.0362  0.2809
12843WAT      O52077   1.310   5.737   1.495 -0.2968  0.2950 -0.0151
12843WAT     H152078   1.362   5.714   1.561 -0.5450 -0.6866 -0.1474
12843WAT     H252079   1.362   5.784   1.443  0.2057  0.1003  0.3091
12843WAT    EPW52080   1.326   5.741   1.497 -0.3204  0.0336  0.0410
12844WAT      O52081   4.763   4.630   6.981  0.1789 -0.3380  0.3737
12844WAT     H152082   4.848   4.650   6.977 -0.2641  1.7695 -0.1284
12844WAT     H252083   4.743   4.644   7.065 -0.1037  1.4621  0.0458
12844WAT    EPW52084   4.773   4.635   6.993 -0.0513  0.0520 -0.9609
12845WAT      O52085   1.846   5.151   7.961 -0.1446  0.3245  0.4117
12845WAT     H152086   1.916   5.106   7.934 -0.3495  0.2135  0.0550
12845WAT     H252087   1.839   5.128   8.045 -0.9846 -1.3348 -0.0624
12845WAT    EPW52088   1.855   5.141   7.970  0.3299  0.2239 -0.0014
12846WAT      O52089   6.177   3.262   3.230  0.4095 -0.2139 -0.4752
12846WAT     H152090   6.120   3.323   3.205  0.9215 -0.2588 -1.8267
12846WAT     H252091   6.224   3.302   3.291 -0.4528  0.1180 -0.0082
12846WAT    EPW52092   6.175   3.277   3.236 -0.3718 -0.1837  0.2145
12847WAT      O52093   1.482   4.990   6.018  0.7111  0.3035 -0.1978
12847WAT     H152094   1.443   4.918   6.048  0.3183  0.8831  0.7114
12847WAT     H252095   1.565   4.966   6.009  0.6442 -0.1796  0.4149
12847WAT    EPW52096   1.488   4.976   6.021  0.0494 -0.0102 -0.6556
12848WAT      O52097   6.053   1.068   6.971 -0.1801 -0.4972  0.4518
12848WAT     H152098   5.979   1.088   6.930  1.0221 -0.7293 -2.0523
12848WAT     H252099   6.098   1.143   6.969 -0.1910 -0.4283  1.7103
12848WAT    EPW52100   6.049   1.082   6.965  0.2651  0.0023  0.5601
12849WAT      O52101   6.440   6.653   2.889 -0.0370 -0.2559  0.3425
12849WAT     H152102   6.527   6.647   2.896  0.2480  0.6834 -1.6249
12849WAT     H252103   6.419   6.583   2.842 -0.1124  0.3632 -0.5603
12849WAT    EPW52104   6.450   6.642   2.883  0.4577 -0.5916  0.0340
12850WAT      O52105   2.934   0.416   3.196  0.2299  0.0993  0.3010
12850WAT     H152106   2.931   0.486   3.248  1.3854  0.3682  0.0300
12850WAT     H252107   2.854   0.413   3.162 -0.0842  0.8025  0.9381
12850WAT    EPW52108   2.922   0.426   3.199 -0.3992 -0.0264 -0.0364
12851WAT      O52109   1.595   7.825   7.639 -0.9236 -0.0584  0.7692
12851WAT     H152110   1.615   7.822   7.724  0.2268 -0.2129  0.5120
12851WAT     H252111   1.639   7.758   7.605 -4.0125 -2.1906  0.5071
12851WAT    EPW52112   1.604   7.815   7.646  0.5860 -0.0544  0.4293
12852WAT      O52113   7.846   4.183   0.786 -0.4697  1.0576  0.2998
12852WAT     H152114   7.790   4.178   0.853 -2.2626  1.3250 -1.0941
12852WAT     H252115   7.890   4.108   0.790 -0.6102  1.0339  1.6998
12852WAT    EPW52116   7.844   4.171   0.796  0.7680 -0.1750 -0.5862
12853WAT      O52117   0.952   2.974   0.640  0.2658 -0.5063 -0.2379
12853WAT     H152118   0.922   3.056   0.651  0.0847 -0.2097 -2.4331
12853WAT     H252119   0.921   2.932   0.710 -0.5618  1.0547  0.4011
12853WAT    EPW52120   0.943   2.980   0.652 -0.6334 -0.1278 -0.4615
12854WAT      O52121   5.418   5.731   0.175  0.1048 -0.0462 -0.8730
12854WAT     H152122   5.476   5.790   0.148 -1.0907  1.6712  0.1539
12854WAT     H252123   5.354   5.779   0.208 -0.1778 -1.9446  1.5819
12854WAT    EPW52124   5.417   5.746   0.176  0.7157 -0.2702 -0.2537
12855WAT      O52125   4.193   2.378   7.792  0.0509 -0.1679 -0.0712
12855WAT     H152126   4.187   2.291   7.804  0.0587 -0.3982 -1.5003
12855WAT     H252127   4.177   2.387   7.707 -0.3065  1.2868  0.1304
12855WAT    EPW52128   4.189   2.366   7.781  0.1172  0.2585 -0.2217
12856WAT      O52129   0.462   7.669   2.647  0.5306  0.3935  0.5828
12856WAT     H152130   0.470   7.598   2.598  0.5520  0.8234 -0.0405
12856WAT     H252131   0.525   7.659   2.707  0.9328  0.1879  0.1324
12856WAT    EPW52132   0.472   7.657   2.649 -0.1651  0.3271 -0.1672
12857WAT      O52133   3.801   7.137   6.861  0.7843  0.6261 -0.5495
12857WAT     H152134   3.816   7.143   6.775  1.5827  0.3013 -0.4448
12857WAT     H252135   3.715   7.149   6.868  0.7571  0.9716 -1.3634
12857WAT    EPW52136   3.791   7.139   6.849  0.4865 -0.3838  0.2705
12858WAT      O52137   3.340   6.401   0.552  0.2210  0.1012 -0.5780
12858WAT     H152138   3.272   6.434   0.508 -1.1844 -0.2332  1.2849
12858WAT     H252139   3.308   6.382   0.630  2.1655 -1.2802 -0.0448
12858WAT    EPW52140   3.325   6.403   0.557  0.8605  0.2191  0.1152
12859WAT      O52141   6.423   0.982   2.821 -0.0444  0.5502 -0.7335
12859WAT     H152142   6.488   1.020   2.864  0.2848 -0.1757 -0.5778
12859WAT     H252143   6.355   0.992   2.874 -0.0658  1.2890 -0.8857
12859WAT    EPW52144   6.422   0.989   2.835 -0.0414 -0.2052 -0.4458
12860WAT      O52145   2.803   7.352   2.041  0.8890  0.8533 -0.0038
12860WAT     H152146   2.884   7.356   2.072  1.2322  1.0120 -0.9055
12860WAT     H252147   2.803   7.280   1.992  0.0134 -0.0601  1.2845
12860WAT    EPW52148   2.815   7.342   2.038 -0.2856  0.0426  0.4359
12861WAT      O52149   2.876   1.245   2.642 -0.4798 -0.0600 -0.8111
12861WAT     H152150   2.840   1.321   2.667 -0.2672 -0.7737  2.0376
12861WAT     H252151   2.822   1.185   2.676  1.4374 -1.1370  0.5162
12861WAT    EPW52152   2.862   1.247   2.651  0.5747 -0.3590 -0.2158
12862WAT      O52153   8.044   0.488   2.091  0.1459 -0.4367  0.2453
12862WAT     H152154   7.997   0.416   2.102 -0.3156 -0.0579  0.8118
12862WAT     H252155   8.021   0.539   2.158 -0.0643  0.5198 -0.5188
12862WAT    EPW52156   8.034   0.485   2.103  0.1025 -0.0340 -0.2021
12863WAT      O52157   0.242   5.311   2.301  0.4910 -0.5891  0.2426
12863WAT     H152158   0.157   5.307   2.323  0.8600 -3.2973  1.5751
12863WAT     H252159   0.268   5.386   2.336 -1.1541 -0.1559  0.6573
12863WAT    EPW52160   0.233   5.321   2.310 -0.6963  0.3902 -0.1477
12864WAT      O52161   4.472   4.038   1.019  0.2049 -0.1654 -0.1471
12864WAT     H152162   4.490   4.026   0.935 -0.0022 -2.9708  0.1191
12864WAT     H252163   4.385   4.048   1.021  0.3981  1.8406 -0.3940
12864WAT    EPW52164   4.462   4.037   1.007  0.7753  0.5598 -0.1322
12865WAT      O52165   5.371   4.749   0.967  0.2190 -0.0488 -0.7263
12865WAT     H152166   5.346   4.811   0.911  0.5555  0.4630 -0.3240
12865WAT     H252167   5.326   4.767   1.039 -0.1666 -0.6667 -0.8043
12865WAT    EPW52168   5.361   4.761   0.969  0.5083  0.5217  0.0128
12866WAT      O52169   0.963   4.969   0.515 -0.4699 -0.1743  0.0671
12866WAT     H152170   0.969   4.891   0.478 -1.5566 -1.4007  2.2508
12866WAT     H252171   1.046   4.991   0.530 -0.1539 -0.9432 -0.4955
12866WAT    EPW52172   0.976   4.961   0.512  0.3090 -0.3779  0.7315
12867WAT      O52173   2.654   3.270   1.026  0.6457  0.6672  0.0216
12867WAT     H152174   2.633   3.315   1.097  0.5739  0.3437  0.2080
12867WAT     H252175   2.608   3.196   1.034  2.3754 -0.3853  0.8010
12867WAT    EPW52176   2.644   3.266   1.037  0.0217 -0.1614 -0.1688
12868WAT      O52177   4.886   4.365   7.641  0.0027  0.2491  0.0557
12868WAT     H152178   4.921   4.299   7.596  1.9816  0.6482  0.8853
12868WAT     H252179   4.857   4.327   7.714 -0.0160  0.1163 -0.0203
12868WAT    EPW52180   4.887   4.350   7.645  0.1068  0.6405  0.8917
12869WAT      O52181   1.707   6.302   3.024  0.3552  0.1143 -0.2277
12869WAT     H152182   1.766   6.251   3.063  1.2294  1.3271  0.0980
12869WAT     H252183   1.753   6.344   2.963 -0.4612  0.1397 -0.8511
12869WAT    EPW52184   1.722   6.301   3.021  0.1826 -0.3106 -0.1632
12870WAT      O52185   4.672   5.978   6.931 -0.2629 -0.3170  0.0025
12870WAT     H152186   4.727   5.916   6.960  0.4356  0.7165  0.9637
12870WAT     H252187   4.725   6.041   6.903 -0.9052  0.9438  1.4527
12870WAT    EPW52188   4.688   5.978   6.931 -0.4146  0.2328 -0.1710
12871WAT      O52189   2.080   3.716   6.758 -0.3150 -0.2246  0.1528
12871WAT     H152190   2.109   3.795   6.736 -1.5708  0.0533 -0.5784
12871WAT     H252191   2.096   3.667   6.688  0.3117 -0.6072  0.5441
12871WAT    EPW52192   2.087   3.721   6.745  0.4885 -0.0386 -0.4048
12872WAT      O52193   1.911   6.852   8.042 -0.1178  0.8240 -0.2075
12872WAT     H152194   1.980   6.876   8.090 -1.1103  0.6722  1.3726
12872WAT     H252195   1.944   6.841   7.962  1.9877 -0.5531  0.7569
12872WAT    EPW52196   1.926   6.854   8.037  0.7561  0.5794 -0.2282
12873WAT      O52197   2.670   2.340   0.186 -0.4963 -0.1550 -0.2090
12873WAT     H152198   2.634   2.343   0.265  0.6963 -0.9165  0.3807
12873WAT     H252199   2.688   2.424   0.169  1.4650 -0.1558  1.4258
12873WAT    EPW52200   2.667   2.353   0.195 -0.4173 -0.4347  0.7392
12874WAT      O52201   2.203   7.227   6.713  0.3518  0.1695 -0.2033
12874WAT     H152202   2.149   7.279   6.758  0.7028 -0.6615  1.2128
12874WAT     H252203   2.278   7.233   6.756  0.5643 -1.0464 -0.3899
12874WAT    EPW52204   2.206   7.236   6.726 -0.1466 -0.1128 -0.5033
12875WAT      O52205   2.049   4.681   2.128 -0.0612 -0.2694  0.3328
12875WAT     H152206   2.101   4.611   2.135 -0.7744 -0.7304  1.3609
12875WAT     H252207   2.092   4.743   2.171 -0.1077 -0.5054  0.7260
12875WAT    EPW52208   2.063   4.680   2.135 -0.0384 -0.5798  0.3526
12876WAT      O52209   1.969   6.975   3.242 -0.4529  0.5260 -0.1570
12876WAT     H152210   1.893   6.966   3.284  0.4005  0.2614  1.3899
12876WAT     H252211   2.009   7.039   3.286  0.9918 -0.6237  0.2639
12876WAT    EPW52212   1.964   6.983   3.255 -0.0871  0.4053 -0.2284
12877WAT      O52213   6.212   3.204   1.619 -0.2965  0.3868  0.1170
12877WAT     H152214   6.295   3.204   1.646  0.0526  0.4111 -0.9165
12877WAT     H252215   6.183   3.126   1.644  0.7808 -0.6436 -1.6199
12877WAT    EPW52216   6.220   3.192   1.627  0.4483 -0.0152  0.1116
12878WAT      O52217   3.418   2.013   6.750 -0.0973  0.1385 -0.5524
12878WAT     H152218   3.461   2.068   6.803  0.8090 -1.0748  0.0192
12878WAT     H252219   3.340   2.005   6.788  0.3088 -0.1856  0.2321
12878WAT    EPW52220   3.413   2.020   6.764  0.3979  0.1364  0.0874
12879WAT      O52221   1.739   5.120   6.636 -0.5525 -0.0406 -0.1235
12879WAT     H152222   1.697   5.066   6.582  1.0991 -0.9294 -0.5860
12879WAT     H252223   1.717   5.092   6.715  0.0568 -1.2490 -0.3588
12879WAT    EPW52224   1.729   5.108   6.640 -0.3781 -0.4453 -0.5550
12880WAT      O52225   2.552   2.131   1.922  0.8778 -0.3646  0.8561
12880WAT     H152226   2.553   2.139   2.008 -0.1539  1.6007  0.7256
12880WAT     H252227   2.481   2.175   1.897  0.3208 -2.0737 -0.9106
12880WAT    EPW52228   2.541   2.138   1.931  0.3535 -0.0737  0.1376
12881WAT      O52229   3.311   7.097   5.449 -0.0116  0.1206  0.0230
12881WAT     H152230   3.244   7.090   5.394 -0.5792  1.5357  0.4854
12881WAT     H252231   3.345   7.016   5.451 -0.8484 -0.2888 -1.2737
12881WAT    EPW52232   3.306   7.084   5.441  0.4084 -0.2579  0.7621
12882WAT      O52233   1.670   3.792   0.173 -0.4256  0.5844  0.2771
12882WAT     H152234   1.588   3.774   0.198 -0.1749 -2.4357 -0.6266
12882WAT     H252235   1.666   3.791   0.086  0.7948 -1.4507  0.1748
12882WAT    EPW52236   1.657   3.789   0.164  0.0318 -0.4420  0.0748
12883WAT      O52237   1.195   2.871   1.716  0.2488 -0.1190  0.1863
12883WAT     H152238   1.267   2.870   1.667  0.4557  0.8863  0.4651
12883WAT     H252239   1.203   2.943   1.765 -0.2939 -0.7107  1.1968
12883WAT    EPW52240   1.207   2.881   1.716 -0.3639 -0.5328 -0.5962
12884WAT      O52241   7.886   2.333   1.694  0.3805 -0.5524 -0.7062
12884WAT     H152242   7.830   2.350   1.629 -1.2477 -0.0515  0.7565
12884WAT     H252243   7.850   2.372   1.763  2.9813  0.5418  0.1706
12884WAT    EPW52244   7.872   2.342   1.694  0.1295 -0.3007  0.4235
12885WAT      O52245   5.132   5.947   7.382  0.6225  0.1855  0.3564
12885WAT     H152246   5.106   5.996   7.315  1.4699 -1.0759 -0.9629
12885WAT     H252247   5.214   5.972   7.396  0.6970 -0.0919  0.4236
12885WAT    EPW52248   5.140   5.958   7.374 -0.7943  0.4368 -0.7730
12886WAT      O52249   3.218   3.808   0.439  0.2516 -0.5692  0.7422
12886WAT     H152250   3.137   3.799   0.408  0.5502  1.3076 -0.7610
12886WAT     H252251   3.210   3.871   0.500  0.5723 -0.4252  0.6359
12886WAT    EPW52252   3.205   3.816   0.444 -0.8424 -0.3389 -0.1723
12887WAT      O52253   1.699   3.831   7.948 -0.4945 -0.5452 -0.1992
12887WAT     H152254   1.784   3.814   7.940 -0.4842 -1.0154  0.7846
12887WAT     H252255   1.696   3.917   7.963  0.0761 -0.9099  2.6648
12887WAT    EPW52256   1.711   3.841   7.949  0.2287  0.1966 -0.3464
12888WAT      O52257   5.186   3.383   7.367 -0.0799  0.3820  0.2678
12888WAT     H152258   5.230   3.316   7.331  1.0217 -0.2200  2.5467
12888WAT     H252259   5.221   3.452   7.328  0.0977 -0.2816 -0.7968
12888WAT    EPW52260   5.198   3.383   7.356  0.1720  0.4924 -0.0636
12889WAT      O52261   5.395   5.624   6.572  0.0381  0.6289  0.0042
12889WAT     H152262   5.395   5.699   6.527  0.2213  0.5946 -0.0521
12889WAT     H252263   5.467   5.584   6.545 -0.3538  0.1717 -0.3944
12889WAT    EPW52264   5.406   5.630   6.561 -0.5905 -0.2534  0.0025
12890WAT      O52265   3.962   4.223   7.262 -0.0032 -0.2896 -0.2487
12890WAT     H152266   4.016   4.159   7.288  0.3770 -0.6494 -1.8155
12890WAT     H252267   3.883   4.185   7.262 -0.1519 -0.0395  1.1125
12890WAT    EPW52268   3.958   4.208   7.266  0.1384 -0.8673  0.2919
12891WAT      O52269   2.419   2.839   2.308 -0.1370  0.5935 -0.4139
12891WAT     H152270   2.462   2.861   2.380 -1.1858  2.7085 -0.3820
12891WAT     H252271   2.368   2.772   2.334 -0.3323  1.1732  0.7537
12891WAT    EPW52272   2.418   2.832   2.322 -0.1880 -0.2109  0.0550
12892WAT      O52273   0.715   3.055   2.972  0.5430  0.6328  0.4008
12892WAT     H152274   0.780   3.106   3.000  1.5950  0.7142 -1.9304
12892WAT     H252275   0.725   2.982   3.018  0.9735  1.3986  1.5551
12892WAT    EPW52276   0.726   3.052   2.983 -0.1478  0.9453 -0.7361
12893WAT      O52277   3.046   0.372   6.341  0.7835 -0.4616  0.1692
12893WAT     H152278   3.021   0.451   6.313  1.3033  0.3533  1.8800
12893WAT     H252279   3.089   0.340   6.273 -1.8255 -0.5020 -1.6185
12893WAT    EPW52280   3.049   0.379   6.327  0.4234  0.3042  0.4932
12894WAT      O52281   7.049   2.581   0.089  0.2525 -0.0232  0.4616
12894WAT     H152282   7.050   2.648   0.033  0.8246 -0.1816  0.2788
12894WAT     H252283   7.093   2.612   0.158  1.3565 -0.5149  0.0067
12894WAT    EPW52284   7.056   2.596   0.091 -0.1543  0.4015 -0.1173
12895WAT      O52285   2.709   5.195   6.297  0.7388 -0.2763 -0.4380
12895WAT     H152286   2.764   5.251   6.334 -1.8466  2.0502  0.2193
12895WAT     H252287   2.688   5.233   6.221 -1.3363 -0.1219  0.1672
12895WAT    EPW52288   2.714   5.209   6.291  0.0237  0.8010  0.2252
12896WAT      O52289   1.548   5.176   8.033  0.3866 -0.4694  1.0144
12896WAT     H152290   1.478   5.134   8.002 -0.8966  1.0915  1.6195
12896WAT     H252291   1.557   5.244   7.979 -0.0850  0.6738  2.3134
12896WAT    EPW52292   1.539   5.180   8.021  0.0147  0.5438 -0.1592
12897WAT      O52293   2.398   2.562   1.885 -0.4435 -0.4960  0.5467
12897WAT     H152294   2.432   2.635   1.918 -0.7113  0.8045 -1.7786
12897WAT     H252295   2.327   2.590   1.843  0.9318 -1.5037 -2.8238
12897WAT    EPW52296   2.393   2.577   1.883  0.0445  0.0834 -0.4170
12898WAT      O52297   0.751   3.525   0.198 -0.3246 -0.2933 -0.1140
12898WAT     H152298   0.734   3.586   0.258 -2.2312 -0.9703  0.1176
12898WAT     H252299   0.803   3.565   0.141  0.3336  0.8190  1.2210
12898WAT    EPW52300   0.756   3.540   0.199  0.1230  0.0927  0.6784
12899WAT      O52301   5.087   1.078   1.058 -0.2842  0.7390  0.0183
12899WAT     H152302   5.060   1.027   0.992 -0.0392  0.2851  0.2637
12899WAT     H252303   5.085   1.025   1.127  1.1859  0.6847  0.0491
12899WAT    EPW52304   5.083   1.063   1.058  0.2820 -0.0094  0.0591
12900WAT      O52305   1.260   3.271   2.813  0.0993 -0.0476  0.6134
12900WAT     H152306   1.268   3.347   2.771  1.2430 -0.6426 -0.3049
12900WAT     H252307   1.294   3.287   2.892  2.6989 -0.1919 -0.3691
12900WAT    EPW52308   1.266   3.285   2.819 -0.1418  0.0095 -0.0901
12901WAT      O52309   7.998   3.199   1.661 -0.4346  0.0261  0.1844
12901WAT     H152310   8.081   3.194   1.634 -0.1661 -0.3533  1.0381
12901WAT     H252311   7.983   3.121   1.697 -1.7482 -0.5648 -1.5140
12901WAT    EPW52312   8.008   3.187   1.663  0.0710 -0.3463 -0.3237
12902WAT      O52313   2.398   4.874   6.490  0.4713 -0.5950 -0.3852
12902WAT     H152314   2.399   4.845   6.408 -0.2691  0.3350 -0.7361
12902WAT     H252315   2.432   4.954   6.484  0.3709 -0.5053  0.2018
12902WAT    EPW52316   2.403   4.882   6.477  0.5462  0.4354  0.3987
12903WAT      O52317   3.043   1.519   7.163 -0.6979  0.0072 -0.2094
12903WAT     H152318   3.085   1.572   7.108 -0.9098 -0.5088 -0.8875
12903WAT     H252319   3.055   1.440   7.128 -1.1391 -0.2890  0.2959
12903WAT    EPW52320   3.051   1.515   7.149  0.1139 -0.3843 -0.8476
12904WAT      O52321   5.599   7.672   7.713  0.2849  0.2580 -0.2936
12904WAT     H152322   5.605   7.616   7.779  0.4020  0.9313  0.2791
12904WAT     H252323   5.540   7.636   7.660 -0.5516  0.1948  0.6626
12904WAT    EPW52324   5.591   7.659   7.715  0.3780  0.6579  0.9353
12905WAT      O52325   2.862   1.938   5.152  0.1093  0.3141  0.5042
12905WAT     H152326   2.946   1.931   5.130  0.3459  0.7944  1.2098
12905WAT     H252327   2.852   2.024   5.167 -0.4087  0.2082  0.7934
12905WAT    EPW52328   2.873   1.950   5.151  0.0628 -0.2306  0.1245
12906WAT      O52329   6.999   5.669   0.490 -0.0407 -0.4184  0.2745
12906WAT     H152330   7.076   5.690   0.456 -0.0774 -0.6533  0.0497
12906WAT     H252331   6.944   5.727   0.454 -0.1647 -0.9839 -0.4473
12906WAT    EPW52332   7.002   5.681   0.480  0.3360 -0.1316 -0.2105
12907WAT      O52333   6.320   1.427   0.476 -0.2994  0.8753 -0.2375
12907WAT     H152334   6.304   1.505   0.441 -2.9694  0.0991 -1.0253
12907WAT     H252335   6.329   1.444   0.561 -0.8181  2.0655 -0.3996
12907WAT    EPW52336   6.319   1.441   0.483 -0.1922  0.0324 -0.3178
12908WAT      O52337   3.948   5.261   6.665 -0.3528 -0.0754 -0.9996
12908WAT     H152338   3.926   5.335   6.707  2.1887 -0.7690  1.9752
12908WAT     H252339   4.035   5.267   6.659  0.0164 -3.0584  0.0198
12908WAT    EPW52340   3.957   5.273   6.670  0.1686  0.2784  0.5052
12909WAT      O52341   2.997   4.797   4.447 -0.6932 -0.0891  0.3062
12909WAT     H152342   2.997   4.745   4.517 -2.9532  0.1235  0.5523
12909WAT     H252343   3.062   4.853   4.462 -0.8862 -0.2807  2.0594
12909WAT    EPW52344   3.007   4.798   4.460 -0.3713 -0.0576  0.3674
12910WAT      O52345   4.898   3.116   5.446 -0.1028 -0.3383  0.3370
12910WAT     H152346   4.965   3.071   5.478  0.8337  0.1582 -0.8572
12910WAT     H252347   4.847   3.129   5.516  0.5028 -1.6316  1.0604
12910WAT    EPW52348   4.900   3.111   5.461  0.0197  0.1995 -0.0964
12911WAT      O52349   1.134   5.768   2.137 -0.0508  0.2814 -0.2949
12911WAT     H152350   1.218   5.761   2.160  0.1717  0.4283 -1.0623
12911WAT     H252351   1.098   5.811   2.204  0.4032 -0.1242  0.2185
12911WAT    EPW52352   1.141   5.773   2.150  0.1092  0.4610  0.1101
12912WAT      O52353   4.324   2.586   7.913 -0.3016 -0.0011  0.3282
12912WAT     H152354   4.403   2.556   7.935  0.3925  0.9161 -0.7842
12912WAT     H252355   4.286   2.518   7.875 -0.3021 -0.6351  1.4243
12912WAT    EPW52356   4.330   2.572   7.911  0.1526  0.1797 -0.2066
12913WAT      O52357   2.646   4.336   5.372 -0.1774  0.6651  0.1930
12913WAT     H152358   2.709   4.311   5.317 -0.0387 -0.2294  0.7454
12913WAT     H252359   2.573   4.320   5.329 -0.0906 -0.7149  0.5316
12913WAT    EPW52360   2.645   4.330   5.358  0.8185  0.0028 -0.3003
12914WAT      O52361   1.496   2.227   4.790 -0.2204  0.1427  0.5872
12914WAT     H152362   1.476   2.262   4.868 -1.8468  0.3948  0.0985
12914WAT     H252363   1.424   2.242   4.743  0.6965 -0.1127 -0.9331
12914WAT    EPW52364   1.482   2.235   4.795 -0.4238 -0.3543 -0.1885
12915WAT      O52365   2.857   2.338   6.700  0.3789  0.1733 -0.8683
12915WAT     H152366   2.871   2.253   6.712 -0.9300 -0.1229 -1.2833
12915WAT     H252367   2.924   2.363   6.650 -0.2176 -1.0347 -2.3284
12915WAT    EPW52368   2.869   2.329   6.694 -0.2419  0.1306  0.2790
12916WAT      O52369   1.614   1.357   3.623 -0.2959  0.3099  0.6277
12916WAT     H152370   1.683   1.306   3.639 -0.8284 -0.5101  0.3779
12916WAT     H252371   1.567   1.310   3.566  0.3687  2.0971 -1.5079
12916WAT    EPW52372   1.617   1.342   3.617  0.1789 -0.2981  0.2319
12917WAT      O52373   0.771   4.122   2.803  0.0095  0.2451  0.1326
12917WAT     H152374   0.719   4.056   2.780  0.0029  0.7865 -1.5875
12917WAT     H252375   0.774   4.171   2.730  2.6585  0.3931  0.2503
12917WAT    EPW52376   0.764   4.119   2.789  0.1601  0.4250 -0.5422
12918WAT      O52377   7.253   7.917   2.048  0.1960 -0.0444 -0.0516
12918WAT     H152378   7.298   7.845   2.029  0.6791  0.4255 -0.7186
12918WAT     H252379   7.173   7.899   2.017 -0.7117 -1.6542  2.8205
12918WAT    EPW52380   7.248   7.903   2.040 -0.5805  0.2123 -0.5468
12919WAT      O52381   5.626   0.456   2.184 -0.0819 -0.2178  0.3746
12919WAT     H152382   5.587   0.470   2.108 -0.6352 -1.4917  0.4010
12919WAT     H252383   5.694   0.511   2.183 -0.1745 -0.1070 -0.9592
12919WAT    EPW52384   5.631   0.467   2.173 -0.1107  0.1271 -0.1764
12920WAT      O52385   1.911   7.835   7.371 -0.2460  0.0993 -0.0418
12920WAT     H152386   1.834   7.803   7.345  0.4488 -1.3149 -0.4744
12920WAT     H252387   1.965   7.815   7.305  0.2103  2.5017 -0.4866
12920WAT    EPW52388   1.908   7.827   7.357  0.2068  0.4445 -0.1990
12921WAT      O52389   5.892   2.166   6.626 -0.8218  0.0060  0.1761
12921WAT     H152390   5.875   2.201   6.704  1.8643 -0.9706  1.3242
12921WAT     H252391   5.912   2.235   6.576  0.4707  0.4682  1.2684
12921WAT    EPW52392   5.893   2.181   6.630 -0.7603  0.1035 -0.8439
12922WAT      O52393   4.504   5.101   6.211 -0.2572  0.0338  0.0904
12922WAT     H152394   4.514   5.186   6.192  1.5541  0.1224  1.1799
12922WAT     H252395   4.492   5.063   6.134  1.3955  1.0001 -0.6945
12922WAT    EPW52396   4.504   5.108   6.197  0.0285 -0.3830 -0.1938
12923WAT      O52397   6.680   4.938   1.630  0.1417 -0.1307  0.2389
12923WAT     H152398   6.731   4.982   1.575 -0.9606 -1.5546 -2.1018
12923WAT     H252399   6.737   4.897   1.682  1.2303  1.3126  0.2470
12923WAT    EPW52400   6.696   4.938   1.629  0.3761 -0.2076 -0.0784
12924WAT      O52401   6.667   6.662   1.787 -0.7317  0.0566  0.4405
12924WAT     H152402   6.688   6.670   1.871 -1.6812 -1.4556  0.8604
12924WAT     H252403   6.738   6.627   1.751 -0.0949  1.2683  0.4548
12924WAT    EPW52404   6.680   6.658   1.794  0.3971  0.2265  0.1981
12925WAT      O52405   1.877   2.736   2.130 -0.3118  0.1046  0.3421
12925WAT     H152406   1.940   2.788   2.161 -0.0177  0.5092 -0.8770
12925WAT     H252407   1.919   2.681   2.076 -0.9754  0.3352 -0.4436
12925WAT    EPW52408   1.892   2.735   2.126 -0.1238 -0.2844  0.4294
12926WAT      O52409   0.026   4.340   1.319  0.0518 -0.3050 -0.3112
12926WAT     H152410  -0.005   4.342   1.401  1.7135  0.4200  0.3602
12926WAT     H252411   0.044   4.424   1.303  2.6096 -0.7666 -0.2107
12926WAT    EPW52412   0.024   4.353   1.329 -0.0703 -0.1242 -0.3994
12927WAT      O52413   4.479   3.686   7.727 -0.3327  0.3052  0.0956
12927WAT     H152414   4.395   3.679   7.751  0.1057  0.6919  1.8621
12927WAT     H252415   4.519   3.623   7.772  0.5161  0.9472  0.2688
12927WAT    EPW52416   4.472   3.676   7.737 -0.0502 -0.2389 -0.3141
12928WAT      O52417   3.830   3.865   7.467  0.2100 -0.9359 -0.4936
12928WAT     H152418   3.770   3.823   7.420 -0.0282  0.0758 -1.1209
12928WAT     H252419   3.783   3.920   7.515  0.4754 -1.7472  0.7298
12928WAT    EPW52420   3.814   3.867   7.467  0.2101  0.0887 -0.8876
12929WAT      O52421   3.225   6.434   6.424 -0.0558 -0.4034 -0.8151
12929WAT     H152422   3.237   6.350   6.445 -0.6321 -0.5819 -1.1792
12929WAT     H252423   3.142   6.437   6.398 -0.3135  0.4613  0.0619
12929WAT    EPW52424   3.215   6.422   6.423 -0.2989 -0.9170  0.0275
12930WAT      O52425   6.114   4.151   6.130 -0.0344 -0.2508 -0.4829
12930WAT     H152426   6.084   4.072   6.110 -0.7838  0.0309 -0.5266
12930WAT     H252427   6.182   4.162   6.077 -0.5573 -0.4517 -1.2048
12930WAT    EPW52428   6.120   4.141   6.119  0.1830  0.0487 -0.2203
12931WAT      O52429   3.356   0.744   0.265  0.2531  0.0107  0.5679
12931WAT     H152430   3.395   0.667   0.254  1.2936  0.6436 -0.3952
12931WAT     H252431   3.301   0.730   0.331  1.7248 -1.0761  1.6317
12931WAT    EPW52432   3.354   0.730   0.273 -0.7835 -0.4374  0.3997
12932WAT      O52433   0.417   7.930   3.834 -0.2412 -0.4482  0.6758
12932WAT     H152434   0.441   7.910   3.916  0.7507  0.3821  0.5994
12932WAT     H252435   0.452   7.866   3.786  3.0080  1.3337  0.4195
12932WAT    EPW52436   0.426   7.918   3.839 -0.2312 -0.1351 -0.5126
12933WAT      O52437   1.612   4.646   7.787 -0.3786 -0.1205 -0.3936
12933WAT     H152438   1.693   4.661   7.815 -0.1556 -1.1342 -0.4604
12933WAT     H252439   1.613   4.671   7.704 -0.3461  0.5331 -0.2066
12933WAT    EPW52440   1.624   4.652   7.779  0.5923  0.0223 -0.3576
12934WAT      O52441   0.043   2.838   3.575 -0.4735 -0.2484 -0.0309
12934WAT     H152442   0.102   2.843   3.512  1.2425  1.0176  1.5593
12934WAT     H252443  -0.032   2.822   3.533  0.0932  3.0683 -2.6642
12934WAT    EPW52444   0.041   2.836   3.560  0.1092 -0.8317  0.2509
12935WAT      O52445   2.725   0.405   5.019  0.3326 -0.4271  0.2712
12935WAT     H152446   2.664   0.459   4.989 -0.1135 -1.6219 -1.1126
12935WAT     H252447   2.771   0.453   5.075 -1.1448  0.8369  0.4290
12935WAT    EPW52448   2.723   0.420   5.023 -0.1387  0.6268  0.0166
12936WAT      O52449   6.020   6.448   2.870  0.1411  0.0862  0.1846
12936WAT     H152450   5.944   6.486   2.849  1.6086  1.8660 -2.5046
12936WAT     H252451   6.035   6.477   2.951 -1.7336  0.1932  0.5460
12936WAT    EPW52452   6.011   6.458   2.879  0.2955 -0.6518  0.3517
12937WAT      O52453   2.002   1.924   2.943 -0.3241 -0.4677  0.6191
12937WAT     H152454   2.078   1.965   2.927 -0.5274 -0.6481 -0.8836
12937WAT     H252455   1.974   1.963   3.016  0.1024  1.2422 -0.0660
12937WAT    EPW52456   2.009   1.936   2.951  0.0531  0.0226 -0.4547
12938WAT      O52457   0.936   5.628   4.972  0.3783 -0.1668  0.3109
12938WAT     H152458   0.909   5.706   5.001  0.8148  0.2880 -0.4840
12938WAT     H252459   1.003   5.609   5.024  1.0355  0.5565 -0.2641
12938WAT    EPW52460   0.942   5.636   4.984 -0.3214 -0.1775  0.1135
12939WAT      O52461   1.004   1.383   4.955  0.2472  0.2865 -0.2171
12939WAT     H152462   1.075   1.401   5.003 -0.4276  1.0377  0.5352
12939WAT     H252463   0.962   1.459   4.952 -0.0463  0.1033 -1.5082
12939WAT    EPW52464   1.008   1.397   4.961 -0.2164  0.2988 -0.5454
12940WAT      O52465   3.091   4.594   0.607  0.4483 -0.2587  0.5536
12940WAT     H152466   3.074   4.677   0.627 -2.8152 -1.3117  3.0012
12940WAT     H252467   3.048   4.583   0.532 -0.6359 -0.1268  1.1342
12940WAT    EPW52468   3.082   4.605   0.599 -0.2818 -0.3597 -0.2557
12941WAT      O52469   1.397   3.723   0.228  0.3694  0.5073 -0.1058
12941WAT     H152470   1.324   3.741   0.273  1.1512  2.6038  0.4242
12941WAT     H252471   1.373   3.655   0.179 -2.1506  1.4479 -0.3796
12941WAT    EPW52472   1.382   3.716   0.227  0.1570  0.2857  0.1349
12942WAT      O52473   7.576   5.792   3.604 -0.1224 -0.1148  0.3428
12942WAT     H152474   7.554   5.710   3.583  0.5512 -0.2220  0.0434
12942WAT     H252475   7.503   5.824   3.641 -0.4635 -0.7696  0.2467
12942WAT    EPW52476   7.562   5.785   3.607  0.0533 -0.0592 -0.1877
12943WAT      O52477   5.509   6.389   5.914  0.1929  0.4885  0.0183
12943WAT     H152478   5.586   6.414   5.948  0.0301 -0.2714  1.0020
12943WAT     H252479   5.457   6.382   5.984 -0.4923  0.0333 -0.5232
12943WAT    EPW52480   5.513   6.392   5.929 -0.9596 -0.2706  0.1242
12944WAT      O52481   3.225   7.469   4.490 -1.1846 -0.2700 -0.3769
12944WAT     H152482   3.230   7.390   4.528  2.7614 -0.2408 -0.4773
12944WAT     H252483   3.247   7.453   4.407 -0.5325  0.8924 -0.4447
12944WAT    EPW52484   3.229   7.455   4.483 -0.3768  0.0838 -0.3278
12945WAT      O52485   3.872   6.191   5.025  0.0134 -0.5372  0.6498
12945WAT     H152486   3.846   6.193   5.108 -0.8937 -0.6760  0.3714
12945WAT     H252487   3.905   6.111   5.016 -0.3606 -0.7004  0.7301
12945WAT    EPW52488   3.873   6.179   5.036  0.2036  0.3716  0.4368
12946WAT      O52489   1.447   3.292   1.209 -0.2879  0.0061  0.5570
12946WAT     H152490   1.376   3.281   1.160 -0.3673 -0.4987  0.7775
12946WAT     H252491   1.472   3.210   1.227  0.5819  0.1690  0.1400
12946WAT    EPW52492   1.440   3.278   1.204  0.3238  0.0174  0.3189
12947WAT      O52493   5.088   4.336   5.470 -1.0367  0.3252 -0.3438
12947WAT     H152494   5.097   4.418   5.444 -0.5943  0.2495 -0.4374
12947WAT     H252495   5.158   4.321   5.518 -1.7174  0.3742  0.6895
12947WAT    EPW52496   5.099   4.346   5.473  0.5473 -0.0618  0.1806
12948WAT      O52497   0.059   3.585   0.967  0.2632 -0.1380 -0.2402
12948WAT     H152498   0.073   3.669   0.985  0.1978 -0.7057  3.0042
12948WAT     H252499   0.114   3.543   1.020 -0.7921 -2.1710 -0.6363
12948WAT    EPW52500   0.069   3.591   0.977  0.0717  0.3282  0.0286
12949WAT      O52501   6.716   2.625   5.069  0.2928 -0.1967  0.6079
12949WAT     H152502   6.755   2.691   5.111  0.6076  1.4009 -1.9658
12949WAT     H252503   6.651   2.664   5.026  0.1332 -1.6767 -0.5720
12949WAT    EPW52504   6.712   2.641   5.069 -0.5356 -0.4112  0.0151
12950WAT      O52505   1.978   0.605   7.018 -0.1741 -0.3938  0.1319
12950WAT     H152506   1.930   0.537   6.991  0.2346 -1.4082  1.8731
12950WAT     H252507   2.058   0.588   6.988 -0.7502  1.3772 -2.9121
12950WAT    EPW52508   1.982   0.593   7.010 -0.1528 -0.7137 -0.3051
12951WAT      O52509   0.926   4.509   5.045 -0.8592  0.1184 -0.1724
12951WAT     H152510   0.994   4.528   5.097 -2.7033  0.1352  2.3954
12951WAT     H252511   0.902   4.586   5.013 -1.2182  0.5107  0.9957
12951WAT    EPW52512   0.933   4.523   5.048  0.4711  0.2710 -0.5277
12952WAT      O52513   7.753   3.059   0.211  0.3156 -0.0313  0.0051
12952WAT     H152514   7.749   2.972   0.223 -0.4029  0.0860  0.6868
12952WAT     H252515   7.828   3.070   0.168  0.0504 -1.0645 -0.7662
12952WAT    EPW52516   7.764   3.048   0.207  0.2860 -0.5043  0.1941
12953WAT      O52517   3.754   4.326   7.006  0.4506 -0.5107  0.6345
12953WAT     H152518   3.671   4.342   6.983  0.9169  0.1356 -0.7246
12953WAT     H252519   3.767   4.379   7.074  0.7195  2.0290 -1.2523
12953WAT    EPW52520   3.744   4.336   7.013 -0.0700 -0.0936  0.0833
12954WAT      O52521   0.824   3.429   1.647  0.3994 -0.4638 -0.3639
12954WAT     H152522   0.808   3.365   1.590 -0.8414 -0.6774  0.1843
12954WAT     H252523   0.789   3.499   1.608  1.1976 -0.2302 -0.6796
12954WAT    EPW52524   0.816   3.430   1.632  0.0595 -0.0209 -0.2501
12955WAT      O52525   2.514   2.075   5.781  0.0085  0.1028 -0.0022
12955WAT     H152526   2.468   2.149   5.783 -0.1297  0.0153  1.2815
12955WAT     H252527   2.482   2.032   5.712 -1.2636  0.4175  0.3537
12955WAT    EPW52528   2.502   2.080   5.771  0.5105  0.5520 -0.1563
12956WAT      O52529   2.407   4.331   6.595 -0.5848  0.7386  0.1381
12956WAT     H152530   2.391   4.399   6.544 -1.3040 -0.9531 -2.0470
12956WAT     H252531   2.464   4.283   6.550  0.8164  0.3871  2.1257
12956WAT    EPW52532   2.413   4.334   6.581 -0.0291 -0.1736 -0.0599
12957WAT      O52533   2.890   5.463   5.809  0.2175 -0.2183  0.2568
12957WAT     H152534   2.874   5.542   5.843  2.6508  0.0918  0.9076
12957WAT     H252535   2.814   5.440   5.772 -0.5405  2.4953 -0.0995
12957WAT    EPW52536   2.877   5.471   5.808 -0.3138 -0.5170 -0.4697
12958WAT      O52537   3.894   4.348   2.290 -0.4785 -0.0249 -0.2442
12958WAT     H152538   3.914   4.263   2.280  0.5274  0.1707 -0.0426
12958WAT     H252539   3.955   4.376   2.346 -0.7512  0.8521 -0.3815
12958WAT    EPW52540   3.906   4.339   2.297  0.3772 -0.1552  0.1033
12959WAT      O52541   1.495   3.899   7.024  0.4233 -0.1176  0.0890
12959WAT     H152542   1.570   3.904   6.980  0.5642 -1.9697  0.0269
12959WAT     H252543   1.438   3.870   6.965  0.1283 -0.6447  0.6180
12959WAT    EPW52544   1.498   3.895   7.009  0.1172 -0.2089 -0.0373
12960WAT      O52545   4.565   2.814   7.420 -0.1657  0.3482 -0.0528
12960WAT     H152546   4.562   2.900   7.434  0.0609  0.4019 -0.3343
12960WAT     H252547   4.642   2.802   7.381 -0.5449  0.1296 -0.7510
12960WAT    EPW52548   4.576   2.825   7.416 -0.2956 -0.0068  0.6701
12961WAT      O52549   2.037   1.176   7.984 -0.1095 -0.2584 -0.4090
12961WAT     H152550   1.980   1.242   7.991  0.0755  0.0058 -1.2063
12961WAT     H252551   2.030   1.134   8.060  1.6969  2.2351  1.3019
12961WAT    EPW52552   2.028   1.180   7.996  0.0724  0.3033  0.3729
12962WAT      O52553   1.849   5.867   0.127  0.0876  0.2873  0.6322
12962WAT     H152554   1.922   5.911   0.148 -0.4500  0.9656  1.1408
12962WAT     H252555   1.816   5.845   0.205 -1.0203  1.2845  0.4786
12962WAT    EPW52556   1.855   5.871   0.142  0.2998  0.1005 -0.5680
12963WAT      O52557   1.598   4.921   4.528  0.0078  0.6156  0.3881
12963WAT     H152558   1.544   4.852   4.526  0.8346 -0.0585 -1.4989
12963WAT     H252559   1.668   4.891   4.570 -0.0925  0.6795  0.6010
12963WAT    EPW52560   1.600   4.906   4.534  0.1789  0.1752 -0.0104
12964WAT      O52561   2.954   1.606   5.762  0.0522 -0.3514  0.0693
12964WAT     H152562   2.907   1.537   5.787 -0.1013  0.0897  1.0806
12964WAT     H252563   2.965   1.595   5.677 -2.0595 -0.3723 -0.2343
12964WAT    EPW52564   2.949   1.595   5.753 -0.4827  0.3165 -0.5946
12965WAT      O52565   5.053   5.485   0.081 -0.2200  0.2766  0.1584
12965WAT     H152566   4.983   5.436   0.101 -0.2553  0.9237  1.8062
12965WAT     H252567   5.107   5.472   0.149  0.8836  0.5038 -0.6432
12965WAT    EPW52568   5.051   5.476   0.094  0.0007 -0.2560 -0.0071
12966WAT      O52569   2.388   5.456   0.858  0.8292 -0.5367 -0.4669
12966WAT     H152570   2.368   5.390   0.910 -2.2233  0.4589 -0.1580
12966WAT     H252571   2.404   5.418   0.781  0.9423 -1.7245  0.1217
12966WAT    EPW52572   2.388   5.441   0.854 -0.2188 -0.3301  0.1714
12967WAT      O52573   4.067   1.131   5.024  0.7596  0.3250  0.3849
12967WAT     H152574   4.062   1.044   5.031  0.0277  0.4063  1.1358
12967WAT     H252575   4.119   1.144   4.955 -3.3938 -0.7442 -3.4125
12967WAT    EPW52576   4.074   1.120   5.015  1.0333  0.0764 -0.3023
12968WAT      O52577   2.151   2.832   2.098  0.5793 -0.3192 -0.1675
12968WAT     H152578   2.219   2.829   2.044  1.4134 -1.5113  0.8545
12968WAT     H252579   2.182   2.794   2.171 -1.0680 -0.5463  0.4599
12968WAT    EPW52580   2.166   2.826   2.101  0.0488 -0.2296 -0.5494
12969WAT      O52581   2.221   2.544   7.735 -0.7050  0.4872 -0.1572
12969WAT     H152582   2.258   2.616   7.704  0.5139 -0.1220 -0.1537
12969WAT     H252583   2.233   2.485   7.672  1.4560 -0.6541  1.2061
12969WAT    EPW52584   2.228   2.546   7.721  0.0368  0.9207 -0.2037
12970WAT      O52585   3.254   0.062   7.140 -0.5567 -0.7708 -0.4354
12970WAT     H152586   3.321   0.072   7.195  1.0162 -2.0517 -2.0235
12970WAT     H252587   3.185   0.084   7.189  1.0651  2.0026  0.8817
12970WAT    EPW52588   3.254   0.067   7.155  0.9969 -0.2122  0.4462
12971WAT      O52589   0.244   4.647   3.280 -0.3953 -0.1893 -0.6668
12971WAT     H152590   0.311   4.625   3.228 -0.2866  0.5414 -0.8402
12971WAT     H252591   0.284   4.683   3.349 -0.5365 -1.1482 -0.0522
12971WAT    EPW52592   0.260   4.649   3.283  0.4018 -0.2904  0.1630
12972WAT      O52593   0.928   5.624   1.379 -0.5826 -0.0147 -0.2155
12972WAT     H152594   0.993   5.572   1.405  0.8089  1.4036 -0.6776
12972WAT     H252595   0.955   5.652   1.301 -2.1083  0.0637 -0.7436
12972WAT    EPW52596   0.942   5.620   1.371  0.5335  0.5773  0.0412
12973WAT      O52597   3.228   1.605   7.840  0.1553  0.1457 -0.0683
12973WAT     H152598   3.213   1.600   7.926 -0.3291 -0.5860 -0.1879
12973WAT     H252599   3.210   1.525   7.812 -1.1486  0.7542 -1.0817
12973WAT    EPW52600   3.223   1.593   7.849  0.2383  0.0332  0.3681
12974WAT      O52601   3.935   2.916   7.977  0.0810 -0.5331 -0.0801
12974WAT     H152602   3.882   2.986   7.980  0.3826 -0.3202  2.5540
12974WAT     H252603   3.946   2.902   7.892 -1.2881  1.6478 -0.6860
12974WAT    EPW52604   3.929   2.924   7.965 -0.0244 -0.8446 -0.5285
12975WAT      O52605   2.269   1.319   1.276 -0.0410  0.1131  0.3761
12975WAT     H152606   2.201   1.268   1.255 -0.7972  0.5471  1.6609
12975WAT     H252607   2.338   1.269   1.256 -0.7510 -1.0281  0.6542
12975WAT    EPW52608   2.269   1.304   1.270  0.1618  0.1635 -0.0066
12976WAT      O52609   7.846   1.828   4.270 -0.1188  0.7902 -0.2716
12976WAT     H152610   7.841   1.755   4.223 -1.5222  0.5466  0.2027
12976WAT     H252611   7.832   1.801   4.352 -0.3492  1.5400 -0.0510
12976WAT    EPW52612   7.843   1.813   4.275  0.0173 -0.4991  0.1173
12977WAT      O52613   6.776   6.661   0.324  0.1784  0.1908 -0.1457
12977WAT     H152614   6.803   6.733   0.364  0.5276 -0.0404  0.0416
12977WAT     H252615   6.725   6.691   0.259 -1.3482  0.5315  1.1468
12977WAT    EPW52616   6.772   6.676   0.320  0.1583  0.4682  0.5156
12978WAT      O52617   3.234   7.240   2.318  0.5060 -0.0204 -0.3508
12978WAT     H152618   3.169   7.234   2.261  0.8517  0.0197 -0.7484
12978WAT     H252619   3.194   7.227   2.395  0.0838 -0.3366 -0.6164
12978WAT    EPW52620   3.218   7.237   2.321  0.5138 -0.3377 -0.2734
12979WAT      O52621   5.962   2.996   7.593  0.1579 -0.0268  0.5792
12979WAT     H152622   5.922   3.056   7.642 -1.1204  0.8197 -1.3713
12979WAT     H252623   5.930   2.920   7.623 -0.5885  0.4736  1.0679
12979WAT    EPW52624   5.951   2.993   7.604  0.2347  0.2482  0.2603
12980WAT      O52625   4.618   5.409   3.988  0.3283 -0.1551  0.6747
12980WAT     H152626   4.606   5.452   4.063  1.5998 -0.5315  1.1172
12980WAT     H252627   4.537   5.398   3.957 -0.3719 -1.3287  2.7314
12980WAT    EPW52628   4.604   5.414   3.995 -0.0293 -0.7235 -0.1735
12981WAT      O52629   2.672   2.172   1.651 -0.1244  0.1854 -0.0171
12981WAT     H152630   2.751   2.186   1.685  0.4272 -0.3228 -1.0823
12981WAT     H252631   2.627   2.138   1.718  1.5117 -2.7287 -0.2262
12981WAT    EPW52632   2.677   2.169   1.666  0.0905  0.3191 -0.3453
12982WAT      O52633   5.646   4.831   0.344 -0.4644  0.4518  0.0372
12982WAT     H152634   5.610   4.875   0.410 -0.4561  1.3025 -0.5138
12982WAT     H252635   5.647   4.889   0.279  1.1513  0.2065 -0.1992
12982WAT    EPW52636   5.641   4.846   0.344  0.2364  0.0486  0.3085
12983WAT      O52637   5.851   0.184   8.064 -0.0380  0.0879 -0.3009
12983WAT     H152638   5.832   0.269   8.057  3.1035  1.1866  2.1941
12983WAT     H252639   5.894   0.167   7.990  0.9695  1.2788 -0.0325
12983WAT    EPW52640   5.854   0.194   8.052  0.8888 -1.1884 -0.1310
12984WAT      O52641   2.976   3.119   6.024 -0.0380  0.5192  0.3832
12984WAT     H152642   3.019   3.173   5.970 -0.5317  0.4577 -0.0770
12984WAT     H252643   3.036   3.061   6.047  0.0149  0.1669 -0.6128
12984WAT    EPW52644   2.992   3.119   6.020 -0.2250  0.4581  0.2173
12985WAT      O52645   1.992   6.162   1.460 -0.3822  0.0714 -0.3057
12985WAT     H152646   1.998   6.085   1.499 -0.5196  0.2211  0.0121
12985WAT     H252647   1.924   6.200   1.500 -1.4517 -0.3298 -1.6376
12985WAT    EPW52648   1.983   6.156   1.472 -0.1086 -0.1541 -0.3732
12986WAT      O52649   3.382   2.428   7.894  0.2726 -0.5601 -0.4082
12986WAT     H152650   3.322   2.491   7.880  0.5025  0.0113  0.9314
12986WAT     H252651   3.457   2.468   7.875  0.5156 -0.0239  1.4399
12986WAT    EPW52652   3.384   2.443   7.889 -0.1230  0.3370 -0.7159
12987WAT      O52653   6.126   4.074   4.083 -0.3785  0.7276  0.0590
12987WAT     H152654   6.085   4.019   4.137  0.0476  0.6657  0.3279
12987WAT     H252655   6.209   4.048   4.087 -0.6728 -1.2605 -2.9141
12987WAT    EPW52656   6.132   4.062   4.091 -0.1017  0.4989 -0.1700
12988WAT      O52657   2.651   5.363   5.703  0.6597  0.2892  0.0249
12988WAT     H152658   2.576   5.406   5.690 -0.2745 -1.0967  0.4915
12988WAT     H252659   2.648   5.298   5.646  2.2172  0.9961 -0.9243
12988WAT    EPW52660   2.639   5.360   5.693  0.2117 -0.5477  0.1248
12989WAT      O52661   2.535   2.394   0.443  0.0055  0.0479  0.0435
12989WAT     H152662   2.466   2.447   0.449  1.2069  1.8756 -1.3912
12989WAT     H252663   2.592   2.428   0.500  0.3451 -0.4666  0.0149
12989WAT    EPW52664   2.533   2.407   0.452  0.7578 -0.5615  0.5133
12990WAT      O52665   4.199   0.844   0.850  0.0769 -0.1745 -0.6109
12990WAT     H152666   4.204   0.860   0.935  0.8344 -0.7608 -0.5338
12990WAT     H252667   4.254   0.902   0.814  0.4058 -0.4859 -0.6176
12990WAT    EPW52668   4.208   0.855   0.857 -0.2541  0.1069 -0.0279
12991WAT      O52669   5.707   1.649   0.938  0.0616  0.3492  0.0371
12991WAT     H152670   5.646   1.649   0.876  0.4571  0.5184 -0.3517
12991WAT     H252671   5.735   1.567   0.939 -0.6050  0.1167  0.6514
12991WAT    EPW52672   5.702   1.637   0.929 -0.5451  0.1210 -0.4098
12992WAT      O52673   2.851   3.889   7.529  0.1195  0.3018 -0.0707
12992WAT     H152674   2.781   3.838   7.523  0.5749 -0.2581 -0.7282
12992WAT     H252675   2.918   3.834   7.518  0.6356  0.9435 -0.2030
12992WAT    EPW52676   2.851   3.874   7.527  0.0837 -0.6161  0.3982
12993WAT      O52677   2.355   7.938   7.747 -0.6816  1.0699 -0.1394
12993WAT     H152678   2.352   7.878   7.684 -1.3825  0.4024  0.5107
12993WAT     H252679   2.285   7.920   7.796  0.0933  1.2893  1.0905
12993WAT    EPW52680   2.344   7.927   7.745 -0.2971  0.2181  0.1572
12994WAT      O52681   2.588   5.300   3.127  0.1360 -0.9627  0.3058
12994WAT     H152682   2.578   5.339   3.204  4.6674  0.9447  0.2542
12994WAT     H252683   2.617   5.221   3.147 -3.4184 -2.4146  0.3728
12994WAT    EPW52684   2.591   5.294   3.141 -0.5109 -0.3101 -0.3096
12995WAT      O52685   1.374   4.792   7.876  0.0673 -0.2463  0.6295
12995WAT     H152686   1.459   4.802   7.859 -0.7397  0.6713 -4.5441
12995WAT     H252687   1.355   4.858   7.929  2.4483 -0.2386  1.5745
12995WAT    EPW52688   1.383   4.803   7.881  0.7695  0.1445 -0.0669
12996WAT      O52689   6.499   4.233   0.095  0.1325  0.3437 -0.0865
12996WAT     H152690   6.456   4.203   0.164  0.2516 -3.1775 -1.3054
12996WAT     H252691   6.439   4.278   0.050 -0.6070  0.5332  1.0707
12996WAT    EPW52692   6.484   4.235   0.098  0.1508  0.4154 -0.5906
12997WAT      O52693   3.107   2.057   1.234 -0.3438  0.3454 -0.2219
12997WAT     H152694   3.028   2.072   1.201  0.7181  0.8111 -2.7217
12997WAT     H252695   3.132   2.136   1.264 -1.1865 -0.0194  1.6037
12997WAT    EPW52696   3.099   2.071   1.234 -0.6956  0.1614  0.3008
12998WAT      O52697   2.124   4.151   5.299 -0.0026  0.2750 -0.5770
12998WAT     H152698   2.167   4.169   5.373  0.2019  0.6242 -0.7761
12998WAT     H252699   2.127   4.064   5.294  1.0589  0.3043 -0.7955
12998WAT    EPW52700   2.131   4.141   5.309  0.3713  0.1129 -1.0846
12999WAT      O52701   3.670   1.013   0.047  0.1488  0.4997 -0.2878
12999WAT     H152702   3.725   1.081   0.043 -2.3263  2.6734 -0.5368
12999WAT     H252703   3.651   1.008   0.132  0.1035  0.3187 -0.3103
12999WAT    EPW52704   3.675   1.022   0.059 -0.1943  0.0274  0.7951
13000WAT      O52705   2.844   2.140   7.729 -0.2582 -0.0144 -0.1906
13000WAT     H152706   2.900   2.075   7.715  0.9394  0.5244  1.7004
13000WAT     H252707   2.809   2.121   7.806  0.9984  2.1025  0.9960
13000WAT    EPW52708   2.847   2.128   7.738 -0.4498 -0.2353  0.2690
13001WAT      O52709   1.438   5.370   5.470 -0.3114  0.3877 -0.3427
13001WAT     H152710   1.509   5.331   5.439 -1.0277 -0.7697 -0.5910
13001WAT     H252711   1.451   5.372   5.556  0.6495  1.5201 -0.4824
13001WAT    EPW52712   1.450   5.365   5.478 -0.7510  0.6177  0.3974
13002WAT      O52713   7.589   7.675   3.762 -0.2946 -0.1002  0.2166
13002WAT     H152714   7.547   7.750   3.780  1.2303  0.6880  0.6283
13002WAT     H252715   7.616   7.648   3.840  1.4052  0.3167 -0.1808
13002WAT    EPW52716   7.586   7.682   3.776 -0.4922 -0.3044 -0.1063
13003WAT      O52717   2.110   3.377   6.066 -0.0972 -0.4505  0.2967
13003WAT     H152718   2.043   3.342   6.110  0.4415  0.1581  1.6671
13003WAT     H252719   2.082   3.457   6.045  0.3418 -0.0248  1.2782
13003WAT    EPW52720   2.096   3.383   6.070  0.2397 -0.5792 -0.1643
13004WAT      O52721   2.478   7.006   6.685  0.0978  0.4290  0.2743
13004WAT     H152722   2.485   6.919   6.679  0.9937  0.5660 -1.6160
13004WAT     H252723   2.490   7.022   6.770  3.3427 -1.0946  0.2616
13004WAT    EPW52724   2.481   6.996   6.697 -0.3370 -0.3551 -0.1778
13005WAT      O52725   0.468   5.219   2.423 -0.1594 -0.0656 -0.4479
13005WAT     H152726   0.405   5.230   2.364  0.4550 -0.3627 -1.1887
13005WAT     H252727   0.434   5.163   2.480 -0.9666  0.6546 -0.2023
13005WAT    EPW52728   0.454   5.212   2.423  0.6228  0.3736 -0.1190
13006WAT      O52729   3.351   4.725   3.388 -0.5325  0.5493  0.0766
13006WAT     H152730   3.303   4.651   3.387 -1.9787  1.3461 -3.4706
13006WAT     H252731   3.403   4.714   3.457 -2.2448 -2.7488  1.0775
13006WAT    EPW52732   3.351   4.712   3.398  0.2329 -0.0035  0.0283
13007WAT      O52733   3.579   0.394   0.833  0.2522  0.1948 -0.3961
13007WAT     H152734   3.509   0.364   0.791  1.2920 -0.0768 -2.0020
13007WAT     H252735   3.566   0.367   0.915 -1.7986  0.6861 -0.4869
13007WAT    EPW52736   3.566   0.386   0.839  0.4479 -0.0616  0.1846
13008WAT      O52737   6.063   1.702   5.822 -0.3916 -0.5563  0.3403
13008WAT     H152738   6.116   1.743   5.879  0.2342 -1.0336  0.1085
13008WAT     H252739   6.012   1.766   5.792  1.8902  0.5352 -1.5582
13008WAT    EPW52740   6.064   1.718   5.826  0.1113  0.2454  0.3637
13009WAT      O52741   1.588   3.525   6.928 -0.1635  0.3467 -0.5545
13009WAT     H152742   1.537   3.536   6.858  0.6564 -1.4571 -1.4953
13009WAT     H252743   1.548   3.572   6.989 -1.3512  1.3338 -2.0142
13009WAT    EPW52744   1.574   3.533   6.927 -0.1000  0.3737  0.2238
13010WAT      O52745   3.334   2.412   7.327  0.0708 -0.4600 -0.3383
13010WAT     H152746   3.347   2.381   7.246  2.4712  1.2913 -0.7245
13010WAT     H252747   3.248   2.404   7.338 -0.2805 -1.1270 -2.9250
13010WAT    EPW52748   3.323   2.406   7.316  0.4282 -0.3049 -0.0812
13011WAT      O52749   8.078   0.347   0.312 -0.1871  0.0033  0.5009
13011WAT     H152750   8.138   0.358   0.375 -0.0532 -1.3602  0.6345
13011WAT     H252751   8.023   0.414   0.324  0.5597  0.5041  1.2355
13011WAT    EPW52752   8.079   0.359   0.323 -0.9330  0.2077 -0.2020
13012WAT      O52753   0.502   4.447   3.409 -0.2745  0.3046 -0.7887
13012WAT     H152754   0.483   4.362   3.402  0.6679  0.0176 -0.0107
13012WAT     H252755   0.442   4.476   3.466 -1.0534  0.3264 -1.6049
13012WAT    EPW52756   0.490   4.439   3.417  0.2746 -0.2477 -0.0796
13013WAT      O52757   2.965   3.644   2.270  0.0615 -0.1039 -0.0017
13013WAT     H152758   2.986   3.723   2.242  2.1154  0.1589  2.0012
13013WAT     H252759   3.036   3.596   2.253 -0.6717 -1.2251 -0.0429
13013WAT    EPW52760   2.978   3.648   2.263  0.0191  0.0988 -0.6233
13014WAT      O52761   3.215   7.153   6.526  0.1183  0.1782 -0.4813
13014WAT     H152762   3.226   7.141   6.612  0.1126 -0.6016 -0.5902
13014WAT     H252763   3.272   7.098   6.490  0.2110  0.5942 -0.9840
13014WAT    EPW52764   3.225   7.143   6.533 -0.0108  0.7725 -0.1503
13015WAT      O52765   3.326   4.996   8.014 -0.2344  0.1736 -0.3952
13015WAT     H152766   3.377   5.061   8.044  1.4228 -0.5105 -1.5547
13015WAT     H252767   3.277   4.975   8.083  0.4942  1.4206  0.5544
13015WAT    EPW52768   3.326   5.003   8.029  0.1008  0.7618  0.9003
13016WAT      O52769   2.519   2.069   6.117  0.0738 -0.1276 -0.5000
13016WAT     H152770   2.576   2.045   6.055  0.7210  2.8289 -1.1735
13016WAT     H252771   2.442   2.064   6.076  0.4195  1.0044 -1.3500
13016WAT    EPW52772   2.516   2.064   6.102 -0.5943 -0.6185 -0.3282
13017WAT      O52773   2.598   1.624   0.474  0.2042  0.1825  0.2732
13017WAT     H152774   2.541   1.561   0.455  0.1616  0.7687 -1.6845
13017WAT     H252775   2.574   1.691   0.424  0.1731  1.8660  2.3861
13017WAT    EPW52776   2.586   1.624   0.464  0.0108  0.0746 -0.0450
13018WAT      O52777   3.412   3.201   7.324  0.7859 -0.4001 -0.1376
13018WAT     H152778   3.391   3.189   7.407  2.0431 -1.6380  0.0454
13018WAT     H252779   3.393   3.124   7.286 -0.3254  0.3324 -1.1253
13018WAT    EPW52780   3.406   3.188   7.330 -0.0811 -0.1014  0.0717
13019WAT      O52781   3.219   4.703   5.783  0.1298  0.4490  0.0743
13019WAT     H152782   3.292   4.725   5.740 -0.7269  2.2044 -0.5548
13019WAT     H252783   3.157   4.712   5.723 -0.7081 -0.4301  0.7727
13019WAT    EPW52784   3.221   4.707   5.768 -0.0171 -0.0800 -0.3392
13020WAT      O52785   3.247   1.859   4.885 -0.2771  0.1661 -0.3497
13020WAT     H152786   3.206   1.874   4.961 -0.1358  1.8225 -0.5493
13020WAT     H252787   3.231   1.932   4.839  1.8620  0.3773 -0.8743
13020WAT    EPW52788   3.239   1.872   4.890 -0.1609  0.4356  0.2277
13021WAT      O52789   6.202   3.477   1.523 -0.3963  0.3632 -0.2939
13021WAT     H152790   6.157   3.457   1.451 -2.0491  1.8002  0.2592
13021WAT     H252791   6.205   3.401   1.567  2.7136 -1.1807 -2.7842
13021WAT    EPW52792   6.196   3.463   1.519 -0.3218  0.3927 -0.3185
13022WAT      O52793   7.277   2.161   1.800 -0.2584 -0.3495  0.5841
13022WAT     H152794   7.283   2.081   1.836 -0.5113  0.2484  2.0234
13022WAT     H252795   7.360   2.187   1.794 -0.2525 -0.0823  1.6535
13022WAT    EPW52796   7.290   2.153   1.805 -0.1993  0.5235  0.1568
13023WAT      O52797   1.756   4.268   4.998 -0.3674  0.6074  0.2008
13023WAT     H152798   1.720   4.325   5.053 -0.2333  1.7858 -0.8991
13023WAT     H252799   1.693   4.252   4.940  0.0106  0.5995 -0.2101
13023WAT    EPW52800   1.741   4.274   4.998 -0.3005  0.3683  0.2606
13024WAT      O52801   0.973   4.313   5.450  0.2072 -0.2730  0.7488
13024WAT     H152802   1.028   4.261   5.406  1.7970  1.7589  0.1253
13024WAT     H252803   0.906   4.323   5.395  0.1676 -1.1601  0.6287
13024WAT    EPW52804   0.971   4.307   5.435 -0.0411 -0.5714  0.4725
13025WAT      O52805   1.836   1.677   5.276 -0.2488 -0.1655  0.3240
13025WAT     H152806   1.775   1.629   5.316 -0.2020  0.4472  1.1802
13025WAT     H252807   1.911   1.647   5.309 -0.1997  0.2261  0.5845
13025WAT    EPW52808   1.838   1.666   5.287  0.0854 -0.0119 -0.1170
13026WAT      O52809   1.868   0.409   4.004 -0.0501  0.0624  0.3215
13026WAT     H152810   1.841   0.355   4.067  0.7076  0.3855  0.9309
13026WAT     H252811   1.814   0.477   4.011 -2.7062 -1.5680 -2.0759
13026WAT    EPW52812   1.856   0.411   4.014  0.0055 -0.6221 -0.0587
13027WAT      O52813   2.726   7.840   1.987  0.2476  0.3700  0.4060
13027WAT     H152814   2.739   7.758   1.959  2.0071  0.7035  0.1153
13027WAT     H252815   2.689   7.880   1.919 -1.2118 -0.2964  0.7638
13027WAT    EPW52816   2.722   7.834   1.973 -0.2780  0.4475 -0.1217
13028WAT      O52817   1.558   2.005   6.561  0.6094  0.1656  0.2532
13028WAT     H152818   1.566   1.994   6.474 -0.2031 -0.6529  0.2589
13028WAT     H252819   1.548   1.923   6.591 -1.1667  0.5616  0.8678
13028WAT    EPW52820   1.558   1.991   6.552  0.7282 -0.0198 -0.1985
13029WAT      O52821   3.120   4.332   6.522  0.7053 -0.0622  0.2814
13029WAT     H152822   3.188   4.382   6.497  0.4566  0.8163  1.3199
13029WAT     H252823   3.102   4.361   6.602  0.8578 -2.1601  1.1300
13029WAT    EPW52824   3.128   4.344   6.530 -0.0382 -0.5293  0.1933
13030WAT      O52825   3.395   7.404   6.427  0.3451  0.2115 -0.1571
13030WAT     H152826   3.461   7.347   6.420  0.7025  0.5853  0.0892
13030WAT     H252827   3.352   7.376   6.498  1.1956  0.9055  0.6667
13030WAT    EPW52828   3.398   7.391   6.436 -0.7648 -0.3532 -0.6693
13031WAT      O52829   1.667   4.273   0.458 -0.3094  0.2528  0.2839
13031WAT     H152830   1.687   4.341   0.407  0.3803 -0.2182 -0.0905
13031WAT     H252831   1.740   4.259   0.504  0.2449 -1.3880 -0.9774
13031WAT    EPW52832   1.681   4.281   0.457 -0.0477  0.3879  0.7335
13032WAT      O52833   5.811   5.476  -0.010  0.2467 -0.0703 -0.0100
13032WAT     H152834   5.781   5.399  -0.038  0.6029 -0.3262  0.3062
13032WAT     H252835   5.862   5.455   0.057  1.2929  0.3413 -0.6539
13032WAT    EPW52836   5.814   5.462  -0.004  0.7419 -0.5927  0.1513
13033WAT      O52837   5.273   6.402   6.704  0.4674  0.2724 -0.3220
13033WAT     H152838   5.288   6.424   6.621 -0.4745  0.5012 -0.4482
13033WAT     H252839   5.266   6.315   6.701  0.2811  0.2945 -0.5060
13033WAT    EPW52840   5.274   6.392   6.691  0.5238  0.7607 -0.3021
13034WAT      O52841   3.779   3.170   8.027 -0.3608 -0.1322 -0.0782
13034WAT     H152842   3.811   3.245   8.056 -0.8184  0.9596 -2.1786
13034WAT     H252843   3.702   3.164   8.067 -1.6205  2.0455 -1.9484
13034WAT    EPW52844   3.772   3.180   8.037 -0.0799 -0.5979 -0.2755
13035WAT      O52845   0.679   4.912   3.727  0.0129  0.3893  0.0135
13035WAT     H152846   0.658   4.847   3.781  0.0351  0.5281  0.1888
13035WAT     H252847   0.625   4.976   3.750 -0.5838  0.1602 -0.7179
13035WAT    EPW52848   0.668   4.912   3.738  0.1119 -0.1701 -0.0031
13036WAT      O52849   5.189   3.228   4.945 -0.4022  0.0990 -0.0141
13036WAT     H152850   5.166   3.150   4.911  2.1202 -0.0542 -1.5641
13036WAT     H252851   5.211   3.208   5.027 -0.3597 -0.7192 -0.2136
13036WAT    EPW52852   5.189   3.213   4.952  0.1403  0.4619 -0.3146
13037WAT      O52853   1.942   5.270   5.071 -0.1373  0.0243  0.8196
13037WAT     H152854   1.963   5.198   5.027 -1.0069 -0.7143  1.5633
13037WAT     H252855   1.855   5.265   5.078 -0.1168  0.6254  1.7372
13037WAT    EPW52856   1.932   5.258   5.066  0.2567 -0.0596  0.0154
13038WAT      O52857   3.234   0.669   4.699  0.3358 -0.1860 -0.3510
13038WAT     H152858   3.266   0.749   4.687 -1.6436  0.8802  0.9236
13038WAT     H252859   3.219   0.665   4.785 -2.0635 -0.8657 -0.7099
13038WAT    EPW52860   3.237   0.680   4.710 -0.4139  0.3675  0.0736
13039WAT      O52861   3.593   4.509   5.763  0.6462 -0.5981  0.1185
13039WAT     H152862   3.599   4.579   5.712  0.0640 -1.5962 -1.3822
13039WAT     H252863   3.600   4.542   5.844  0.7621  1.1208 -0.5497
13039WAT    EPW52864   3.595   4.524   5.767 -0.5555  0.1523  0.1784
13040WAT      O52865   2.840   5.451   4.862  1.0616 -0.0872 -0.5834
13040WAT     H152866   2.882   5.401   4.805 -0.0700 -0.4129 -1.1525
13040WAT     H252867   2.780   5.398   4.896  0.1528  0.7361 -0.8525
13040WAT    EPW52868   2.838   5.436   4.859  0.1172 -0.5993  0.3903
13041WAT      O52869   3.045   5.375   6.217  0.5031  0.1863 -0.2200
13041WAT     H152870   2.976   5.416   6.251  1.1215  0.7422  0.4276
13041WAT     H252871   3.113   5.415   6.255  1.1653 -0.7714 -0.3385
13041WAT    EPW52872   3.045   5.387   6.228 -0.4307  1.0643 -0.6944
13042WAT      O52873   0.945   5.244   3.452  0.3399 -0.2454 -0.0848
13042WAT     H152874   0.958   5.211   3.532  1.0741 -2.4057 -1.0273
13042WAT     H252875   0.901   5.181   3.411 -0.9389  1.2533 -1.1163
13042WAT    EPW52876   0.941   5.230   3.458  0.6511  0.6021 -0.0834
13043WAT      O52877   7.595   4.256   2.106  0.1048  0.0810  0.0659
13043WAT     H152878   7.611   4.230   2.188 -0.6768  0.9007  0.4928
13043WAT     H252879   7.510   4.275   2.106  0.2699  0.9192 -0.6933
13043WAT    EPW52880   7.585   4.255   2.118 -0.7840 -0.3287  0.2069
13044WAT      O52881   0.622   6.723   1.846 -0.0695 -0.1927  0.0288
13044WAT     H152882   0.590   6.710   1.767  1.3478 -0.1969 -0.5850
13044WAT     H252883   0.708   6.712   1.835  0.1403 -0.3524  1.5978
13044WAT    EPW52884   0.630   6.720   1.833 -0.4386  0.3733  0.1690
13045WAT      O52885   5.674   5.066   1.274  0.5150 -0.6673 -0.0503
13045WAT     H152886   5.616   5.010   1.306  0.4013  0.0869  1.1123
13045WAT     H252887   5.734   5.014   1.237  0.9321 -1.6245  1.8707
13045WAT    EPW52888   5.675   5.050   1.273  0.8668 -0.3888 -0.5668
13046WAT      O52889   0.504   7.041   1.656 -0.3167 -0.0568 -0.4203
13046WAT     H152890   0.504   6.987   1.587 -1.2134  1.4429 -1.6421
13046WAT     H252891   0.435   7.014   1.702 -0.6962 -0.0430 -0.9655
13046WAT    EPW52892   0.494   7.029   1.652 -0.1474 -0.2547  0.0117
13047WAT      O52893   5.722   1.122   4.310 -0.2178  0.0086 -0.2723
13047WAT     H152894   5.706   1.204   4.337 -0.3591 -0.1459  0.1082
13047WAT     H252895   5.704   1.073   4.380  0.0935 -0.3300 -0.4255
13047WAT    EPW52896   5.717   1.127   4.324  0.2443 -0.1316 -0.1553
13048WAT      O52897   3.157   3.245   5.034  0.2886  0.3790 -0.0451
13048WAT     H152898   3.106   3.178   5.056  0.1407 -0.7904 -3.3989
13048WAT     H252899   3.238   3.216   5.049  0.1712  0.6273  1.2286
13048WAT    EPW52900   3.161   3.231   5.039 -0.3557  0.2253 -0.3109
13049WAT      O52901   0.022   1.796   2.200  0.2260  0.5082  0.5912
13049WAT     H152902  -0.036   1.789   2.265  0.1286 -0.1031  0.4470
13049WAT     H252903   0.044   1.880   2.201 -1.1018  0.8884  0.2743
13049WAT    EPW52904   0.016   1.807   2.210  0.1452 -0.0736  0.1215
13050WAT      O52905   0.045   3.730   2.256  0.1854  0.2395 -0.3384
13050WAT     H152906   0.035   3.650   2.288 -0.5631  0.3162 -0.3472
13050WAT     H252907   0.108   3.721   2.197 -0.5829 -0.5731 -1.0766
13050WAT    EPW52908   0.053   3.717   2.252  0.3517  0.2401 -0.2578
13051WAT      O52909   3.496   7.277   2.839 -0.4841  0.4399  0.0479
13051WAT     H152910   3.465   7.213   2.889  0.2635 -0.1432 -0.2279
13051WAT     H252911   3.504   7.241   2.760  1.6244  0.3021  0.2592
13051WAT    EPW52912   3.493   7.262   2.835  0.5098 -0.0049 -0.1765
13052WAT      O52913   2.609   6.304   5.998 -1.0557  0.0856 -0.4247
13052WAT     H152914   2.679   6.258   5.974 -0.8585  0.9033 -1.5198
13052WAT     H252915   2.618   6.379   5.954 -1.9001  0.7573  0.4997
13052WAT    EPW52916   2.621   6.308   5.988 -0.0604 -0.0408 -0.1611
13053WAT      O52917   7.029   0.624   3.270 -0.2525  0.0406  0.3643
13053WAT     H152918   6.986   0.686   3.227  0.4335 -0.0783 -0.5201
13053WAT     H252919   7.055   0.569   3.207  2.6028  0.9343  0.6222
13053WAT    EPW52920   7.026   0.625   3.255  0.9709  0.3817 -0.3469
13054WAT      O52921   2.189   4.872   2.308  0.0635 -0.1010 -0.0078
13054WAT     H152922   2.269   4.908   2.303  0.0505  0.0447  0.7439
13054WAT     H252923   2.135   4.940   2.302  0.0213 -0.0788  0.5838
13054WAT    EPW52924   2.193   4.887   2.307  0.3533  0.2526  0.0707
13055WAT      O52925   7.693   4.066   3.781  0.2753  0.0547  0.2712
13055WAT     H152926   7.733   4.109   3.846 -0.6471  0.6958  0.4274
13055WAT     H252927   7.759   4.033   3.735  0.9495 -1.0179  1.9350
13055WAT    EPW52928   7.709   4.068   3.784 -0.1664 -0.0131  0.1075
13056WAT      O52929   1.076   2.927   3.777 -0.2181 -0.1156  0.4275
13056WAT     H152930   1.145   2.932   3.724 -0.0812 -0.6804  0.5478
13056WAT     H252931   1.095   2.859   3.829 -0.9935 -0.4564  0.2738
13056WAT    EPW52932   1.089   2.918   3.777 -0.1323 -0.0482 -0.5986
13057WAT      O52933   2.028   4.326   2.759 -0.0337 -0.5703  0.0201
13057WAT     H152934   2.013   4.274   2.827  1.2880 -0.1865  0.6366
13057WAT     H252935   1.988   4.285   2.693 -2.0463 -0.5303  1.1303
13057WAT    EPW52936   2.020   4.312   2.759  0.3405 -0.2593  0.1465
13058WAT      O52937   3.542   2.779   5.287  0.3038 -0.4876 -0.2087
13058WAT     H152938   3.476   2.728   5.261 -0.3021  0.3685 -0.4077
13058WAT     H252939   3.586   2.795   5.213 -1.0860  1.4705 -0.7133
13058WAT    EPW52940   3.539   2.774   5.272 -0.2447 -0.1658  0.0024
13059WAT      O52941   1.892   6.974   5.967 -0.1934  0.2732 -0.5700
13059WAT     H152942   1.934   7.010   5.900  1.0190 -1.4254 -0.7718
13059WAT     H252943   1.944   6.909   5.992 -2.2030 -1.2896 -0.1635
13059WAT    EPW52944   1.906   6.970   5.961 -0.6903  0.7432 -0.2079
13060WAT      O52945   0.880   4.634   4.071  0.5160 -0.0834 -0.8982
13060WAT     H152946   0.847   4.682   4.136 -0.4102 -1.0506 -0.6395
13060WAT     H252947   0.960   4.613   4.099 -0.8347 -2.9500  1.3410
13060WAT    EPW52948   0.887   4.638   4.085 -0.4034  0.0121  0.0204
13061WAT      O52949   7.886   4.985   3.833 -0.3019 -0.2851  0.0364
13061WAT     H152950   7.874   4.994   3.919  0.1800  2.1621 -0.1000
13061WAT     H252951   7.961   5.025   3.817 -0.2888 -0.8328 -1.5264
13061WAT    EPW52952   7.895   4.992   3.843 -0.2109  0.1670  0.5887
13062WAT      O52953   7.008   7.865   1.907  0.2965 -0.5061 -0.3938
13062WAT     H152954   6.946   7.924   1.892 -0.3220 -1.1135 -0.2821
13062WAT     H252955   7.059   7.870   1.837  0.0182 -0.1260 -0.5693
13062WAT    EPW52956   7.006   7.874   1.895  0.0405  0.0055  0.1842
13063WAT      O52957   8.084   1.929   4.249 -0.6485 -0.3611  0.1600
13063WAT     H152958   8.023   1.870   4.266  0.2180 -0.8513  1.8911
13063WAT     H252959   8.158   1.883   4.247 -0.0766  0.4974  0.4743
13063WAT    EPW52960   8.086   1.914   4.251  0.1135  0.3402 -0.5338
13064WAT      O52961   2.036   1.648   6.219  0.1639 -0.2373 -0.5265
13064WAT     H152962   2.032   1.671   6.135 -4.1844  3.2153  0.2501
13064WAT     H252963   2.090   1.707   6.254 -1.8085  1.5909 -0.3465
13064WAT    EPW52964   2.043   1.660   6.212  0.0443  0.0642 -0.0159
13065WAT      O52965   7.779   6.230   0.497  0.5986 -0.1789  0.0399
13065WAT     H152966   7.729   6.187   0.440  0.3649 -0.5148  0.4925
13065WAT     H252967   7.851   6.181   0.502  0.8745  0.1650 -0.4097
13065WAT    EPW52968   7.783   6.216   0.489  0.2365 -0.4395 -0.1858
13066WAT      O52969   4.842   4.114   4.569 -0.4344  0.6840  0.7359
13066WAT     H152970   4.758   4.099   4.588 -0.6047 -2.0570 -1.5364
13066WAT     H252971   4.874   4.034   4.553  2.0655  1.8392 -0.5685
13066WAT    EPW52972   4.834   4.100   4.570 -0.1097 -0.0880 -0.0927
13067WAT      O52973   0.762   1.941   3.265  0.2578  0.3908  0.5745
13067WAT     H152974   0.815   2.006   3.287 -0.5115  1.4875 -0.6707
13067WAT     H252975   0.796   1.911   3.190 -1.4167  1.8708 -0.8781
13067WAT    EPW52976   0.775   1.946   3.257 -0.2509 -0.6634 -0.0981
13068WAT      O52977   7.964   3.950   2.146 -0.1778  0.3735  0.2376
13068WAT     H152978   7.890   3.961   2.191  0.3450  0.1696  1.1538
13068WAT     H252979   8.013   3.899   2.197  0.9039  1.1340 -0.0077
13068WAT    EPW52980   7.960   3.944   2.160  0.6164 -0.5404  0.5607
13069WAT      O52981   2.566   6.248   3.155  0.3595  0.2348  0.1247
13069WAT     H152982   2.479   6.254   3.150 -0.0039 -2.8279  0.6266
13069WAT     H252983   2.584   6.278   3.234 -0.5285 -0.8551  0.7766
13069WAT    EPW52984   2.556   6.253   3.166 -0.2480 -0.0401  0.0088
13070WAT      O52985   1.361   4.315   7.049 -0.2329  0.2714 -0.0193
13070WAT     H152986   1.337   4.376   7.107  0.4053  1.2861 -0.7780
13070WAT     H252987   1.441   4.341   7.024 -0.3743 -0.2950 -1.1352
13070WAT    EPW52988   1.370   4.328   7.054 -0.4431  0.1454  0.2502
13071WAT      O52989   7.893   5.871   3.081  0.0576  0.4509  0.2823
13071WAT     H152990   7.816   5.839   3.057  0.0368  0.6995  0.0054
13071WAT     H252991   7.928   5.899   3.006  0.8659 -0.5938  0.2458
13071WAT    EPW52992   7.887   5.871   3.067  0.2515 -0.7293 -0.4181
13072WAT      O52993   0.383   4.277   4.094 -0.2162 -0.2253 -0.5921
13072WAT     H152994   0.372   4.194   4.070  0.2289 -0.4176 -0.1596
13072WAT     H252995   0.303   4.302   4.119 -0.6109 -0.1294 -1.8983
13072WAT    EPW52996   0.370   4.268   4.094  0.2200  0.6125  0.2096
13073WAT      O52997   0.418   1.731   4.634  0.1337  0.3360 -0.2720
13073WAT     H152998   0.496   1.706   4.605  0.2434  0.1172  0.1910
13073WAT     H252999   0.437   1.783   4.702 -0.0615 -2.6927  2.3739
13073WAT    EPW53000   0.432   1.735   4.640 -0.0808  0.0357  0.3214
13074WAT      O53001   7.660   0.096   2.846 -0.8303 -0.7523  0.4443
13074WAT     H153002   7.641   0.102   2.761  0.7937 -2.3094 -0.0797
13074WAT     H253003   7.599   0.042   2.877 -2.1154  0.6842  0.5726
13074WAT    EPW53004   7.648   0.089   2.838  0.0023  0.2449  0.4046
13075WAT      O53005   0.782   6.138   2.462 -0.1304 -0.2163  0.7572
13075WAT     H153006   0.698   6.123   2.478  0.3785 -0.5374  3.6377
13075WAT     H253007   0.786   6.141   2.375 -3.3451  1.2264  0.4995
13075WAT    EPW53008   0.770   6.136   2.452  0.1838  0.2883  0.2735
13076WAT      O53009   1.612   5.348   2.519 -0.1164 -0.3393  0.4144
13076WAT     H153010   1.573   5.423   2.541 -0.1438 -0.0490 -0.5575
13076WAT     H253011   1.697   5.365   2.527 -0.1321 -0.2853  0.4648
13076WAT    EPW53012   1.618   5.362   2.523  0.1801  0.6769  0.1123
13077WAT      O53013   3.480   4.009   6.013 -0.1306  0.2365  0.6017
13077WAT     H153014   3.473   3.976   5.933 -0.0781  1.0225  0.2578
13077WAT     H253015   3.561   3.987   6.038  0.8416  2.1760 -0.6168
13077WAT    EPW53016   3.491   4.001   6.005 -0.6581  0.0135  0.7116
13078WAT      O53017   2.116   3.523   3.934  0.5442 -0.1023  0.0974
13078WAT     H153018   2.185   3.578   3.937  0.5801 -0.1174 -0.3899
13078WAT     H253019   2.150   3.450   3.902  0.7469 -0.8092  1.8144
13078WAT    EPW53020   2.132   3.520   3.930 -0.0252 -0.0256 -0.4986
13079WAT      O53021   5.047   6.904   3.594  0.1437  0.1657  0.3355
13079WAT     H153022   5.020   6.842   3.538  1.7852  1.1237 -1.6573
13079WAT     H253023   5.096   6.956   3.545  0.8798  1.6685  2.5004
13079WAT    EPW53024   5.050   6.902   3.579 -0.1579 -0.1038  0.2218
13080WAT      O53025   1.193   2.694   5.077 -0.2456 -0.4770  0.1345
13080WAT     H153026   1.208   2.629   5.133 -0.7401  0.4506  1.3651
13080WAT     H253027   1.133   2.743   5.116 -0.6098  0.2085 -1.2084
13080WAT    EPW53028   1.187   2.692   5.091  0.0198  0.5062 -0.3749
13081WAT      O53029   0.286   2.216   1.368  0.2910  0.3655 -0.0791
13081WAT     H153030   0.249   2.139   1.388  2.0054 -0.8270 -1.1848
13081WAT     H253031   0.343   2.228   1.433  1.4691 -0.3820 -0.9304
13081WAT    EPW53032   0.289   2.206   1.381  0.1822 -0.1127 -0.2106
13082WAT      O53033   2.387   3.639   3.059 -0.1002  0.1867 -0.1613
13082WAT     H153034   2.415   3.721   3.058  2.7266 -0.6976 -1.6032
13082WAT     H253035   2.416   3.608   3.135 -1.0032  0.4126  0.2958
13082WAT    EPW53036   2.395   3.646   3.070 -0.6801 -0.4179  0.4011
13083WAT      O53037   6.048   4.524   2.806 -0.3187  0.0369  0.2196
13083WAT     H153038   5.961   4.519   2.813 -0.2927 -2.8907 -0.1847
13083WAT     H253039   6.074   4.545   2.886 -1.3852  2.1625  0.0745
13083WAT    EPW53040   6.039   4.526   2.818  0.8299  0.4843  0.4709
13084WAT      O53041   4.250   7.019   3.880  0.0264  0.0672  0.6210
13084WAT     H153042   4.203   6.947   3.866  0.6432 -0.0310 -1.2266
13084WAT     H253043   4.226   7.072   3.815  2.3679  0.0182 -0.3870
13084WAT    EPW53044   4.239   7.016   3.868 -0.1083 -0.2111  0.5442
13085WAT      O53045   8.008   5.359   4.296 -0.5004  0.1795 -0.2331
13085WAT     H153046   8.012   5.419   4.358 -1.2505 -0.2114  0.2068
13085WAT     H253047   8.081   5.312   4.307  0.0890  0.9939 -0.5799
13085WAT    EPW53048   8.019   5.361   4.306  0.1670 -0.7472  0.4087
13086WAT      O53049   4.823   3.777   7.776  0.1357 -0.5300 -0.7336
13086WAT     H153050   4.768   3.845   7.783  0.7786  0.0039 -0.8017
13086WAT     H253051   4.775   3.709   7.803 -0.3382  0.0327 -0.1342
13086WAT    EPW53052   4.808   3.777   7.781  0.5492  0.2783  0.1198
13087WAT      O53053   3.861   5.937   1.183  0.3433  0.2203  0.1736
13087WAT     H153054   3.784   5.901   1.167  0.7829  0.0039 -1.6594
13087WAT     H253055   3.861   6.009   1.133  0.8687  0.8705  1.0764
13087WAT    EPW53056   3.850   5.943   1.173 -0.3556 -0.0686  0.6464
13088WAT      O53057   0.364   3.678   5.052  0.3799 -0.5929 -0.1464
13088WAT     H153058   0.356   3.596   5.081 -2.6136 -0.2898  0.2851
13088WAT     H253059   0.397   3.721   5.120  0.8169 -1.2441  0.0594
13088WAT    EPW53060   0.367   3.672   5.066 -0.0298 -0.1046  0.0697
13089WAT      O53061   1.825   5.382   4.210  0.1524 -0.3197  0.4296
13089WAT     H153062   1.881   5.317   4.195  0.7910 -0.2056  2.1262
13089WAT     H253063   1.874   5.442   4.250 -0.3626  1.3549 -1.3271
13089WAT    EPW53064   1.840   5.381   4.213 -0.2489 -0.1963 -0.0082
13090WAT      O53065   2.539   5.408   4.167  0.0941 -0.1123 -0.0026
13090WAT     H153066   2.484   5.367   4.114 -1.4052  0.0426  1.3302
13090WAT     H253067   2.525   5.370   4.245 -0.3368  1.9198  0.9835
13090WAT    EPW53068   2.529   5.397   4.171 -0.7289  0.0946  0.6267
13091WAT      O53069   6.030   2.084   5.515 -0.1161 -0.0774 -0.1968
13091WAT     H153070   6.006   2.137   5.580  2.0112 -0.7835  1.2724
13091WAT     H253071   6.015   2.004   5.548  1.3892 -0.4476 -0.3742
13091WAT    EPW53072   6.024   2.080   5.530  0.0883  0.3129 -0.0739
13092WAT      O53073   7.163   4.910   4.443  0.3130 -0.3393  0.0883
13092WAT     H153074   7.173   4.952   4.367 -0.7265  1.3685  0.8577
13092WAT     H253075   7.242   4.915   4.480  0.4655  0.0366 -0.2769
13092WAT    EPW53076   7.176   4.917   4.437  0.5419 -0.1216  0.5077
13093WAT      O53077   5.584   5.835   2.418  0.2283  0.4171  0.0183
13093WAT     H153078   5.567   5.750   2.410 -0.2096  0.4807  0.2189
13093WAT     H253079   5.638   5.852   2.352 -0.9509  0.3201 -0.9942
13093WAT    EPW53080   5.590   5.825   2.407 -0.3659  0.1427 -0.6792
13094WAT      O53081   5.365   4.662   3.236  0.5030 -0.1528  0.7192
13094WAT     H153082   5.339   4.743   3.257 -0.5986 -0.4505  0.5680
13094WAT     H253083   5.317   4.611   3.288  0.2094 -0.7577 -0.1259
13094WAT    EPW53084   5.354   4.666   3.247 -0.7761  0.1670  0.0020
13095WAT      O53085   0.973   5.200   1.862  0.6401 -0.7059 -0.2735
13095WAT     H153086   0.888   5.201   1.879  0.3396  0.7453 -1.6012
13095WAT     H253087   1.006   5.255   1.922  0.5073 -0.6133 -0.2846
13095WAT    EPW53088   0.965   5.209   1.874  0.1071  0.1032 -0.5228
13096WAT      O53089   5.770   2.734   4.545 -0.1958 -0.2444  0.8793
13096WAT     H153090   5.689   2.766   4.537 -0.4555 -1.3380 -1.7303
13096WAT     H253091   5.796   2.765   4.623 -1.9678  2.6267  0.4978
13096WAT    EPW53092   5.762   2.743   4.556  0.2254 -0.1588 -0.1156
13097WAT      O53093   2.473   3.126   4.316  0.1474  0.4548  0.2385
13097WAT     H153094   2.509   3.056   4.353  0.3426  0.4600  0.0576
13097WAT     H253095   2.541   3.175   4.293 -0.0010  0.9676  0.8658
13097WAT    EPW53096   2.488   3.123   4.318  0.3065  0.0272 -0.3962
13098WAT      O53097   4.331   6.782   5.988  0.0394 -0.3050  0.4405
13098WAT     H153098   4.385   6.761   6.053  0.6626  2.3417  0.8821
13098WAT     H253099   4.269   6.829   6.026  0.1865  0.9405 -0.7769
13098WAT    EPW53100   4.330   6.786   6.003 -0.2449  0.3004  0.0755
13099WAT      O53101   2.735   6.471   5.594 -0.3470 -0.0255 -0.2379
13099WAT     H153102   2.784   6.410   5.632 -0.2535 -0.6887 -1.3689
13099WAT     H253103   2.664   6.428   5.568 -0.1562  0.2469 -1.2962
13099WAT    EPW53104   2.732   6.456   5.596 -0.0558  0.4716 -0.0997
13100WAT      O53105   3.654   7.558   3.259 -0.3658 -0.5962  0.0693
13100WAT     H153106   3.686   7.594   3.186  0.1294 -1.5603 -0.2038
13100WAT     H253107   3.577   7.526   3.234 -0.8629  0.3507  0.3425
13100WAT    EPW53108   3.647   7.559   3.245 -0.1565  0.2377  0.2660
13101WAT      O53109   0.584   1.828   3.451  0.4109  0.5006 -0.2296
13101WAT     H153110   0.531   1.891   3.479  1.5489  1.8004 -0.8788
13101WAT     H253111   0.650   1.872   3.414  0.3251 -1.0513 -2.4387
13101WAT    EPW53112   0.586   1.844   3.449  0.1259 -0.1190 -0.2616
13102WAT      O53113   6.542   6.512   3.413 -0.1683  0.0792  0.1224
13102WAT     H153114   6.584   6.588   3.409 -0.7503  0.3610 -1.2635
13102WAT     H253115   6.598   6.455   3.380 -0.0214  0.0353  0.4421
13102WAT    EPW53116   6.556   6.515   3.408 -0.3400 -0.0878 -0.3790
13103WAT      O53117   2.780   2.420   4.722 -0.6075 -0.1756 -0.4083
13103WAT     H153118   2.780   2.339   4.755 -2.4442  0.0406  0.2137
13103WAT     H253119   2.725   2.464   4.774 -1.1310  1.0009 -1.8756
13103WAT    EPW53120   2.772   2.415   4.735 -0.6166 -0.4290  1.1675
13104WAT      O53121   0.444   1.889   1.296  0.0795  0.6979  0.1265
13104WAT     H153122   0.470   1.808   1.314 -1.5928  0.2379  0.7356
13104WAT     H253123   0.435   1.890   1.210 -0.3189  0.0709  0.1559
13104WAT    EPW53124   0.446   1.877   1.286  0.2460  0.3494 -0.0673
13105WAT      O53125   7.359   3.643   2.232 -0.1244  0.2853 -0.1250
13105WAT     H153126   7.339   3.571   2.187  0.7312  0.0599 -0.1674
13105WAT     H253127   7.282   3.682   2.244 -0.6240 -0.7028  0.0129
13105WAT    EPW53128   7.345   3.638   2.227 -0.5201  0.6174 -0.0339
13106WAT      O53129   0.676   1.632   4.592 -0.0964  0.2586  0.1010
13106WAT     H153130   0.740   1.684   4.565  0.0057 -0.2336 -0.6157
13106WAT     H253131   0.703   1.552   4.571 -0.7227  0.0020  0.2430
13106WAT    EPW53132   0.689   1.628   4.585 -0.4053 -0.3069 -0.1128
13107WAT      O53133   3.202   2.327   1.273  0.0081 -0.1967 -0.0690
13107WAT     H153134   3.277   2.368   1.291  0.8747 -1.7271 -0.0001
13107WAT     H253135   3.141   2.383   1.299  1.1350  0.9800  0.1335
13107WAT    EPW53136   3.204   2.341   1.280  0.2559  0.0844  0.0858
13108WAT      O53137   7.834   4.205   2.838 -0.2858 -0.2355 -0.5265
13108WAT     H153138   7.916   4.192   2.811 -0.3291  0.8087 -1.1955
13108WAT     H253139   7.794   4.131   2.815  0.4218 -0.6793 -0.3640
13108WAT    EPW53140   7.840   4.192   2.830 -0.5636  0.0933  0.3160
13109WAT      O53141   1.222   5.186   4.015 -0.2430  0.2348 -0.1588
13109WAT     H153142   1.219   5.107   4.051 -0.9642  0.0536 -0.6113
13109WAT     H253143   1.303   5.213   4.032  0.7203 -1.4363 -1.8022
13109WAT    EPW53144   1.233   5.178   4.023  0.2889 -0.2453 -0.3090
13110WAT      O53145   2.562   2.732   7.123  0.0384 -0.0391 -0.5313
13110WAT     H153146   2.486   2.740   7.082 -0.2977 -0.2775  0.0338
13110WAT     H253147   2.540   2.704   7.203  0.7185 -0.1793 -0.3823
13110WAT    EPW53148   2.548   2.729   7.129  0.1480  0.0679 -0.5869
13111WAT      O53149   4.817   0.205   1.541 -0.4284 -0.6502 -0.1315
13111WAT     H153150   4.788   0.124   1.530 -3.3741 -0.3580  3.5140
13111WAT     H253151   4.748   0.254   1.520  0.6393  0.8357 -0.3449
13111WAT    EPW53152   4.803   0.200   1.536 -0.1155 -0.6544 -0.1713
13112WAT      O53153   5.954   1.626   4.470  0.2207 -0.3793 -0.0811
13112WAT     H153154   5.948   1.589   4.391 -0.2384  0.6466 -0.5381
13112WAT     H253155   5.891   1.686   4.470  0.0673 -0.5078  1.1527
13112WAT    EPW53156   5.944   1.629   4.459 -0.4574  0.2104 -0.5441
13113WAT      O53157   0.979   5.322   1.614  0.1833  0.1654  0.0357
13113WAT     H153158   0.979   5.269   1.684 -1.0643  0.1915  0.0842
13113WAT     H253159   1.050   5.371   1.625  0.8963 -0.9197  0.4378
13113WAT    EPW53160   0.989   5.321   1.626 -0.0436 -0.4094  0.0413
13114WAT      O53161   5.722   1.843   4.960 -0.1280 -0.6075 -0.0642
13114WAT     H153162   5.788   1.858   4.906 -0.7885  0.1879 -0.6739
13114WAT     H253163   5.661   1.900   4.935 -0.8646 -0.9819  0.8018
13114WAT    EPW53164   5.722   1.853   4.948 -0.8622  0.0577  0.3272
13115WAT      O53165   2.511   5.175   3.519 -0.3859 -0.5193 -0.3727
13115WAT     H153166   2.476   5.122   3.459 -0.3415  0.6459 -1.4656
13115WAT     H253167   2.560   5.121   3.568 -2.9774 -2.0868  0.7298
13115WAT    EPW53168   2.513   5.159   3.518  0.1802 -0.3735  0.4730
13116WAT      O53169   0.036   7.427   4.472  0.2079  0.4543 -0.1378
13116WAT     H153170   0.047   7.340   4.469 -1.5511  0.1852  0.0820
13116WAT     H253171   0.075   7.455   4.400  1.1832 -0.4733  0.0117
13116WAT    EPW53172   0.043   7.418   4.461 -0.1221  0.1724 -0.3250
13117WAT      O53173   2.538   2.572   4.168 -0.1196  0.6196  0.4874
13117WAT     H153174   2.546   2.610   4.090 -1.4514 -0.3072 -0.1418
13117WAT     H253175   2.618   2.541   4.184  0.7262  2.6388  0.5228
13117WAT    EPW53176   2.551   2.573   4.159  0.0365 -0.4500 -0.1612
13118WAT      O53177   5.537   7.397   5.018  0.1760 -0.1101  0.5783
13118WAT     H153178   5.566   7.330   4.971  0.9578  0.3380  0.3969
13118WAT     H253179   5.453   7.377   5.034 -0.8826  0.8244 -3.0332
13118WAT    EPW53180   5.529   7.384   5.014 -0.4048 -0.2460 -0.2759
13119WAT      O53181   2.659   0.480   4.328 -0.0902 -0.2965  0.1725
13119WAT     H153182   2.593   0.435   4.294  0.3394 -0.5019 -0.3945
13119WAT     H253183   2.730   0.441   4.296  0.2936  0.6475 -0.1645
13119WAT    EPW53184   2.660   0.468   4.318  0.1557 -0.2676 -0.1720
13120WAT      O53185   5.890   5.247   0.408 -0.0732  0.1579  0.4235
13120WAT     H153186   5.906   5.193   0.474  1.0340 -2.0220 -1.4713
13120WAT     H253187   5.803   5.249   0.404 -0.1571  0.4354  2.0002
13120WAT    EPW53188   5.879   5.239   0.417  0.4078 -0.0567  0.8006
13121WAT      O53189   1.455   4.822   3.438 -0.1408  0.0784  0.3091
13121WAT     H153190   1.519   4.786   3.391  0.3481  0.2462  0.8465
13121WAT     H253191   1.395   4.759   3.442  0.4551 -0.4722  0.7446
13121WAT    EPW53192   1.456   4.808   3.431  0.0178 -0.1814  0.2493
13122WAT      O53193   4.928   1.471   1.336  1.0424  0.0189 -0.4635
13122WAT     H153194   4.902   1.514   1.408  1.9602 -0.3407  0.1033
13122WAT     H253195   4.936   1.535   1.277  1.5371  0.5222  0.1221
13122WAT    EPW53196   4.925   1.487   1.338  0.0126  0.3349  0.2351
13123WAT      O53197   0.966   3.996   4.652  0.2553 -0.4803 -0.2719
13123WAT     H153198   0.942   4.076   4.628  2.1150  0.9988  2.1996
13123WAT     H253199   0.925   3.984   4.728  0.8017 -1.4298 -0.1055
13123WAT    EPW53200   0.957   4.006   4.660  0.0740  0.0200  0.4426
13124WAT      O53201   7.448   5.039   2.814  0.5392  0.0980  0.1464
13124WAT     H153202   7.425   5.026   2.731 -0.7697 -0.5490  0.5829
13124WAT     H253203   7.431   5.124   2.827 -0.0949 -0.0004 -0.0055
13124WAT    EPW53204   7.443   5.050   2.804 -0.0181  0.6873  0.7429
13125WAT      O53205   1.233   6.446   1.932  0.3977 -0.4592  0.0864
13125WAT     H153206   1.185   6.398   1.878 -0.6768  0.9849 -0.3130
13125WAT     H253207   1.181   6.457   2.001  1.0878 -0.8347  0.6812
13125WAT    EPW53208   1.218   6.441   1.934 -0.3912  0.1614  0.0532
13126WAT      O53209   1.908   6.355   5.558  0.2089  0.5651  0.1800
13126WAT     H153210   1.963   6.288   5.560 -0.5648 -0.0790  2.0110
13126WAT     H253211   1.872   6.350   5.478  0.4468 -0.9732  0.1478
13126WAT    EPW53212   1.911   6.345   5.546 -0.1793 -0.0181 -0.0568
13127WAT      O53213   5.404   5.817   1.060  0.2270  0.2218 -0.3582
13127WAT     H153214   5.381   5.733   1.072  0.4326  0.3074  0.7922
13127WAT     H253215   5.488   5.812   1.039  0.9187  0.1949  2.0301
13127WAT    EPW53216   5.413   5.804   1.059 -0.0812 -0.5953  0.8291
13128WAT      O53217   1.271   7.032   2.650  0.1074 -0.2949  0.1004
13128WAT     H153218   1.252   6.947   2.638 -0.1927 -0.2715  0.4217
13128WAT     H253219   1.336   7.030   2.709 -2.8570 -0.1588  3.7370
13128WAT    EPW53220   1.278   7.019   2.657 -0.1762  0.2044 -0.0744
13129WAT      O53221   2.089   7.220   3.353 -0.6395  0.3730 -0.5434
13129WAT     H153222   2.077   7.293   3.307 -0.9583 -0.6059 -2.0990
13129WAT     H253223   2.019   7.216   3.405 -1.3835  0.4360 -1.5132
13129WAT    EPW53224   2.077   7.230   3.354  0.0941 -0.1239 -0.2604
13130WAT      O53225   0.249   4.842   1.304 -0.3901  0.4117 -0.2195
13130WAT     H153226   0.212   4.893   1.363  0.5257 -0.7742  1.4641
13130WAT     H253227   0.320   4.887   1.279 -0.5767  0.7520 -0.1351
13130WAT    EPW53228   0.254   4.856   1.309  0.2626  0.0196  0.3621
13131WAT      O53229   4.680   7.623   6.511 -0.2227 -0.7720  0.0117
13131WAT     H153230   4.622   7.647   6.450  0.9509  0.4453 -0.6799
13131WAT     H253231   4.673   7.536   6.514 -1.3304 -0.7238 -0.8027
13131WAT    EPW53232   4.670   7.614   6.502 -0.5969 -0.2202 -0.4980
13132WAT      O53233   6.738   6.067   3.343 -0.4003  0.4350 -0.1260
13132WAT     H153234   6.677   6.031   3.292 -2.4050 -0.4107  2.6581
13132WAT     H253235   6.772   5.998   3.385  2.1246  0.9580 -1.1164
13132WAT    EPW53236   6.734   6.051   3.341 -0.3977  0.1721  0.4854
13133WAT      O53237   1.749   7.265   3.872  0.5481 -0.0564  0.1402
13133WAT     H153238   1.697   7.333   3.859 -0.7765 -1.1584 -0.6634
13133WAT     H253239   1.747   7.253   3.959  0.0899  0.4052  0.1938
13133WAT    EPW53240   1.741   7.273   3.883  0.4388 -0.2394  0.6105
13134WAT      O53241   0.505   5.411   4.291  0.2636  0.2001  0.4622
13134WAT     H153242   0.514   5.404   4.378  2.3951 -0.6562  0.2253
13134WAT     H253243   0.558   5.477   4.271 -1.8875  1.9067 -0.0225
13134WAT    EPW53244   0.514   5.420   4.301 -0.2011  0.6534 -0.3591
13135WAT      O53245   7.407   3.512   3.062 -0.2238  1.1234 -0.3254
13135WAT     H153246   7.447   3.517   3.140 -2.2578 -1.3922  1.0453
13135WAT     H253247   7.332   3.553   3.075 -0.2435  1.3934 -1.2405
13135WAT    EPW53248   7.402   3.518   3.076  0.1777  0.1573  0.0080
13136WAT      O53249   2.311   7.218   0.235  0.4167 -0.6600 -0.1494
13136WAT     H153250   2.272   7.188   0.307  0.6803  1.2398  0.8594
13136WAT     H253251   2.311   7.305   0.247 -0.7747 -0.1505 -3.0963
13136WAT    EPW53252   2.305   7.226   0.248  0.7330  0.1826  0.2164
13137WAT      O53253   1.060   1.970   2.124  0.2010 -0.0217  0.0801
13137WAT     H153254   1.018   2.026   2.072  1.3764 -1.0028 -2.0511
13137WAT     H253255   1.044   2.001   2.204 -2.9546  0.7290 -0.6717
13137WAT    EPW53256   1.051   1.983   2.128 -0.9288 -0.1794  0.3541
13138WAT      O53257   0.018   7.768   3.051  0.3183  0.0206  0.1432
13138WAT     H153258   0.063   7.723   3.110  1.3738  0.1124 -0.5539
13138WAT     H253259  -0.049   7.802   3.096  0.1554 -1.2654  0.9216
13138WAT    EPW53260   0.015   7.766   3.066 -0.1087  0.5275  0.0828
13139WAT      O53261   0.682   6.958   3.751  0.0605  0.2282  0.2171
13139WAT     H153262   0.611   6.952   3.801  0.0203  0.1052  0.1440
13139WAT     H253263   0.740   6.907   3.790 -0.1184 -0.2319 -0.1179
13139WAT    EPW53264   0.680   6.950   3.764  0.2373 -0.1092 -0.0461
13140WAT      O53265   3.294   0.662   3.949 -0.0761  0.1298 -0.7532
13140WAT     H153266   3.211   0.687   3.956 -0.6220 -1.7083  0.0582
13140WAT     H253267   3.329   0.719   3.894 -2.1947  0.2127 -2.1117
13140WAT    EPW53268   3.287   0.674   3.942  0.5336 -0.1370  0.4409
13141WAT      O53269   2.201   4.478   0.589 -0.0989 -0.5197  0.0396
13141WAT     H153270   2.287   4.479   0.577 -0.1975 -0.3014 -0.6602
13141WAT     H253271   2.185   4.397   0.620  0.0999 -1.2693 -1.7365
13141WAT    EPW53272   2.212   4.466   0.592  0.1356 -0.1362  0.2054
13142WAT      O53273   7.953   2.485   4.907  0.3795  0.2099  0.0929
13142WAT     H153274   7.914   2.475   4.829 -0.7758  0.9422  0.5418
13142WAT     H253275   7.995   2.409   4.918 -0.4948 -0.4261 -0.6789
13142WAT    EPW53276   7.953   2.472   4.897  0.6348  0.0554 -0.2836
13143WAT      O53277   2.449   1.681   6.930 -0.5387  0.2347  0.6732
13143WAT     H153278   2.444   1.697   6.844 -1.3674  1.0915  0.8614
13143WAT     H253279   2.489   1.604   6.934 -1.2527 -0.2379 -0.5311
13143WAT    EPW53280   2.454   1.672   6.918 -0.0961 -0.0943 -0.6610
13144WAT      O53281   1.131   4.982   3.201  0.5921  0.4197 -0.4154
13144WAT     H153282   1.142   5.052   3.149  0.0736  1.2571  0.5599
13144WAT     H253283   1.197   4.988   3.257  0.1006  0.5781  0.1528
13144WAT    EPW53284   1.143   4.993   3.201 -0.2162  0.3757 -0.0362
13145WAT      O53285   1.757   3.487   5.808 -0.5719 -0.1945 -0.4587
13145WAT     H153286   1.706   3.526   5.868 -0.8526 -0.6288 -0.4117
13145WAT     H253287   1.709   3.491   5.735  0.0539  0.9498 -0.8263
13145WAT    EPW53288   1.742   3.493   5.806  0.1271 -0.0702  0.7226
13146WAT      O53289   2.937   5.266   3.806 -0.2835  0.5212 -0.3832
13146WAT     H153290   2.978   5.335   3.840 -0.6474  0.5488  0.0072
13146WAT     H253291   2.915   5.219   3.877  0.8647 -0.5197 -0.6732
13146WAT    EPW53292   2.940   5.269   3.822 -0.2233 -0.3522  0.4498
13147WAT      O53293   1.989   2.023   4.519  0.2422 -0.2301 -0.0106
13147WAT     H153294   1.952   2.100   4.505 -1.2759 -1.1318 -1.3698
13147WAT     H253295   2.055   2.020   4.463  0.2407  0.0451 -0.0242
13147WAT    EPW53296   1.993   2.034   4.509  0.7001 -0.0380  0.4503
13148WAT      O53297   3.248   0.015   4.718 -0.5648 -0.3321 -0.4894
13148WAT     H153298   3.278   0.097   4.709 -2.2358  0.1828 -1.9493
13148WAT     H253299   3.212   0.015   4.797 -0.7610  0.4518 -0.5623
13148WAT    EPW53300   3.247   0.027   4.728  0.1316 -0.1782  0.2428
13149WAT      O53301   8.031   6.076   0.565 -0.3522 -0.1342 -0.2359
13149WAT     H153302   8.064   6.084   0.645  0.4437  0.5331 -0.6159
13149WAT     H253303   8.091   6.113   0.514 -0.8250 -0.5862 -1.1515
13149WAT    EPW53304   8.045   6.082   0.569 -0.4355 -0.4106  0.2457
13150WAT      O53305   0.578   4.228   3.694 -0.3390 -0.1314  0.6342
13150WAT     H153306   0.656   4.249   3.662 -0.5011  0.2076  0.4609
13150WAT     H253307   0.544   4.175   3.633  0.1148 -1.0109  1.1224
13150WAT    EPW53308   0.585   4.223   3.680 -0.2270 -0.3998 -0.0442
13151WAT      O53309   2.866   0.627   2.872  0.4060 -0.8559  0.3144
13151WAT     H153310   2.919   0.695   2.858  0.2073 -0.7877 -0.1520
13151WAT     H253311   2.853   0.628   2.958 -1.3384  1.0275  0.1017
13151WAT    EPW53312   2.872   0.637   2.882  0.2338  0.3274 -0.1729
13152WAT      O53313   7.797   6.677   1.460 -0.2004  0.0450  0.4323
13152WAT     H153314   7.783   6.634   1.385  2.0824 -3.2989  1.6861
13152WAT     H253315   7.877   6.709   1.451  1.1120 -2.4042  2.0775
13152WAT    EPW53316   7.807   6.675   1.448  0.0759 -0.2156 -0.5524
13153WAT      O53317   3.273   1.905   5.669 -0.4214  0.9349 -0.1888
13153WAT     H153318   3.278   1.830   5.625  0.1056  0.5415  0.5350
13153WAT     H253319   3.324   1.892   5.739 -0.9390  1.6890  0.3449
13153WAT    EPW53320   3.282   1.892   5.673  0.0759 -0.1339 -0.0738
13154WAT      O53321   6.947   7.641   1.464  0.1268  0.8816 -0.1680
13154WAT     H153322   6.889   7.705   1.454  1.3224  2.2286  1.0509
13154WAT     H253323   7.020   7.672   1.427  0.8885  0.5116  0.9477
13154WAT    EPW53324   6.949   7.655   1.457  0.2396  0.5960 -0.3398
13155WAT      O53325   7.596   4.877   0.861  0.5915 -0.0335  0.3554
13155WAT     H153326   7.585   4.852   0.944  2.1824  0.2570  0.6858
13155WAT     H253327   7.629   4.806   0.822  0.3076 -0.0166  0.0789
13155WAT    EPW53328   7.600   4.863   0.868 -0.5368  0.1624  0.2123
13156WAT      O53329   5.573   1.194   0.527  0.1324 -0.0502 -0.6188
13156WAT     H153330   5.574   1.134   0.463  1.7707 -0.9249  0.1721
13156WAT     H253331   5.643   1.243   0.510 -0.0029  0.3382 -0.0600
13156WAT    EPW53332   5.583   1.192   0.515  0.2806  0.2350  0.2482
13157WAT      O53333   4.322   7.122   6.703 -0.7523  0.3633  0.1062
13157WAT     H153334   4.382   7.179   6.733 -0.2173  0.4091 -0.9789
13157WAT     H253335   4.279   7.099   6.774 -0.2449  1.2830  0.7469
13157WAT    EPW53336   4.325   7.127   6.718  0.3118  0.8695  0.1251
13158WAT      O53337   2.574   6.211   1.751  0.0241  0.6082  0.0253
13158WAT     H153338   2.642   6.157   1.743 -0.9700 -0.4243 -2.4286
13158WAT     H253339   2.531   6.180   1.820  0.8240 -0.1323  0.2040
13158WAT    EPW53340   2.578   6.199   1.760  0.6546  0.2809  0.2919
13159WAT      O53341   3.637   1.056   3.003 -0.2870 -0.2894  0.1224
13159WAT     H153342   3.722   1.076   3.001 -0.6946  1.6745 -0.0825
13159WAT     H253343   3.634   0.983   3.050  1.4660 -0.0391  0.6942
13159WAT    EPW53344   3.649   1.048   3.010 -0.4472  0.1968  0.2511
13160WAT      O53345   2.076   5.243   6.427 -0.0855  0.2351  0.0864
13160WAT     H153346   2.142   5.300   6.426  0.5010 -0.4399 -0.7061
13160WAT     H253347   2.093   5.190   6.360 -2.2907  1.0151 -1.1855
13160WAT    EPW53348   2.088   5.243   6.417 -0.1355  0.6921  0.2655
13161WAT      O53349   2.190   2.314   7.968 -0.0089 -0.1882 -0.3743
13161WAT     H153350   2.195   2.378   7.908  0.4870 -0.2957 -0.4471
13161WAT     H253351   2.226   2.246   7.928  3.1283  0.4665  1.0353
13161WAT    EPW53352   2.196   2.314   7.953 -0.8947  0.0680  0.0770
13162WAT      O53353   0.770   7.129   0.561 -0.1646 -0.5109 -0.6865
13162WAT     H153354   0.728   7.135   0.485 -0.9785  1.1387 -0.1729
13162WAT     H253355   0.854   7.133   0.539 -0.4003  1.1593 -1.4673
13162WAT    EPW53356   0.776   7.130   0.547  0.6980 -0.0722  0.2246
13163WAT      O53357   6.432   5.187   5.169  0.2839  0.1784  0.1197
13163WAT     H153358   6.519   5.184   5.174  0.2586 -1.5821  0.3275
13163WAT     H253359   6.417   5.192   5.083  0.6365 -2.2938 -0.1655
13163WAT    EPW53360   6.442   5.187   5.157  0.7215 -0.2709 -0.1112
13164WAT      O53361   0.189   1.596   2.019 -0.0927 -0.0639 -0.2921
13164WAT     H153362   0.148   1.639   2.082 -0.9217 -0.1034 -0.7824
13164WAT     H253363   0.173   1.645   1.948  1.5784  0.4635 -0.3354
13164WAT    EPW53364   0.180   1.610   2.018  0.3665 -0.5679  0.1771
13165WAT      O53365   2.190   3.718   3.321  0.1138  0.4911 -0.1738
13165WAT     H153366   2.157   3.645   3.357 -1.0637  0.9597 -0.2500
13165WAT     H253367   2.236   3.688   3.253 -0.2117 -0.2024 -0.1024
13165WAT    EPW53368   2.192   3.703   3.316  0.0454 -0.3764  0.3106
13166WAT      O53369   2.847   6.390   1.266 -0.4784  0.0863 -0.2534
13166WAT     H153370   2.774   6.342   1.257  0.4018 -1.1675 -1.0395
13166WAT     H253371   2.910   6.336   1.238  0.8741  0.8229  1.2225
13166WAT    EPW53372   2.845   6.375   1.261 -0.2375 -0.1783  0.1082
13167WAT      O53373   6.353   3.238   3.805  0.0445 -0.3543  0.2606
13167WAT     H153374   6.327   3.321   3.806 -1.5686 -0.7621 -1.1287
13167WAT     H253375   6.440   3.243   3.804 -0.0076  1.3927 -1.4619
13167WAT    EPW53376   6.362   3.251   3.805  0.1781 -0.0516  0.1147
13168WAT      O53377   6.975   7.451   1.681  0.6155  0.4742  0.2505
13168WAT     H153378   6.979   7.499   1.753  0.6039  2.8501 -1.2313
13168WAT     H253379   6.957   7.509   1.618  0.4313 -1.5058 -1.6488
13168WAT    EPW53380   6.973   7.466   1.682  0.5752  0.9633 -0.4031
13169WAT      O53381   1.184   6.316   2.418 -0.0671  0.3601 -0.5086
13169WAT     H153382   1.245   6.275   2.465  1.4760  0.8444 -1.9740
13169WAT     H253383   1.222   6.391   2.396 -2.4106  2.1650  1.1703
13169WAT    EPW53384   1.199   6.321   2.422  0.2289  0.1796 -0.3068
13170WAT      O53385   0.023   2.520   2.127  0.1757 -0.8950 -0.0334
13170WAT     H153386   0.061   2.571   2.187  0.2205 -0.7008 -0.2241
13170WAT     H253387  -0.035   2.474   2.173 -0.5654  0.0359  0.0107
13170WAT    EPW53388   0.020   2.521   2.143 -0.2703  0.0466 -0.0154
13171WAT      O53389   2.582   5.391   2.231  0.2358  0.2294 -0.6950
13171WAT     H153390   2.573   5.307   2.212 -0.3710 -0.1399  0.9807
13171WAT     H253391   2.666   5.398   2.254 -0.2794 -0.6184  1.8421
13171WAT    EPW53392   2.593   5.380   2.232 -0.4467 -0.1204 -0.1688
13172WAT      O53393   7.213   4.114   4.146 -0.1185  0.5726 -0.4735
13172WAT     H153394   7.236   4.103   4.229 -0.1218 -1.6010 -0.7232
13172WAT     H253395   7.282   4.085   4.101 -1.6091 -2.1984 -1.1983
13172WAT    EPW53396   7.227   4.108   4.152  0.3399 -0.2145  0.5185
13173WAT      O53397   5.292   7.405   7.319 -0.2569 -0.2039  0.2781
13173WAT     H153398   5.376   7.386   7.313  0.3296  1.9979  0.6663
13173WAT     H253399   5.253   7.327   7.321  1.7772 -1.2709  0.4394
13173WAT    EPW53400   5.298   7.390   7.319 -0.2027  0.2520  0.1902
13174WAT      O53401   3.290   3.643   2.002 -0.0390 -0.3937 -0.3650
13174WAT     H153402   3.232   3.629   1.939  0.0887  1.6976 -1.0287
13174WAT     H253403   3.366   3.621   1.966  0.0627  1.0296 -1.0752
13174WAT    EPW53404   3.292   3.638   1.988 -0.3827 -0.1869  0.6257
13175WAT      O53405   1.427   5.777   2.176  0.1459  0.4779 -0.4120
13175WAT     H153406   1.409   5.859   2.153  0.8113  0.7805  0.1060
13175WAT     H253407   1.451   5.784   2.260 -0.0704 -0.2837 -0.2800
13175WAT    EPW53408   1.428   5.790   2.185 -0.1142 -0.2661 -0.5392
13176WAT      O53409   0.520   2.246   1.540  0.6053 -0.0086 -0.0345
13176WAT     H153410   0.570   2.179   1.567  0.9173 -0.5248 -1.8028
13176WAT     H253411   0.477   2.269   1.612  0.9191 -1.7432  0.7511
13176WAT    EPW53412   0.521   2.240   1.555  0.4805 -0.1568 -0.4569
13177WAT      O53413   6.851   7.693   2.583 -0.0920 -0.1062  0.4400
13177WAT     H153414   6.785   7.677   2.638  0.4536  1.7377  1.7544
13177WAT     H253415   6.898   7.754   2.625  1.3963  0.0234 -1.2857
13177WAT    EPW53416   6.848   7.700   2.598  0.1732 -0.0718 -0.1698
13178WAT      O53417   6.394   5.466   0.119 -0.4221 -0.4103 -0.2567
13178WAT     H153418   6.356   5.413   0.061 -0.5365 -0.3545 -0.2324
13178WAT     H253419   6.392   5.544   0.079 -0.8143 -0.3025 -0.0337
13178WAT    EPW53420   6.388   5.470   0.104 -0.1009  0.5921  0.5126
13179WAT      O53421   6.434   4.801   2.667 -0.2182  0.0767 -0.3977
13179WAT     H153422   6.367   4.841   2.626 -0.6785 -0.3489 -0.0803
13179WAT     H253423   6.504   4.827   2.622 -0.6348  0.2512 -0.9645
13179WAT    EPW53424   6.434   4.811   2.654 -0.4296  0.3201 -0.3410
13180WAT      O53425   6.493   5.727   2.709  0.9502  0.0057 -0.6611
13180WAT     H153426   6.540   5.787   2.752  1.2482 -0.7556  0.1197
13180WAT     H253427   6.551   5.663   2.694  1.0535  0.5445 -2.9099
13180WAT    EPW53428   6.509   5.727   2.713 -0.3752  0.6127  0.0391
13181WAT      O53429   5.056   5.749   0.703  0.5014 -0.3421  0.9462
13181WAT     H153430   5.138   5.775   0.691 -0.0457  0.3913 -1.8987
13181WAT     H253431   5.024   5.806   0.760  0.7038  2.5061 -1.5583
13181WAT    EPW53432   5.063   5.761   0.709 -0.0506  0.2823  0.5812
13182WAT      O53433   2.488   4.020   0.988  0.0838  0.3382  0.2277
13182WAT     H153434   2.470   3.977   0.915 -1.5878  0.3427  0.5946
13182WAT     H253435   2.523   4.095   0.960  0.1349  0.0447 -0.5219
13182WAT    EPW53436   2.491   4.025   0.973 -0.3473  0.6985  0.0593
13183WAT      O53437   1.689   1.997   7.261 -0.2623  0.4383 -0.8572
13183WAT     H153438   1.743   1.941   7.301  0.3838  0.1507 -2.0807
13183WAT     H253439   1.736   2.071   7.256 -1.1264  1.1584  0.7888
13183WAT    EPW53440   1.704   2.000   7.266  0.1795  0.0685 -0.9393
13184WAT      O53441   4.546   2.196   7.763 -0.4756 -0.3167 -0.2097
13184WAT     H153442   4.576   2.235   7.692  0.0053 -0.9551 -0.3660
13184WAT     H253443   4.469   2.164   7.738 -0.7380  0.2703 -0.1629
13184WAT    EPW53444   4.539   2.197   7.749 -0.2810 -0.5570 -0.4683
13185WAT      O53445   7.694   2.146   2.895  0.1607 -0.7542 -0.6878
13185WAT     H153446   7.662   2.130   2.975 -1.4939  1.0620 -0.8852
13185WAT     H253447   7.698   2.233   2.892  1.6409 -0.8213 -2.0778
13185WAT    EPW53448   7.690   2.157   2.906  0.4044 -0.1761 -0.6363
13186WAT      O53449   0.952   7.257   4.117  0.3352 -0.2498 -0.6185
13186WAT     H153450   0.893   7.215   4.166 -0.3672  0.6599 -0.6458
13186WAT     H253451   0.983   7.195   4.064  0.0237 -0.9307 -0.0195
13186WAT    EPW53452   0.948   7.242   4.116  0.0680 -0.1343 -0.1872
13187WAT      O53453   5.299   4.177   0.670  0.4446  0.0409 -0.4537
13187WAT     H153454   5.258   4.146   0.741  0.4786 -0.0489 -0.4731
13187WAT     H253455   5.356   4.234   0.703  0.1337  0.3509 -0.4457
13187WAT    EPW53456   5.301   4.181   0.686 -0.1049 -0.2723 -0.0277
13188WAT      O53457   0.793   0.580   0.694  0.0177  0.0960 -0.0403
13188WAT     H153458   0.778   0.630   0.624  2.6213 -1.0664 -1.5763
13188WAT     H253459   0.766   0.501   0.669 -0.3764 -0.0638  0.8483
13188WAT    EPW53460   0.787   0.576   0.680  0.1166  0.0553 -0.1343
13189WAT      O53461   7.779   2.685   5.036 -0.6390  0.5140 -0.3227
13189WAT     H153462   7.821   2.609   5.024 -0.9933 -0.0667  1.6484
13189WAT     H253463   7.829   2.726   5.095 -0.9089  1.4571 -0.7345
13189WAT    EPW53464   7.793   2.679   5.043 -0.3575 -0.3228 -0.0208
13190WAT      O53465   7.122   2.898   0.115  0.1688 -0.1045  0.1589
13190WAT     H153466   7.181   2.954   0.083 -0.8367  2.2236  2.0545
13190WAT     H253467   7.170   2.848   0.169  0.9104 -0.4627 -0.7938
13190WAT    EPW53468   7.138   2.899   0.119  0.0928  0.4819  0.1231
13191WAT      O53469   3.765   2.498   1.767  0.2894  0.2902  0.0247
13191WAT     H153470   3.698   2.533   1.724 -0.3234 -0.0386  0.6881
13191WAT     H253471   3.784   2.558   1.827  1.5185  1.0048 -1.0437
13191WAT    EPW53472   3.758   2.512   1.770  0.5480  0.0345  0.0960
13192WAT      O53473   4.446   7.315   4.074 -0.0928  0.1712  0.0213
13192WAT     H153474   4.403   7.358   4.011  1.0278  1.7789  0.3028
13192WAT     H253475   4.401   7.336   4.146 -1.3173 -1.5910 -0.1564
13192WAT    EPW53476   4.433   7.324   4.075 -0.5168 -0.3720 -0.1078
13193WAT      O53477   7.204   1.531   2.264 -0.2565 -0.1389 -0.6485
13193WAT     H153478   7.199   1.566   2.185 -0.9365 -1.4586 -1.2260
13193WAT     H253479   7.285   1.500   2.268 -0.2945 -0.2763 -0.9250
13193WAT    EPW53480   7.215   1.532   2.253  0.0540  0.1671  0.0735
13194WAT      O53481   7.313   6.187   1.702 -0.1237 -0.1900  0.0515
13194WAT     H153482   7.380   6.162   1.751  0.8901  0.0760 -1.1238
13194WAT     H253483   7.251   6.208   1.759  1.2496  0.8132  1.2487
13194WAT    EPW53484   7.314   6.187   1.717  0.3990 -0.0620 -0.2942
13195WAT      O53485   2.024   3.145   4.055  0.1681  0.2218  0.0926
13195WAT     H153486   2.108   3.125   4.065  0.5364  1.2223 -0.7550
13195WAT     H253487   2.010   3.132   3.969 -1.2847 -2.5141  0.6264
13195WAT    EPW53488   2.034   3.141   4.044 -0.0934  0.4328  0.3609
13196WAT      O53489   2.341   0.770   0.684  0.1606  0.2819  0.1526
13196WAT     H153490   2.259   0.756   0.708 -0.1541  4.0664  1.9929
13196WAT     H253491   2.336   0.784   0.598 -1.4187  1.7531  0.4399
13196WAT    EPW53492   2.328   0.770   0.675 -0.2748  0.0304 -0.3374
13197WAT      O53493   0.263   0.047   4.150 -0.3102  0.3839 -0.5449
13197WAT     H153494   0.193   0.045   4.099  0.6610  1.2866 -2.0026
13197WAT     H253495   0.285   0.132   4.151  0.4586  0.1910  0.3038
13197WAT    EPW53496   0.256   0.059   4.143 -0.0624 -0.0969 -0.5938
13198WAT      O53497   3.111   4.443   4.362  0.1150  0.0012 -0.8031
13198WAT     H153498   3.086   4.363   4.384 -0.5094 -0.1533 -2.0333
13198WAT     H253499   3.158   4.469   4.431 -0.2793 -1.1334 -0.0825
13198WAT    EPW53500   3.114   4.435   4.375 -0.1055  0.3671  0.4221
13199WAT      O53501   5.326   7.300   0.404  0.2406 -0.2774 -0.1877
13199WAT     H153502   5.329   7.261   0.482 -0.6565  0.2807  0.1296
13199WAT     H253503   5.377   7.370   0.414 -2.4462  1.6775  0.9938
13199WAT    EPW53504   5.334   7.304   0.417 -0.0413 -0.1061  0.1492
13200WAT      O53505   7.358   3.314   1.842 -0.0588  0.1504 -0.6858
13200WAT     H153506   7.303   3.246   1.829  0.0632  0.1198 -1.0587
13200WAT     H253507   7.339   3.368   1.776  1.0580 -0.3197 -1.4273
13200WAT    EPW53508   7.347   3.312   1.831 -0.0585  0.0877  0.4092
13201WAT      O53509   2.337   0.058   2.017  0.4830  0.2023 -0.5816
13201WAT     H153510   2.419   0.083   2.001  0.8067 -0.1679  0.4015
13201WAT     H253511   2.289   0.117   1.974  1.2629  0.5917 -0.9408
13201WAT    EPW53512   2.342   0.071   2.008 -0.2445 -0.1887 -0.1865
13202WAT      O53513   5.360   6.300   7.718  0.2722  0.2033  0.5775
13202WAT     H153514   5.441   6.307   7.688  0.8883 -2.1653  1.4564
13202WAT     H253515   5.365   6.335   7.798  0.8902 -1.2796  1.2368
13202WAT    EPW53516   5.373   6.306   7.726 -0.3179 -0.6948  0.1232
13203WAT      O53517   1.896   4.186   1.842 -0.0658 -0.3239  0.1173
13203WAT     H153518   1.969   4.193   1.795 -0.7749 -0.3811 -1.0312
13203WAT     H253519   1.833   4.210   1.786 -0.9694 -0.7537  0.9207
13203WAT    EPW53520   1.897   4.190   1.827  0.5170  0.7023 -0.3730
13204WAT      O53521   4.665   2.296   0.687 -0.0257  0.1262  0.4777
13204WAT     H153522   4.584   2.319   0.711 -0.7114  1.7295 -2.7459
13204WAT     H253523   4.656   2.211   0.666 -0.5434 -0.0499  1.3714
13204WAT    EPW53524   4.651   2.287   0.687 -0.0976  0.2082  0.7941
13205WAT      O53525   2.799   6.917   5.186  0.0650  0.0215 -0.2511
13205WAT     H153526   2.877   6.878   5.192  0.3901  0.7417  0.4715
13205WAT     H253527   2.818   6.997   5.157 -0.5951 -0.3436 -1.7793
13205WAT    EPW53528   2.813   6.923   5.183 -0.4600 -0.4736 -0.1726
13206WAT      O53529   6.457   1.114   2.179 -0.4759 -0.3957 -0.0738
13206WAT     H153530   6.468   1.174   2.116  0.9657 -0.0114  0.4985
13206WAT     H253531   6.398   1.059   2.145 -0.8904  0.6476 -1.1225
13206WAT    EPW53532   6.450   1.115   2.165 -0.4452 -0.1618 -0.0756
13207WAT      O53533   6.519   3.281   3.103  0.4034 -0.4459 -0.6710
13207WAT     H153534   6.470   3.343   3.065 -2.1449 -1.0857  1.3238
13207WAT     H253535   6.573   3.327   3.153 -0.6115  0.2483 -0.1634
13207WAT    EPW53536   6.519   3.297   3.105  0.1390 -0.2225 -0.9235
13208WAT      O53537   1.385   4.443   1.206 -0.2592 -0.1069  0.2361
13208WAT     H153538   1.358   4.429   1.288  0.0832 -1.1196  0.1853
13208WAT     H253539   1.402   4.363   1.176  1.0916  0.3542 -0.3125
13208WAT    EPW53540   1.384   4.429   1.214 -0.4000 -0.1262 -0.0658
13209WAT      O53541   3.791   7.482   7.077 -0.4691 -0.7477  0.2355
13209WAT     H153542   3.752   7.481   6.999 -0.8599  1.1775  0.3551
13209WAT     H253543   3.755   7.550   7.117  0.9015 -0.7086  1.4802
13209WAT    EPW53544   3.780   7.492   7.071  0.2839  0.1167  0.3982
13210WAT      O53545   4.332   2.613   6.780  0.0343  0.0200 -0.3179
13210WAT     H153546   4.392   2.564   6.740 -0.0451  0.3800 -0.8883
13210WAT     H253547   4.323   2.681   6.727  0.6557  1.0153  0.7992
13210WAT    EPW53548   4.340   2.615   6.766  0.0158  0.9961 -0.1372
13211WAT      O53549   3.232   0.448   2.255 -0.2112  0.2056  0.0155
13211WAT     H153550   3.174   0.494   2.300  0.0238  1.1353 -0.5868
13211WAT     H253551   3.263   0.506   2.197  2.2413  0.1237  1.1297
13211WAT    EPW53552   3.228   0.464   2.253 -0.4507 -0.1784 -0.2036
13212WAT      O53553   1.339   7.507   1.689  0.2520  0.5772  0.0415
13212WAT     H153554   1.286   7.501   1.619 -0.0628 -1.3188  0.3738
13212WAT     H253555   1.366   7.589   1.687  0.0887  0.6581 -2.2149
13212WAT    EPW53556   1.335   7.518   1.678 -0.3522  0.3336 -0.5795
13213WAT      O53557   6.854   3.509   4.210  0.4386 -0.0157 -0.3078
13213WAT     H153558   6.793   3.509   4.148  0.4981 -2.2001 -0.4500
13213WAT     H253559   6.926   3.483   4.168  0.6404 -0.8375  0.5074
13213WAT    EPW53560   6.856   3.505   4.195 -0.4064 -0.4527  0.3938
13214WAT      O53561   1.107   7.727   0.031 -0.0995  0.0362  0.4096
13214WAT     H153562   1.040   7.701  -0.018  0.3930 -1.0075  0.2668
13214WAT     H253563   1.070   7.777   0.092 -1.0464 -0.6931  0.4513
13214WAT    EPW53564   1.092   7.730   0.033 -0.4939  0.5534  0.1534
13215WAT      O53565   1.689   4.237   2.349 -0.5358  0.1650 -0.1894
13215WAT     H153566   1.770   4.241   2.381 -0.3095  0.9220 -0.8328
13215WAT     H253567   1.664   4.321   2.346 -1.6989 -0.1034  0.8832
13215WAT    EPW53568   1.697   4.250   2.354  0.0045 -0.3033  0.2067
13216WAT      O53569   5.185   3.685   2.386 -0.1413 -0.0287 -0.4388
13216WAT     H153570   5.191   3.614   2.336  0.2665  0.0474 -0.4972
13216WAT     H253571   5.124   3.733   2.346 -1.9655 -1.2350  0.6935
13216WAT    EPW53572   5.177   3.682   2.373  0.4093  0.1511 -0.0325
13217WAT      O53573   3.630   2.071   3.286  0.8850  0.3632  0.0624
13217WAT     H153574   3.668   2.115   3.221  0.0124  0.6407 -0.2657
13217WAT     H253575   3.621   1.990   3.254  0.7793  0.4129 -0.0355
13217WAT    EPW53576   3.634   2.065   3.272  0.0186  0.1850  0.2483
13218WAT      O53577   1.396   2.631   3.509 -0.4020 -0.3410  0.0510
13218WAT     H153578   1.388   2.546   3.491  0.8340 -0.3413 -0.6527
13218WAT     H253579   1.482   2.644   3.508 -0.5977  1.2676 -1.6437
13218WAT    EPW53580   1.407   2.621   3.506 -0.0342  0.1039  0.3003
13219WAT      O53581   5.573   3.068   1.897 -0.6021  0.1500  0.0994
13219WAT     H153582   5.520   3.134   1.875 -1.7551 -0.2629  1.4545
13219WAT     H253583   5.564   3.011   1.831  0.6654  1.4393 -1.2526
13219WAT    EPW53584   5.564   3.069   1.884  0.1647 -0.6994  0.2512
13220WAT      O53585   7.340   3.656   3.520  0.5010  0.0124  0.3079
13220WAT     H153586   7.364   3.626   3.598 -0.3772 -1.8524 -0.0990
13220WAT     H253587   7.336   3.743   3.532 -0.6110 -0.2902  2.6253
13220WAT    EPW53588   7.343   3.665   3.533  0.3477  1.1817 -0.1385
13221WAT      O53589   1.222   7.411   0.832  0.4009  0.5888 -0.4139
13221WAT     H153590   1.188   7.334   0.809  0.0479  0.7973 -0.6049
13221WAT     H253591   1.293   7.389   0.877 -0.6568  0.1128  1.0840
13221WAT    EPW53592   1.228   7.396   0.835 -0.0749  0.2722  0.2278
13222WAT      O53593   7.817   6.841   1.014  0.3487  0.3031  0.3727
13222WAT     H153594   7.813   6.813   0.931 -1.1422 -0.4824  0.6709
13222WAT     H253595   7.863   6.778   1.054 -1.3287 -0.8108  0.6543
13222WAT    EPW53596   7.823   6.827   1.007  0.1363  0.3350  0.2227
13223WAT      O53597   7.687   6.496   1.287 -0.1903  0.1518  0.3427
13223WAT     H153598   7.672   6.443   1.355 -2.3514  0.4842  0.1943
13223WAT     H253599   7.718   6.442   1.225 -1.9334 -0.9035  0.3287
13223WAT    EPW53600   7.689   6.480   1.288 -0.3500  0.0654 -0.0427
13224WAT      O53601   8.050   2.786   4.806  0.2262  0.3748  0.1113
13224WAT     H153602   8.005   2.715   4.831 -2.9976  1.8632 -1.0109
13224WAT     H253603   8.081   2.763   4.727 -1.7138  0.5021 -0.7323
13224WAT    EPW53604   8.048   2.772   4.798  0.9430 -0.1214  0.0832
13225WAT      O53605   6.849   5.932   2.734 -0.2245  0.4077 -0.1005
13225WAT     H153606   6.883   6.007   2.761  0.7949  0.1818 -0.7020
13225WAT     H253607   6.830   5.890   2.809  1.4051  0.2957  0.2858
13225WAT    EPW53608   6.851   5.937   2.749  0.2569  0.4685 -0.1460
13226WAT      O53609   0.156   3.915   0.852 -0.2804  0.1851 -0.1655
13226WAT     H153610   0.160   3.967   0.782 -1.5161 -1.9212 -1.9073
13226WAT     H253611   0.202   3.959   0.912  3.0193  1.0325 -2.9578
13226WAT    EPW53612   0.164   3.929   0.850  0.0002  0.0730  0.5744
13227WAT      O53613   1.954   4.628   3.423  0.2159  0.0855  0.1949
13227WAT     H153614   1.880   4.650   3.465  0.4361  3.8106 -1.0408
13227WAT     H253615   1.952   4.677   3.351  3.7790  0.1415 -0.0158
13227WAT    EPW53616   1.943   4.638   3.419  0.5271  0.3493  0.4659
13228WAT      O53617   3.850   3.047   7.442  0.3317  0.1164 -1.1195
13228WAT     H153618   3.788   3.097   7.407  0.5021  1.6600  0.6495
13228WAT     H253619   3.923   3.093   7.426  0.4476  0.7005  0.8419
13228WAT    EPW53620   3.852   3.061   7.435 -0.2593  0.1127 -0.3405
13229WAT      O53621   1.247   5.781   3.202  0.1467 -0.2803 -0.8662
13229WAT     H153622   1.253   5.808   3.119  1.5892 -0.0126 -0.6908
13229WAT     H253623   1.258   5.694   3.196  1.9521 -0.0929 -0.8292
13229WAT    EPW53624   1.250   5.772   3.189 -0.2773 -0.4561  0.3845
13230WAT      O53625   6.956   1.476   3.919 -0.3637 -0.2588 -0.0707
13230WAT     H153626   7.038   1.505   3.921 -0.3354 -0.4005  0.7934
13230WAT     H253627   6.918   1.517   3.985 -1.6081  1.6057 -1.8297
13230WAT    EPW53628   6.963   1.486   3.929 -0.3642 -0.0414 -0.0464
13231WAT      O53629   1.737   4.788   4.210 -0.4038  0.2759 -0.4067
13231WAT     H153630   1.775   4.834   4.273 -1.5350 -2.0818  2.2105
13231WAT     H253631   1.761   4.829   4.137  1.5869  2.7478  1.4651
13231WAT    EPW53632   1.746   4.801   4.208  0.0799 -0.5356  1.0075
13232WAT      O53633   1.763   3.614   2.193  0.5111 -0.3474  0.1649
13232WAT     H153634   1.830   3.574   2.153 -0.8086 -2.8022  0.1780
13232WAT     H253635   1.801   3.677   2.240  2.6725 -0.9023 -0.7274
13232WAT    EPW53636   1.778   3.617   2.194 -0.6869 -0.1078 -0.2206
13233WAT      O53637   1.031   3.997   2.935 -0.8103 -0.1050 -0.2747
13233WAT     H153638   0.969   4.046   2.898 -0.4467  0.4705 -0.1396
13233WAT     H253639   1.092   3.991   2.874 -0.1056  1.0403  0.2788
13233WAT    EPW53640   1.031   4.004   2.921 -0.0571  0.4701  0.4892
13234WAT      O53641   0.734   2.862   2.027  0.3535  0.2752  0.0485
13234WAT     H153642   0.665   2.811   2.042 -0.3580  1.1252 -0.2347
13234WAT     H253643   0.759   2.839   1.946  1.1802 -0.8851  0.6008
13234WAT    EPW53644   0.727   2.851   2.017 -0.1911  0.1540 -0.2579
13235WAT      O53645   7.692   4.061   1.264  0.3926  0.3097 -0.2811
13235WAT     H153646   7.661   3.980   1.253  0.0773  0.5008 -0.8553
13235WAT     H253647   7.634   4.111   1.221  2.3610  0.5399 -2.9113
13235WAT    EPW53648   7.679   4.056   1.256  0.4765  0.5369  0.2232
13236WAT      O53649   0.009   6.105   0.826 -0.5300 -0.3878 -0.2270
13236WAT     H153650  -0.049   6.057   0.870  0.4069 -1.0973  0.2666
13236WAT     H253651   0.084   6.063   0.838  0.5461  1.7408  1.0913
13236WAT    EPW53652   0.012   6.092   0.834 -0.3836  1.0897 -0.1138
13237WAT      O53653   2.455   2.672   4.413 -0.2009  0.0720 -0.1481
13237WAT     H153654   2.394   2.725   4.381  1.3191  1.0156 -1.6741
13237WAT     H253655   2.492   2.638   4.341 -0.7438 -2.6737  0.7694
13237WAT    EPW53656   2.452   2.675   4.397  0.3507 -0.1421  0.0780
13238WAT      O53657   1.011   7.093   1.770 -0.4210 -0.0006 -0.1121
13238WAT     H153658   1.008   7.038   1.837 -0.1970 -0.5107 -0.5183
13238WAT     H253659   0.928   7.117   1.758 -0.3379  1.0102  1.0898
13238WAT    EPW53660   0.999   7.089   1.778  0.2570 -0.1856 -0.5627
13239WAT      O53661   0.025   0.536   4.300  0.3310  0.5630 -0.2440
13239WAT     H153662  -0.060   0.547   4.314  0.4280  0.5352  0.3775
13239WAT     H253663   0.031   0.453   4.273  0.0942  0.7491 -0.8931
13239WAT    EPW53664   0.014   0.525   4.298  0.2659 -0.3572  1.0340
13240WAT      O53665   5.899   2.896   4.376  0.4241 -0.5676  0.0340
13240WAT     H153666   5.862   2.838   4.429 -1.2702 -0.0042 -0.4807
13240WAT     H253667   5.958   2.849   4.332  0.7477 -1.3702  1.2751
13240WAT    EPW53668   5.903   2.880   4.378  0.1717 -0.0847 -0.1995
13241WAT      O53669   5.010   4.346   4.466  0.0342 -0.2148  0.1246
13241WAT     H153670   5.086   4.344   4.509  1.2415 -0.1572 -1.9194
13241WAT     H253671   4.969   4.274   4.495  2.1729 -1.9811 -0.9638
13241WAT    EPW53672   5.015   4.335   4.477 -0.1863 -0.2880  0.4091
13242WAT      O53673   1.328   5.437   2.188 -0.5554  0.2374  0.1378
13242WAT     H153674   1.351   5.468   2.110 -0.7233 -0.6017 -0.2525
13242WAT     H253675   1.396   5.386   2.210 -0.9400 -0.3110  0.0815
13242WAT    EPW53676   1.342   5.434   2.180 -0.2482  0.3852 -0.3332
13243WAT      O53677   7.327   7.104   4.338  0.3635 -0.2172 -0.1040
13243WAT     H153678   7.363   7.171   4.294 -1.0789  2.0291  1.8740
13243WAT     H253679   7.378   7.096   4.408 -0.2281 -0.3022  0.3208
13243WAT    EPW53680   7.340   7.113   4.342  0.1349 -0.1697  0.0456
13244WAT      O53681   2.878   2.597   1.888  0.2681  0.2928  0.2056
13244WAT     H153682   2.803   2.564   1.857  0.0522 -0.5982  1.5608
13244WAT     H253683   2.932   2.594   1.820  0.2753 -2.9349  0.1982
13244WAT    EPW53684   2.875   2.592   1.874 -0.0050 -0.0808 -0.4383
13245WAT      O53685   6.486   0.114   1.363 -0.7501 -0.4564  0.8561
13245WAT     H153686   6.511   0.041   1.323  0.1782 -1.0752  2.4678
13245WAT     H253687   6.484   0.173   1.299 -1.3000 -1.8268 -0.4356
13245WAT    EPW53688   6.489   0.112   1.348 -0.2458  0.0095  0.3415
13246WAT      O53689   2.856   4.170   5.243 -0.0203 -0.1418  0.5896
13246WAT     H153690   2.880   4.179   5.160  0.2092  0.6283  0.7256
13246WAT     H253691   2.929   4.185   5.288 -0.2485 -0.0430  0.9394
13246WAT    EPW53692   2.870   4.174   5.237  0.5099 -0.5676 -0.7973
13247WAT      O53693   0.607   2.923   3.281 -0.1245 -0.1345  0.4617
13247WAT     H153694   0.623   2.853   3.330 -1.2232 -0.2481  0.7033
13247WAT     H253695   0.684   2.963   3.275  0.2732 -0.7504  1.2951
13247WAT    EPW53696   0.620   2.919   3.288  0.0935  0.0852 -0.4825
13248WAT      O53697   0.580   5.732   1.640  0.0952  0.5946 -0.2980
13248WAT     H153698   0.515   5.688   1.602  0.5258  0.2252 -0.6192
13248WAT     H253699   0.587   5.805   1.592 -1.6827  1.8447  1.1752
13248WAT    EPW53700   0.572   5.737   1.627 -0.4446  0.0692  0.4944
13249WAT      O53701   1.988   2.017   5.621 -0.3223  0.5820 -0.1035
13249WAT     H153702   2.035   2.048   5.554  0.3635  0.3210  0.2541
13249WAT     H253703   2.048   1.987   5.677 -0.8186  1.7227  1.1008
13249WAT    EPW53704   2.003   2.017   5.619 -0.4011 -0.6813 -0.3702
13250WAT      O53705   6.488   4.192   2.024 -0.0227 -0.1782  0.0057
13250WAT     H153706   6.436   4.133   1.988 -0.8345  0.3093  0.3575
13250WAT     H253707   6.560   4.146   2.045 -0.4113 -0.9094 -0.2423
13250WAT    EPW53708   6.491   4.176   2.022 -0.3127 -0.3987 -0.1447
13251WAT      O53709   1.296   5.576   2.428 -0.0943 -0.1911  0.1730
13251WAT     H153710   1.209   5.584   2.432  0.0229  0.4812  1.6573
13251WAT     H253711   1.308   5.531   2.354 -1.6647  0.2186 -0.3770
13251WAT    EPW53712   1.285   5.570   2.417  0.2242  0.2378 -0.0299
13252WAT      O53713   7.456   4.940   3.583 -0.4036 -0.0327 -0.0057
13252WAT     H153714   7.512   4.874   3.598  0.2261  0.0694 -1.6655
13252WAT     H253715   7.392   4.925   3.640  0.4272 -1.2357  0.6780
13252WAT    EPW53716   7.455   4.928   3.594 -0.7039 -0.1814  0.1958
13253WAT      O53717   3.444   1.168   2.258  0.0802  0.4536 -0.1808
13253WAT     H153718   3.477   1.088   2.248  0.4308  0.6615 -0.7962
13253WAT     H253719   3.392   1.161   2.327 -0.8953 -0.6254 -0.9772
13253WAT    EPW53720   3.441   1.156   2.267 -0.1230  0.1685 -0.0796
13254WAT      O53721   7.812   4.211   4.020  0.3057 -0.3599  0.1668
13254WAT     H153722   7.784   4.208   4.102  0.1024 -1.7500  0.0619
13254WAT     H253723   7.895   4.185   4.025  0.6488  0.6503  0.0577
13254WAT    EPW53724   7.821   4.207   4.033  0.2981  0.3203 -0.2164
13255WAT      O53725   3.241   4.376   4.121  0.6725  0.6882 -0.0056
13255WAT     H153726   3.207   4.388   4.200  0.7121  1.3788 -0.0888
13255WAT     H253727   3.202   4.302   4.093 -0.7376  1.4158 -0.0780
13255WAT    EPW53728   3.230   4.367   4.128  0.3587 -0.5679 -0.5564
13256WAT      O53729   2.550   3.031   2.479  0.1103 -0.0119  0.0355
13256WAT     H153730   2.533   3.101   2.429 -1.2043  0.0593  0.5397
13256WAT     H253731   2.603   3.063   2.541 -1.6844  0.9658  1.1591
13256WAT    EPW53732   2.555   3.046   2.481 -1.0131 -0.8926  0.2056
13257WAT      O53733   5.701   3.394   2.589 -0.3552  0.2217  0.1671
13257WAT     H153734   5.711   3.317   2.550  0.8776  0.6544 -0.4268
13257WAT     H253735   5.672   3.446   2.525  1.4015  0.8686 -0.1370
13257WAT    EPW53736   5.698   3.390   2.574 -0.0362 -0.3411 -0.7187
13258WAT      O53737   3.099   6.840   4.428 -0.1453 -0.1025 -0.6073
13258WAT     H153738   3.132   6.861   4.350 -1.2725  0.9445 -0.8265
13258WAT     H253739   3.108   6.753   4.431  2.0339  0.0630 -0.8826
13258WAT    EPW53740   3.105   6.830   4.417 -0.1825  0.3185 -0.4975
13259WAT      O53741   7.833   4.354   4.427 -0.2030 -0.3101  0.1166
13259WAT     H153742   7.785   4.418   4.391 -0.7979 -0.2640  0.9424
13259WAT     H253743   7.853   4.386   4.505  0.5775 -0.6317  0.0502
13259WAT    EPW53744   7.829   4.369   4.433  0.4147  0.5491 -0.1236
13260WAT      O53745   0.587   6.628   4.320  0.3151 -0.5768 -0.2038
13260WAT     H153746   0.586   6.652   4.236 -1.1049 -1.0401 -0.3506
13260WAT     H253747   0.546   6.694   4.360  0.2322 -0.7440 -0.0082
13260WAT    EPW53748   0.581   6.641   4.314  0.0385 -0.0225  0.1035
13261WAT      O53749   1.448   2.602   5.279  0.3948 -0.4834 -0.6436
13261WAT     H153750   1.385   2.554   5.315  0.4159  0.5563  0.8377
13261WAT     H253751   1.510   2.603   5.340  0.8462  0.4995 -1.0998
13261WAT    EPW53752   1.448   2.595   5.293  0.0352 -0.4644 -0.4264
13262WAT      O53753   2.560   3.857   3.918  0.0170 -1.1043 -0.2550
13262WAT     H153754   2.535   3.928   3.874 -1.1887 -0.8122  0.8289
13262WAT     H253755   2.624   3.886   3.970 -0.9941 -0.6018  0.7427
13262WAT    EPW53756   2.566   3.872   3.919  0.0163  0.2028 -0.3861
13263WAT      O53757   1.877   2.465   5.414  0.3173  0.4301  0.1892
13263WAT     H153758   1.952   2.462   5.458 -0.2525 -2.9694  1.1870
13263WAT     H253759   1.870   2.386   5.379 -2.0343  1.1853 -1.3082
13263WAT    EPW53760   1.887   2.453   5.415 -0.2288 -0.3651  0.6089
13264WAT      O53761   1.084   3.439   3.303 -0.2056 -0.0027  0.0094
13264WAT     H153762   1.026   3.504   3.300  1.2938  1.4428  0.3625
13264WAT     H253763   1.054   3.381   3.245 -2.0885  0.5644  0.3758
13264WAT    EPW53764   1.071   3.440   3.294 -0.5051 -0.0861  0.1326
13265WAT      O53765   4.532   6.458   5.272  0.5037  0.9866  0.0136
13265WAT     H153766   4.509   6.539   5.293 -0.5218  0.9474 -0.8633
13265WAT     H253767   4.514   6.453   5.186  0.5080 -0.1750  0.0653
13265WAT    EPW53768   4.526   6.469   5.262  0.2906 -0.0621 -0.1984
13266WAT      O53769   2.530   4.297   2.188 -0.3849  0.6423  0.3480
13266WAT     H153770   2.555   4.364   2.138  0.7171  0.6809  0.9221
13266WAT     H253771   2.592   4.293   2.249 -1.2477  0.0528  1.2117
13266WAT    EPW53772   2.543   4.306   2.190 -0.3898  0.5612 -0.1898
13267WAT      O53773   7.333   2.912   3.851 -0.3357 -0.0107  0.0977
13267WAT     H153774   7.419   2.925   3.858 -0.4074  0.5300  0.0677
13267WAT     H253775   7.324   2.826   3.855  0.5421 -0.4136 -3.5134
13267WAT    EPW53776   7.344   2.901   3.853 -0.1945 -0.3747 -0.1710
13268WAT      O53777   2.690   5.534   3.660  0.1304 -1.0731 -0.5693
13268WAT     H153778   2.681   5.541   3.747 -1.8379 -1.1803 -0.7361
13268WAT     H253779   2.651   5.459   3.642 -1.3739 -0.0420 -1.7864
13268WAT    EPW53780   2.683   5.524   3.670 -0.2856  0.2704  0.7186
13269WAT      O53781   1.262   6.745   2.900  0.0739 -0.1014 -0.4054
13269WAT     H153782   1.342   6.715   2.919  0.2935 -0.0933 -1.2903
13269WAT     H253783   1.210   6.697   2.951  0.4858 -1.5066 -1.2600
13269WAT    EPW53784   1.266   6.733   2.910  0.4173 -0.3754 -0.1217
13270WAT      O53785   1.317   2.017   7.888 -0.0934  0.1190  0.4229
13270WAT     H153786   1.327   2.067   7.817 -2.7942  0.3296  0.0827
13270WAT     H253787   1.331   2.072   7.954 -0.5545  0.7138  0.0358
13270WAT    EPW53788   1.321   2.033   7.888  0.1295  0.4212  0.6154
13271WAT      O53789   5.467   6.051   5.223  0.2359 -0.2910 -0.3965
13271WAT     H153790   5.539   6.081   5.183  1.6119 -2.2522  0.4382
13271WAT     H253791   5.497   6.023   5.300 -1.7240  0.1821  0.6118
13271WAT    EPW53792   5.482   6.051   5.229  0.7315 -0.2948 -0.3095
13272WAT      O53793   7.548   2.239   1.115 -0.2582 -0.5714  0.0855
13272WAT     H153794   7.570   2.201   1.191 -2.6768 -0.4118  0.9318
13272WAT     H253795   7.522   2.172   1.066  2.0844 -0.7855 -0.9916
13272WAT    EPW53796   7.548   2.224   1.119 -0.1505  0.1532  0.1821
13273WAT      O53797   2.989   5.566   1.195 -0.4951 -0.5216  0.2171
13273WAT     H153798   2.920   5.597   1.152  1.2379 -0.0528 -2.4610
13273WAT     H253799   2.988   5.481   1.176 -1.4112 -0.9374  1.9050
13273WAT    EPW53800   2.979   5.558   1.186  0.2517  0.3405  0.5226
13274WAT      O53801   7.612   1.780   1.237  0.4854  0.4247 -0.5598
13274WAT     H153802   7.527   1.791   1.221 -0.1568 -2.0580  0.6623
13274WAT     H253803   7.635   1.718   1.180  0.8991 -0.4938  0.5713
13274WAT    EPW53804   7.603   1.772   1.226 -0.2384 -0.0247 -0.0150
13275WAT      O53805   1.635   5.419   3.428 -0.0912 -0.3962  0.1751
13275WAT     H153806   1.699   5.434   3.486 -1.5854  0.9954  1.5702
13275WAT     H253807   1.563   5.418   3.477 -1.2263 -1.3576 -1.4213
13275WAT    EPW53808   1.634   5.421   3.444  0.1469  0.0400 -0.0200
13276WAT      O53809   4.661   1.188   5.228  0.0880 -0.3215 -0.3132
13276WAT     H153810   4.640   1.109   5.197 -0.6396  0.1893 -1.1532
13276WAT     H253811   4.726   1.214   5.177  0.2756 -0.3489 -0.0865
13276WAT    EPW53812   4.667   1.180   5.216 -0.1632 -0.2311 -0.3570
13277WAT      O53813   7.659   3.607   3.569  0.0351 -0.4807  0.5032
13277WAT     H153814   7.620   3.642   3.499  1.8318 -1.3479 -1.0098
13277WAT     H253815   7.650   3.521   3.558  1.1535 -0.6570  0.8297
13277WAT    EPW53816   7.652   3.600   3.557  0.4899  0.3726  0.6268
13278WAT      O53817   2.575   6.653   1.149  0.1929 -0.2531 -0.3205
13278WAT     H153818   2.563   6.649   1.235 -1.9305 -1.0633 -0.5948
13278WAT     H253819   2.571   6.738   1.131  0.9200 -0.0599  0.3921
13278WAT    EPW53820   2.572   6.665   1.159 -0.5332 -0.8252  0.2274
13279WAT      O53821   2.271   3.584   0.778 -0.4200  0.1017  0.0930
13279WAT     H153822   2.355   3.607   0.778 -0.9186  2.1812 -1.3930
13279WAT     H253823   2.229   3.656   0.803 -1.9266  0.0605 -2.0462
13279WAT    EPW53824   2.277   3.598   0.782 -0.4568 -0.6649 -0.2792
13280WAT      O53825   0.208   6.496   0.896  0.1523 -0.0666  0.5095
13280WAT     H153826   0.134   6.479   0.938  0.8420 -1.2773  1.3258
13280WAT     H253827   0.269   6.464   0.950  1.1603 -0.5000 -0.8392
13280WAT    EPW53828   0.206   6.489   0.910  0.0250  0.2675 -0.2177
13281WAT      O53829   7.524   3.647   3.304 -0.4805 -0.5663  0.4485
13281WAT     H153830   7.447   3.659   3.342 -1.5529 -0.9059 -1.5074
13281WAT     H253831   7.556   3.728   3.297 -2.4098  0.1044 -2.0904
13281WAT    EPW53832   7.518   3.661   3.309 -1.0304  0.3522  0.2475
13282WAT      O53833   6.131   2.477   7.535  0.2583  0.4657 -0.1153
13282WAT     H153834   6.148   2.543   7.481  2.3738  0.4127  0.3913
13282WAT     H253835   6.083   2.422   7.486 -1.3015  2.1817 -0.6244
13282WAT    EPW53836   6.126   2.479   7.520 -0.2095  0.2953 -0.3938
13283WAT      O53837   1.962   3.921   5.743 -0.2078  0.6511 -0.3028
13283WAT     H153838   1.908   3.899   5.678  1.2776 -0.4265 -1.2620
13283WAT     H253839   1.987   3.843   5.776 -0.1472  1.1540  0.8888
13283WAT    EPW53840   1.958   3.906   5.738  0.0491 -0.2631 -0.0073
13284WAT      O53841   5.024   7.681   0.260  0.1375  0.0101 -0.1793
13284WAT     H153842   5.015   7.617   0.319  0.6759  2.5271  2.8747
13284WAT     H253843   5.110   7.683   0.245 -0.0698 -1.2444 -2.0219
13284WAT    EPW53844   5.035   7.672   0.266 -0.2573 -0.2316  0.4086
13285WAT      O53845   4.939   1.179   2.306  0.2121  0.3943  0.4325
13285WAT     H153846   4.877   1.142   2.257 -0.4141  0.2446  1.3094
13285WAT     H253847   4.915   1.159   2.388  2.8954 -2.0213  0.7589
13285WAT    EPW53848   4.926   1.171   2.311 -0.1354 -0.4916 -0.2613
13286WAT      O53849   3.474   1.587   7.567  0.1059  0.8356  0.1204
13286WAT     H153850   3.468   1.582   7.481  0.3484  1.4175  0.0640
13286WAT     H253851   3.429   1.518   7.595  0.7801  0.1418 -0.4792
13286WAT    EPW53852   3.466   1.576   7.559 -0.2449  0.3671  0.0893
13287WAT      O53853   0.167   7.670   1.802  0.3815 -0.5367  0.2402
13287WAT     H153854   0.111   7.650   1.865 -0.7516 -0.0203 -0.5608
13287WAT     H253855   0.180   7.593   1.762  0.8172 -0.7941  0.8600
13287WAT    EPW53856   0.161   7.656   1.805  0.2133  0.1250  0.4017
13288WAT      O53857   4.251   0.560   0.505  0.4296  0.2378 -0.1582
13288WAT     H153858   4.171   0.577   0.538  0.2327  1.4614 -1.2218
13288WAT     H253859   4.295   0.634   0.519  0.6238  0.4524 -1.7564
13288WAT    EPW53860   4.246   0.573   0.512 -0.3931 -0.6160 -0.7006
13289WAT      O53861   4.992   0.242   0.326 -0.2057  0.8349  0.1709
13289WAT     H153862   4.928   0.265   0.381  0.5900  1.3235  0.9121
13289WAT     H253863   5.030   0.174   0.366  0.0702  0.8839 -0.0023
13289WAT    EPW53864   4.988   0.235   0.340  0.1754 -0.3145  0.6760
13290WAT      O53865   3.531   2.339   6.579  0.2260 -0.5163 -0.3426
13290WAT     H153866   3.562   2.291   6.513  0.0950  0.4406 -1.1285
13290WAT     H253867   3.580   2.316   6.647  1.9767  0.1792 -1.3110
13290WAT    EPW53868   3.543   2.329   6.579  0.2362 -0.3148  0.6616
13291WAT      O53869   4.351   2.821   0.486 -0.0788 -0.8705 -0.0385
13291WAT     H153870   4.343   2.757   0.545  0.7688 -1.6488 -0.7367
13291WAT     H253871   4.377   2.779   0.414  0.1983  0.2226 -0.5959
13291WAT    EPW53872   4.354   2.805   0.484 -0.2304  0.1070  0.4088
13292WAT      O53873   1.312   0.696   0.941  0.4382  0.3769  0.4629
13292WAT     H153874   1.380   0.740   0.974  0.6135  0.7686 -0.3957
13292WAT     H253875   1.252   0.701   1.004  1.2750 -0.1943  1.3559
13292WAT    EPW53876   1.313   0.703   0.955 -0.3572 -0.4208  0.8756
13293WAT      O53877   4.966   3.309   4.400 -0.0790 -0.0253  0.3996
13293WAT     H153878   5.044   3.269   4.399  1.3027  2.4688  0.4567
13293WAT     H253879   4.924   3.270   4.466  0.1108 -3.0418 -1.1067
13293WAT    EPW53880   4.971   3.297   4.410 -0.0846  0.0420 -0.2366
13294WAT      O53881   4.823   3.428   7.209  0.0482 -0.3445 -0.7469
13294WAT     H153882   4.800   3.428   7.125 -0.7968  1.4038 -0.5650
13294WAT     H253883   4.841   3.512   7.226  1.2656 -0.8247  0.5567
13294WAT    EPW53884   4.822   3.441   7.199  0.4830 -0.3910  0.7783
13295WAT      O53885   2.515   3.526   2.020 -0.1428 -0.1982 -0.4931
13295WAT     H153886   2.516   3.529   1.933  1.2442 -2.2431 -0.6275
13295WAT     H253887   2.598   3.544   2.041 -0.6111  0.9368  0.4692
13295WAT    EPW53888   2.528   3.529   2.010 -0.0913  0.1011 -0.1151
13296WAT      O53889   7.750   1.055   0.191 -0.3232 -0.0424  0.0350
13296WAT     H153890   7.820   1.106   0.188  0.3258 -0.6970  2.2365
13296WAT     H253891   7.685   1.110   0.210 -0.0488  0.3021 -0.0297
13296WAT    EPW53892   7.751   1.070   0.194 -0.0772  0.5408  0.0492
13297WAT      O53893   2.292   0.791   0.410  0.2196 -0.1419 -0.5114
13297WAT     H153894   2.358   0.825   0.364  0.2468 -0.5250 -0.7588
13297WAT     H253895   2.227   0.847   0.396  0.5705  0.3895 -0.0343
13297WAT    EPW53896   2.292   0.804   0.401 -0.2177  0.4858  0.0917
13298WAT      O53897   5.456   4.763   0.188  1.2175  0.1181 -0.1599
13298WAT     H153898   5.481   4.818   0.125  1.8418 -1.3970 -1.3013
13298WAT     H253899   5.520   4.770   0.248  2.1270 -0.5028 -1.0332
13298WAT    EPW53900   5.469   4.772   0.188  0.1254  0.2203 -0.2121
13299WAT      O53901   0.967   1.955   1.701 -0.3545 -0.5099  0.1977
13299WAT     H153902   1.023   1.948   1.768  1.1026 -1.8683 -1.0606
13299WAT     H253903   1.010   2.004   1.644 -0.2994 -1.7653 -0.8916
13299WAT    EPW53904   0.982   1.961   1.703  0.3211  0.1147  0.1168
13300WAT      O53905   6.959   1.169   3.458 -0.0176  0.0785  0.0368
13300WAT     H153906   6.992   1.107   3.406  0.9571  0.2026  0.4731
13300WAT     H253907   6.946   1.127   3.534  0.2140  0.2945  0.1982
13300WAT    EPW53908   6.962   1.154   3.462 -0.0627 -0.2005  0.6121
13301WAT      O53909   7.598   4.848   2.457 -0.3927 -0.0340  0.5619
13301WAT     H153910   7.641   4.898   2.400 -1.1702 -0.7491 -0.7072
13301WAT     H253911   7.653   4.783   2.473 -1.1091 -1.2184 -1.4542
13301WAT    EPW53912   7.612   4.846   2.451  0.4392 -0.3030  0.5012
13302WAT      O53913   0.429   5.896   2.842 -0.2715  0.0703 -0.0536
13302WAT     H153914   0.435   5.854   2.766  0.4537  0.5363 -0.2685
13302WAT     H253915   0.510   5.928   2.854 -0.4292  0.1709  0.8131
13302WAT    EPW53916   0.442   5.895   2.833 -0.2088  0.1975 -0.4248
13303WAT      O53917   7.983   3.555   3.808  0.2535 -1.0078  0.1373
13303WAT     H153918   8.011   3.473   3.805 -0.8477 -1.3737 -0.9900
13303WAT     H253919   8.010   3.583   3.886  1.2812 -2.1946  0.2376
13303WAT    EPW53920   7.991   3.547   3.819  0.2935  0.6541  0.3278
13304WAT      O53921   4.067   4.360   8.009  0.0639 -0.2749  0.7134
13304WAT     H153922   4.039   4.441   8.025  1.3144  0.4942 -0.7550
13304WAT     H253923   3.994   4.317   7.989 -0.5858  0.5460  1.2290
13304WAT    EPW53924   4.052   4.366   8.009  0.1754 -0.4768 -0.1453
13305WAT      O53925   6.215   2.520   4.227  0.0782  0.8579 -0.0594
13305WAT     H153926   6.223   2.470   4.156 -1.1188  1.5589 -0.7329
13305WAT     H253927   6.233   2.466   4.293  0.6646  0.0434 -0.8517
13305WAT    EPW53928   6.219   2.505   4.226 -0.1057 -0.1456  0.5025
13306WAT      O53929   1.927   7.104   0.654 -0.9820 -0.3502 -0.8724
13306WAT     H153930   1.914   7.125   0.737 -0.0628 -1.2741 -0.4778
13306WAT     H253931   1.942   7.018   0.656  2.1199  0.0771 -1.5825
13306WAT    EPW53932   1.927   7.094   0.666 -0.5967  0.0634 -0.1277
13307WAT      O53933   2.283   4.579   1.856 -0.0731  0.8146 -0.5391
13307WAT     H153934   2.347   4.638   1.858 -0.2877  1.1381 -2.1302
13307WAT     H253935   2.211   4.627   1.843 -1.0481  0.6948  3.2322
13307WAT    EPW53936   2.281   4.595   1.854  0.4761  0.2845  0.7439
13308WAT      O53937   6.587   6.642   4.227 -0.2849 -0.0424  0.2368
13308WAT     H153938   6.544   6.630   4.302 -0.9627  1.2062  0.0786
13308WAT     H253939   6.667   6.664   4.253 -0.0242 -1.3022  0.5532
13308WAT    EPW53940   6.592   6.643   4.242 -0.2202  0.3645  0.3869
13309WAT      O53941   7.831   2.851   2.688 -0.1388  0.0456  0.6143
13309WAT     H153942   7.917   2.861   2.699 -0.0263 -0.6358  0.4143
13309WAT     H253943   7.824   2.814   2.609 -0.3611 -2.8664  1.8517
13309WAT    EPW53944   7.843   2.847   2.678  0.3195  0.3359  0.4573
13310WAT      O53945   2.007   4.953   7.455 -0.2830 -0.0292  0.0896
13310WAT     H153946   1.985   4.938   7.372  1.0258  0.2122 -0.3211
13310WAT     H253947   2.009   5.040   7.461 -2.6753  0.0383  1.0490
13310WAT    EPW53948   2.004   4.964   7.444 -0.2968  0.3264  0.7230
13311WAT      O53949   4.742   2.672   6.547  0.1713  0.1393  0.5839
13311WAT     H153950   4.761   2.736   6.602 -1.8239  0.8746  0.5111
13311WAT     H253951   4.690   2.619   6.593  1.7443 -1.4522  0.6296
13311WAT    EPW53952   4.737   2.674   6.562 -0.2740 -0.2160  0.1836
13312WAT      O53953   1.006   2.858   5.230 -0.5513  0.1253  0.2164
13312WAT     H153954   1.045   2.899   5.296 -2.2971  0.4755  1.0839
13312WAT     H253955   1.029   2.906   5.160  0.2831  0.4979  0.7278
13312WAT    EPW53956   1.016   2.871   5.230 -0.1569 -0.7582  0.1525
13313WAT      O53957   0.686   5.851   0.291  0.4600 -0.6715 -0.0794
13313WAT     H153958   0.728   5.779   0.317  1.6383  0.1621  0.4588
13313WAT     H253959   0.626   5.822   0.236  2.2212 -1.9063 -1.4533
13313WAT    EPW53960   0.683   5.836   0.287  1.0397 -0.3304 -0.1127
13314WAT      O53961   0.208   5.527   1.995 -0.3314 -0.3359  0.1085
13314WAT     H153962   0.284   5.560   1.969  0.7077 -0.6844  2.4829
13314WAT     H253963   0.169   5.594   2.035 -1.5695 -0.0233 -1.4792
13314WAT    EPW53964   0.213   5.542   1.997 -0.2860 -0.1538  0.1389
13315WAT      O53965   6.838   4.406   1.894 -0.3112  0.4566  0.4191
13315WAT     H153966   6.899   4.454   1.853 -0.3689  0.4060  0.2742
13315WAT     H253967   6.812   4.458   1.959  0.7439  0.0229  1.2119
13315WAT    EPW53968   6.843   4.421   1.898 -0.6298  0.6026  0.1684
13316WAT      O53969   5.731   1.626   1.337  0.0221  0.0487 -0.4391
13316WAT     H153970   5.763   1.700   1.304 -0.6868  0.3305 -0.5167
13316WAT     H253971   5.797   1.569   1.328  0.6393  0.7134 -0.2001
13316WAT    EPW53972   5.745   1.628   1.331 -0.5499 -0.3833 -0.1672
13317WAT      O53973   3.395   7.168   0.538  0.0664  0.5306 -0.2365
13317WAT     H153974   3.443   7.174   0.466 -0.6843 -0.0973 -0.8058
13317WAT     H253975   3.313   7.180   0.509 -0.2465  0.1949  0.4921
13317WAT    EPW53976   3.390   7.171   0.523  0.1237 -0.2724 -0.7470
13318WAT      O53977   7.882   0.419   0.680  0.1141  0.3699 -0.0249
13318WAT     H153978   7.819   0.475   0.702  0.0389 -0.0781  0.9532
13318WAT     H253979   7.955   0.458   0.706  0.1627  0.4808 -0.3207
13318WAT    EPW53980   7.884   0.433   0.687 -0.1845 -0.2658  0.0981
13319WAT      O53981   0.723   3.594   3.749  0.3396 -0.4655  0.0062
13319WAT     H153982   0.688   3.533   3.698  1.8434 -2.7443  1.4714
13319WAT     H253983   0.715   3.560   3.829 -0.5816  2.2674  1.1742
13319WAT    EPW53984   0.717   3.580   3.753 -0.0706 -0.6055  0.1438
13320WAT      O53985   5.636   3.793   4.262 -0.3407 -0.5490 -0.0205
13320WAT     H153986   5.646   3.737   4.196 -0.2114 -0.4402 -0.0929
13320WAT     H253987   5.606   3.743   4.327  1.1453 -0.9659  0.3606
13320WAT    EPW53988   5.633   3.777   4.262 -0.0771  0.4408  0.2838
13321WAT      O53989   5.192   4.065   2.213 -0.4715  0.1364  0.0600
13321WAT     H153990   5.194   4.000   2.155 -2.2850 -0.1112  0.2110
13321WAT     H253991   5.107   4.076   2.229 -0.0760  0.6782  2.1378
13321WAT    EPW53992   5.180   4.057   2.207 -0.4471 -0.3839  0.5321
13322WAT      O53993   5.240   2.044   7.758 -0.5437 -0.1097 -0.6597
13322WAT     H153994   5.276   2.116   7.792 -0.3086  0.5356 -2.2137
13322WAT     H253995   5.282   1.979   7.800 -1.0871  0.6093  1.0986
13322WAT    EPW53996   5.252   2.045   7.769  0.0587 -0.4845  0.5839
13323WAT      O53997   5.823   0.115   3.425  0.2353 -0.0599 -0.2444
13323WAT     H153998   5.770   0.172   3.463 -0.5184 -1.3294  0.7108
13323WAT     H253999   5.879   0.092   3.489  0.1662 -0.7921 -0.4358
13323WAT    EPW54000   5.824   0.120   3.440 -0.2382 -0.0728 -0.6608
13324WAT      O54001   7.747   7.074   2.112  0.1530  0.0204  0.3423
13324WAT     H154002   7.824   7.071   2.072 -0.8515 -1.8544 -1.6862
13324WAT     H254003   7.749   7.005   2.166  0.0098  0.1760  0.5499
13324WAT    EPW54004   7.758   7.063   2.114  0.0543 -0.0714  0.7754
13325WAT      O54005   3.334   3.603   7.628 -0.4344 -0.5394  0.7911
13325WAT     H154006   3.251   3.602   7.654 -0.9203 -0.0194 -0.6423
13325WAT     H254007   3.355   3.688   7.629 -0.7507 -0.3949 -1.2340
13325WAT    EPW54008   3.325   3.616   7.632 -0.1713 -0.0118 -0.3941
13326WAT      O54009   6.777   4.832   4.091 -0.0843 -0.0486 -0.0321
13326WAT     H154010   6.814   4.762   4.128  1.6936  0.2376 -1.1655
13326WAT     H254011   6.692   4.823   4.110  0.2009 -2.1114  0.4740
13326WAT    EPW54012   6.770   4.821   4.099 -0.1101 -0.4005 -0.6968
13327WAT      O54013   4.064   5.156   0.967 -0.1689  0.0443 -0.0206
13327WAT     H154014   4.022   5.082   0.952  2.7852 -1.9689  0.7656
13327WAT     H254015   4.062   5.164   1.053  1.0464 -0.1415  0.0421
13327WAT    EPW54016   4.058   5.147   0.977 -0.6787 -0.2837 -0.0163
13328WAT      O54017   7.888   2.320   3.999 -0.3385  0.2691 -0.0079
13328WAT     H154018   7.870   2.388   4.051 -1.0918  1.1990 -1.4161
13328WAT     H254019   7.812   2.304   3.959  0.3070 -0.1292 -1.1308
13328WAT    EPW54020   7.874   2.328   4.001 -0.3998  0.4421  0.3605
13329WAT      O54021   0.033   4.495   1.848 -0.1024  0.2217  0.2661
13329WAT     H154022   0.115   4.477   1.826 -0.2022 -0.6401  0.5588
13329WAT     H254023  -0.008   4.419   1.838 -1.5859  1.2631 -2.9507
13329WAT    EPW54024   0.039   4.481   1.843 -0.2919 -0.1344  0.1646
13330WAT      O54025   2.406   2.842   3.566 -0.0449 -0.6172 -0.3334
13330WAT     H154026   2.406   2.844   3.654  0.9545 -1.1062 -0.3040
13330WAT     H254027   2.401   2.927   3.544 -0.0299 -0.4709  0.1967
13330WAT    EPW54028   2.405   2.855   3.576 -0.0129  0.3790 -0.0437
13331WAT      O54029   6.832   4.278   3.886 -0.1708 -0.0532  0.5497
13331WAT     H154030   6.748   4.284   3.908 -0.1741  1.8514  0.1806
13331WAT     H254031   6.832   4.295   3.800  0.2638 -3.4261 -0.2715
13331WAT    EPW54032   6.820   4.281   3.876  0.0384 -0.3842  0.3281
13332WAT      O54033   5.851   5.726   3.566  0.4431 -0.1795 -0.2393
13332WAT     H154034   5.853   5.797   3.616 -3.5686  0.8975 -1.2758
13332WAT     H254035   5.856   5.661   3.624  0.6340  0.9469  1.0738
13332WAT    EPW54036   5.852   5.727   3.582  0.6190 -0.7440  0.0799
13333WAT      O54037   3.689   3.347   6.321 -0.1673  0.4214 -0.4741
13333WAT     H154038   3.699   3.348   6.234  0.2556  1.3277 -0.4282
13333WAT     H254039   3.756   3.298   6.348 -0.4414 -0.0689 -0.6698
13333WAT    EPW54040   3.701   3.340   6.312  0.2028 -0.4853  0.3886
13334WAT      O54041   1.049   3.861   3.238  0.1691 -0.8140 -0.6096
13334WAT     H154042   1.078   3.931   3.195 -0.5383  0.1992  0.4778
13334WAT     H254043   1.067   3.795   3.185  1.0947  0.1648 -1.5663
13334WAT    EPW54044   1.056   3.862   3.224 -0.1491  0.2695  0.2185
13335WAT      O54045   7.955   2.650   0.387 -0.0524  0.1056  0.1137
13335WAT     H154046   7.887   2.706   0.391 -0.1761  0.0273 -0.7556
13335WAT     H254047   7.926   2.586   0.335  0.4285 -0.3030  0.3427
13335WAT    EPW54048   7.941   2.649   0.380  0.3807  0.6077 -0.4810
13336WAT      O54049   0.805   4.210   2.088  0.3071  0.3711  0.2240
13336WAT     H154050   0.789   4.229   2.004  0.0209 -0.3862  0.0977
13336WAT     H254051   0.752   4.143   2.104  0.6916  0.2186  0.8853
13336WAT    EPW54052   0.795   4.203   2.078  0.1961  0.1526 -0.2112
13337WAT      O54053   2.683   7.551   0.804 -0.2141 -0.1611 -0.3311
13337WAT     H154054   2.724   7.552   0.881 -0.7473 -0.1164 -0.0457
13337WAT     H254055   2.604   7.520   0.823 -0.2165 -0.5401 -0.9327
13337WAT    EPW54056   2.678   7.546   0.818 -0.0276 -0.1278  0.2714
13338WAT      O54057   4.814   5.140   7.406  0.3133  0.7004  0.7071
13338WAT     H154058   4.882   5.172   7.450  0.1460  0.8508  0.8572
13338WAT     H254059   4.804   5.060   7.439  1.2999  0.1336 -0.2958
13338WAT    EPW54060   4.823   5.133   7.417  0.2656 -0.2840 -0.7336
13339WAT      O54061   5.733   7.176   8.064 -0.1256  1.0213  0.1199
13339WAT     H154062   5.649   7.159   8.082  0.4157 -1.5167  0.6500
13339WAT     H254063   5.740   7.154   7.980  0.4498 -1.1966  0.6654
13339WAT    EPW54064   5.722   7.170   8.054  0.0181  0.0725 -0.9501
13340WAT      O54065   5.937   3.971   7.554 -0.5676  0.5252  0.3323
13340WAT     H154066   5.853   3.958   7.537 -1.3360  1.9127  2.5988
13340WAT     H254067   5.966   4.014   7.484 -1.3178 -1.1735 -1.1123
13340WAT    EPW54068   5.929   3.975   7.541  0.1079 -0.1540 -0.6125
13341WAT      O54069   0.824   4.802   2.865  0.0854 -0.0829  0.2156
13341WAT     H154070   0.884   4.738   2.866 -0.3594 -0.5081  0.6873
13341WAT     H254071   0.807   4.815   2.950 -0.6784 -0.1522  0.0811
13341WAT    EPW54072   0.830   4.794   2.878  0.5385  0.1963 -0.1213
13342WAT      O54073   3.251   2.244   4.959  0.0527  0.4844 -0.6332
13342WAT     H154074   3.213   2.191   4.901 -0.0579 -0.0960 -0.0422
13342WAT     H254075   3.306   2.292   4.911  2.8764 -2.5787 -0.7888
13342WAT    EPW54076   3.253   2.243   4.944 -0.2133 -0.0589  0.4545
13343WAT      O54077   3.064   1.548   0.996  0.1082 -0.5427  0.3113
13343WAT     H154078   3.062   1.619   0.945  0.0633 -0.6953  0.1020
13343WAT     H254079   3.097   1.578   1.071  0.8792 -0.4684 -0.0454
13343WAT    EPW54080   3.068   1.563   1.000  0.3300  0.0768 -0.4199
13344WAT      O54081   5.682   7.800   1.668  0.0619 -0.1928 -0.0615
13344WAT     H154082   5.662   7.885   1.663 -1.8049 -0.5509  0.5356
13344WAT     H254083   5.725   7.785   1.593 -0.4415  1.0523 -0.6320
13344WAT    EPW54084   5.686   7.811   1.656 -0.4524  0.7774  0.0458
13345WAT      O54085   0.601   4.052   1.274 -0.1141 -0.7553 -0.4425
13345WAT     H154086   0.598   4.005   1.347  0.2052  0.2998  0.2665
13345WAT     H254087   0.574   4.131   1.299 -1.4166 -0.7369 -1.7754
13345WAT    EPW54088   0.597   4.057   1.289  0.4743  0.2170  0.2895
13346WAT      O54089   4.670   6.866   0.852  0.5994 -0.0489 -0.3128
13346WAT     H154090   4.623   6.793   0.839  0.6355 -0.3919  1.2879
13346WAT     H254091   4.614   6.930   0.834 -0.7538 -0.4430  2.0314
13346WAT    EPW54092   4.655   6.864   0.848  0.1729 -0.0277  0.0776
13347WAT      O54093   1.460   2.590   7.850  0.2454  0.7201 -0.3800
13347WAT     H154094   1.476   2.667   7.888  0.6326  0.6420 -0.3781
13347WAT     H254095   1.538   2.566   7.819  0.1762  0.2191 -0.1757
13347WAT    EPW54096   1.474   2.598   7.851 -0.6132  0.1667  0.3695
13348WAT      O54097   1.785   5.868   3.891  0.2480 -0.6125 -0.3146
13348WAT     H154098   1.725   5.834   3.838  0.8159 -0.8858 -0.7882
13348WAT     H254099   1.738   5.915   3.948 -0.3636 -0.3251 -1.0479
13348WAT    EPW54100   1.769   5.870   3.892 -0.0704  0.0434  0.3089
13349WAT      O54101   1.524   6.530   3.913 -0.3797 -0.3243  0.1395
13349WAT     H154102   1.488   6.503   3.988  0.6881 -0.5354  0.5838
13349WAT     H254103   1.469   6.593   3.886  0.5509  1.6506  2.4462
13349WAT    EPW54104   1.510   6.536   3.920 -0.0355  0.3676  0.5665
13350WAT      O54105   6.899   6.886   0.480  0.1625  0.3658  0.0135
13350WAT     H154106   6.951   6.952   0.454  0.3841  0.7674  1.3889
13350WAT     H254107   6.914   6.881   0.566 -2.7357  1.1112  0.6788
13350WAT    EPW54108   6.909   6.895   0.489 -0.1202  0.1780 -0.0686
13351WAT      O54109   3.460   4.918   0.829  0.0719  0.1234 -0.1341
13351WAT     H154110   3.483   4.874   0.901 -0.7227 -1.4583 -0.8026
13351WAT     H254111   3.523   4.900   0.772 -0.6043 -0.7987 -0.6328
13351WAT    EPW54112   3.472   4.909   0.831  0.1250 -0.3131  0.4653
13352WAT      O54113   7.035   2.912   0.800 -0.3486 -0.4177  0.2416
13352WAT     H154114   7.046   2.825   0.793  4.6927 -0.0263 -0.3725
13352WAT     H254115   7.066   2.930   0.879  1.0101  0.9529 -0.5426
13352WAT    EPW54116   7.042   2.902   0.811  0.3297 -0.3473  0.0549
13353WAT      O54117   6.809   3.573   2.904  0.2135  0.0040 -0.6112
13353WAT     H154118   6.862   3.587   2.837 -1.4405 -1.8192 -2.4523
13353WAT     H254119   6.730   3.590   2.871 -0.6717 -1.0824  0.8401
13353WAT    EPW54120   6.805   3.578   2.889 -0.4132  0.1541 -0.1711
13354WAT      O54121   3.664   1.785   5.430 -0.0957 -0.1849 -0.3518
13354WAT     H154122   3.720   1.784   5.497 -2.0050  0.4010  1.3242
13354WAT     H254123   3.631   1.865   5.431  0.5938  0.2266 -2.7573
13354WAT    EPW54124   3.667   1.796   5.440 -0.6874  0.3507 -0.1204
13355WAT      O54125   4.176   1.518   5.118 -0.6640 -0.5546  0.2675
13355WAT     H154126   4.168   1.452   5.175 -1.5757 -0.5092  0.2065
13355WAT     H254127   4.263   1.530   5.113 -0.5195 -1.2675  0.8235
13355WAT    EPW54128   4.188   1.510   5.126  0.0430  0.5398 -0.2755
13356WAT      O54129   1.388   3.787   7.823  0.1533 -0.0267  0.1997
13356WAT     H154130   1.356   3.707   7.811  1.2182 -0.5125  0.4736
13356WAT     H254131   1.437   3.801   7.752 -1.5369  1.2024 -0.8196
13356WAT    EPW54132   1.391   3.778   7.811  0.0946  0.0391 -0.1127
13357WAT      O54133   2.145   1.740   0.359 -0.1433  0.4622 -0.3338
13357WAT     H154134   2.164   1.778   0.435 -1.0422  1.9596 -0.8204
13357WAT     H254135   2.123   1.658   0.381  0.4373  0.6208  0.9040
13357WAT    EPW54136   2.145   1.733   0.373  0.1630  0.0749  0.0180
13358WAT      O54137   3.155   1.161   5.312  0.2840  0.7490 -0.0573
13358WAT     H154138   3.141   1.146   5.227  1.6269  0.7611 -0.3062
13358WAT     H254139   3.182   1.084   5.342  1.2894  1.1157  0.0091
13358WAT    EPW54140   3.157   1.148   5.304  0.6804 -0.3891  0.1741
13359WAT      O54141   0.961   4.974   5.309 -0.9529  0.4657  0.4781
13359WAT     H154142   0.994   5.035   5.361 -0.9884  0.2437  0.7591
13359WAT     H254143   0.939   4.910   5.363  0.0995 -0.2647  0.0804
13359WAT    EPW54144   0.963   4.973   5.324  0.3695 -0.5163  0.3956
13360WAT      O54145   4.554   2.323   3.171  0.0666  0.2447 -0.1857
13360WAT     H154146   4.579   2.241   3.155 -0.4291  0.2241 -0.9595
13360WAT     H254147   4.484   2.333   3.119 -1.0039  0.5641  1.2608
13360WAT    EPW54148   4.547   2.312   3.161 -0.0352  0.4141 -0.2705
13361WAT      O54149   4.371   3.053   7.971 -0.2910 -0.6217 -0.5060
13361WAT     H154150   4.431   3.111   7.946 -0.1055 -0.4512  0.2865
13361WAT     H254151   4.390   3.040   8.056 -0.7900 -1.2779 -0.4873
13361WAT    EPW54152   4.383   3.060   7.980 -0.4891 -0.3153  0.8681
13362WAT      O54153   1.357   3.726   4.589 -0.5703 -0.1825 -0.2696
13362WAT     H154154   1.351   3.776   4.660 -1.3928 -0.2932 -0.2573
13362WAT     H254155   1.442   3.704   4.586  0.1096  2.2348 -0.9766
13362WAT    EPW54156   1.369   3.730   4.599  0.1364 -0.4280 -0.5715
13363WAT      O54157   2.427   7.094   7.645  0.3040 -0.0787  0.0316
13363WAT     H154158   2.502   7.078   7.604 -0.8817  0.0042 -2.3391
13363WAT     H254159   2.375   7.127   7.582 -1.1532  1.6532  1.9776
13363WAT    EPW54160   2.430   7.096   7.630 -0.5178  0.4102 -0.8251
13364WAT      O54161   2.245   4.483   2.127  0.1989  0.2159 -0.8270
13364WAT     H154162   2.198   4.410   2.124  3.6586 -2.2323 -1.2596
13364WAT     H254163   2.275   4.491   2.045 -0.1825  2.2719 -0.8234
13364WAT    EPW54164   2.242   4.474   2.114  0.2097  0.0712  0.3291
13365WAT      O54165   3.715   1.390   6.508  0.4940 -0.6175 -0.0449
13365WAT     H154166   3.649   1.366   6.456  0.3112  0.9483 -0.6056
13365WAT     H254167   3.738   1.468   6.476  0.0813  0.6440  2.4930
13365WAT    EPW54168   3.709   1.398   6.495  0.4729  0.1551  0.0845
13366WAT      O54169   1.591   3.852   0.519  0.4146  0.0902 -0.1330
13366WAT     H154170   1.591   3.768   0.499  0.6716  0.0544  0.0146
13366WAT     H254171   1.657   3.885   0.472  0.3021  0.2137 -0.2063
13366WAT    EPW54172   1.601   3.845   0.509  0.0238  0.5237  0.4987
13367WAT      O54173   0.655   7.162   0.314  0.0368  0.0380  0.0158
13367WAT     H154174   0.578   7.122   0.302 -0.1314  0.2052  0.4933
13367WAT     H254175   0.636   7.246   0.297 -0.0264  0.1644  0.6876
13367WAT    EPW54176   0.641   7.169   0.310 -0.2872  0.2299 -0.2298
13368WAT      O54177   1.560   2.016   4.351  0.6802  0.9104  0.0007
13368WAT     H154178   1.590   1.934   4.352 -2.2004 -0.2808  0.1818
13368WAT     H254179   1.530   2.029   4.432  1.3673  2.2945  0.0631
13368WAT    EPW54180   1.560   2.006   4.363  0.0346  0.0386  0.7576
13369WAT      O54181   1.264   7.017   0.625 -0.1107 -0.0366  0.9452
13369WAT     H154182   1.222   6.945   0.649 -1.0100  0.2591  0.3191
13369WAT     H254183   1.288   7.001   0.543  0.6966 -0.0611  1.1823
13369WAT    EPW54184   1.261   7.004   0.616 -0.4580 -0.0100 -0.3902
13370WAT      O54185   2.928   1.921   2.229  0.8163  0.0914  0.5941
13370WAT     H154186   2.911   1.984   2.287  0.2625  2.7090 -2.1951
13370WAT     H254187   2.860   1.923   2.175  0.5207 -3.3698  0.6258
13370WAT    EPW54188   2.916   1.930   2.230 -0.2828 -0.1873  0.1647
13371WAT      O54189   3.697   7.113   0.924  0.0046  0.0691  0.2125
13371WAT     H154190   3.676   7.142   0.845  0.5472 -1.4872 -0.5471
13371WAT     H254191   3.784   7.124   0.928 -0.1096  0.8549  0.9211
13371WAT    EPW54192   3.707   7.119   0.913 -0.5428 -0.2698 -0.0033
13372WAT      O54193   4.836   1.837   3.600 -0.2941  0.2862  0.0843
13372WAT     H154194   4.772   1.887   3.632 -1.0966 -0.4845 -0.3008
13372WAT     H254195   4.903   1.893   3.593 -0.4216  0.7541  1.9930
13372WAT    EPW54196   4.837   1.853   3.604  0.5261 -0.4965  0.1891
13373WAT      O54197   3.447   2.919   0.044  0.8015 -0.5318 -0.0195
13373WAT     H154198   3.387   2.922   0.107  0.4164  0.2726 -0.3983
13373WAT     H254199   3.399   2.916  -0.029  1.2253 -0.3226 -0.3083
13373WAT    EPW54200   3.431   2.919   0.042  0.3420 -0.5437  0.1047
13374WAT      O54201   0.587   5.173   0.417  0.4299  0.7338  0.5742
13374WAT     H154202   0.619   5.177   0.497  1.4861 -0.6209  0.2580
13374WAT     H254203   0.588   5.256   0.389  2.8698  0.8657  0.9009
13374WAT    EPW54204   0.592   5.186   0.425  0.3819 -0.4514 -0.3209
13375WAT      O54205   2.006   3.209   5.454 -0.1216  0.2104 -0.5453
13375WAT     H154206   1.989   3.230   5.371 -0.7956 -1.9335 -1.0062
13375WAT     H254207   1.943   3.249   5.499 -0.7528  0.0190 -1.2513
13375WAT    EPW54208   1.994   3.218   5.449 -0.0505  0.1961 -0.4209
13376WAT      O54209   3.354   7.470   0.754 -0.0404 -0.2312 -0.0790
13376WAT     H154210   3.404   7.408   0.718 -2.2382 -1.2456 -1.6446
13376WAT     H254211   3.321   7.431   0.824 -1.1668 -0.7916 -0.8845
13376WAT    EPW54212   3.357   7.455   0.759 -0.7026 -0.6883 -0.6258
13377WAT      O54213   6.418   5.318   1.422 -0.3436  0.5816  0.1892
13377WAT     H154214   6.377   5.345   1.494  0.4088 -1.3084  1.4150
13377WAT     H254215   6.358   5.269   1.382 -0.7927  1.7081 -0.5597
13377WAT    EPW54216   6.403   5.315   1.427 -0.4250 -0.3495  0.2941
13378WAT      O54217   3.927   0.321   0.867  0.1278 -1.0907 -0.2814
13378WAT     H154218   4.005   0.284   0.860 -0.5845 -2.4973 -1.2299
13378WAT     H254219   3.880   0.283   0.803 -1.2464 -0.0876  0.0803
13378WAT    EPW54220   3.931   0.310   0.856 -0.3906  0.1468 -0.4411
13379WAT      O54221   4.231   2.078   0.051 -0.2635  0.3032 -0.2967
13379WAT     H154222   4.249   2.150   0.096 -1.1424  0.5925 -0.3789
13379WAT     H254223   4.155   2.052   0.085 -0.0934 -0.4248 -0.4673
13379WAT    EPW54224   4.222   2.085   0.063 -0.0931  0.4625  0.3538
13380WAT      O54225   1.982   2.326   0.558  0.4368 -0.3849 -0.1796
13380WAT     H154226   2.013   2.244   0.562 -3.6876 -2.1389  2.1988
13380WAT     H254227   1.990   2.355   0.640 -1.5914  0.0421 -0.0860
13380WAT    EPW54228   1.988   2.318   0.571 -0.4026  0.5966  0.0067
13381WAT      O54229   2.966   1.496   3.071  0.2897 -0.0716  1.0957
13381WAT     H154230   2.911   1.444   3.115 -0.0093  0.3313  1.1990
13381WAT     H254231   2.942   1.576   3.095 -1.9086  0.4002 -2.0732
13381WAT    EPW54232   2.954   1.500   3.081 -0.0298  0.1280  0.6624
13382WAT      O54233   2.646   6.841   3.912 -0.0904 -0.0247  0.3596
13382WAT     H154234   2.617   6.859   3.992 -1.9108  0.3783 -0.3355
13382WAT     H254235   2.714   6.894   3.903  0.1749 -0.1116  1.6512
13382WAT    EPW54236   2.652   6.851   3.922 -0.1207  0.2080  0.3524
13383WAT      O54237   5.525   1.485   1.167 -0.0792  0.1638 -0.0251
13383WAT     H154238   5.585   1.512   1.224  0.1693 -2.1351  0.8902
13383WAT     H254239   5.566   1.492   1.090  1.4249 -1.3689  0.5755
13383WAT    EPW54240   5.540   1.490   1.164 -0.2078 -0.3208 -0.9037
13384WAT      O54241   0.035   7.781   4.169  0.2518 -0.1856  0.5915
13384WAT     H154242   0.075   7.808   4.242  1.8194 -1.8555  0.4091
13384WAT     H254243   0.045   7.849   4.115  1.3689  0.1004  1.1228
13384WAT    EPW54244   0.043   7.795   4.172  0.4799  0.6104 -0.1181
13385WAT      O54245   0.585   1.668   2.876  0.2356  0.7330 -0.9216
13385WAT     H154246   0.617   1.699   2.951  0.4563 -1.1790 -0.1806
13385WAT     H254247   0.524   1.727   2.854 -0.4005  0.9482  1.1826
13385WAT    EPW54248   0.581   1.682   2.883 -0.1449 -0.3630  0.1487
13386WAT      O54249   3.525   4.475   1.005  0.1805  0.1641 -0.2294
13386WAT     H154250   3.572   4.439   0.941  1.7080 -2.5775  2.1929
13386WAT     H254251   3.580   4.531   1.042  0.2276 -0.2074  0.2699
13386WAT    EPW54252   3.540   4.478   1.001 -0.1503  0.5297 -0.7854
13387WAT      O54253   3.696   3.639   6.299  0.0463 -0.0649  0.4663
13387WAT     H154254   3.700   3.552   6.304  2.0624  0.0812  3.8853
13387WAT     H254255   3.623   3.659   6.342  0.1399 -0.0263  0.6075
13387WAT    EPW54256   3.686   3.629   6.306 -0.1216 -0.1280 -0.0010
13388WAT      O54257   0.255   0.170   4.993  0.8454  0.2535  0.5386
13388WAT     H154258   0.279   0.208   4.918  0.2072  1.0452  0.7164
13388WAT     H254259   0.180   0.130   4.973  1.2041 -0.4072  0.5035
13388WAT    EPW54260   0.247   0.170   4.979  0.0748 -0.3760 -0.6752
13389WAT      O54261   3.007   3.316   1.224  0.2867 -0.2220  0.4501
13389WAT     H154262   3.012   3.315   1.137 -1.2908  2.1088  0.2231
13389WAT     H254263   2.922   3.304   1.240  0.7253 -1.9503  1.7951
13389WAT    EPW54264   2.995   3.314   1.213 -0.1029  0.1963 -0.2064
13390WAT      O54265   4.255   3.378   0.567 -0.8187  0.0321 -0.2402
13390WAT     H154266   4.271   3.389   0.482 -0.2640 -1.6409 -0.3885
13390WAT     H254267   4.331   3.395   0.605 -0.1752 -2.2014 -0.4030
13390WAT    EPW54268   4.268   3.382   0.560 -0.2516  0.1425  0.1098
13391WAT      O54269   0.001   4.544   2.426 -0.4516 -0.3738 -0.0184
13391WAT     H154270   0.078   4.515   2.399  0.0405  0.3969  0.5226
13391WAT     H254271   0.016   4.571   2.507 -1.4587 -0.8663  0.3621
13391WAT    EPW54272   0.014   4.543   2.434 -0.1122  0.2692  0.0714
13392WAT      O54273   2.494   3.319   6.591  0.3004 -0.0189 -0.1617
13392WAT     H154274   2.551   3.258   6.565 -0.2742  0.0219 -1.6403
13392WAT     H254275   2.470   3.292   6.670 -0.6263 -2.2693 -1.1082
13392WAT    EPW54276   2.499   3.306   6.599  0.0084 -0.3013 -0.0286
13393WAT      O54277   1.641   1.430   0.919  0.4809 -0.2381  0.4778
13393WAT     H154278   1.598   1.358   0.896  1.2744 -0.5843  0.0584
13393WAT     H254279   1.621   1.439   1.004 -1.1846  0.1607  0.0817
13393WAT    EPW54280   1.632   1.421   0.928  0.2349 -0.2612 -0.3114
13394WAT      O54281   1.888   1.743   4.543 -0.2612 -0.1497  0.0463
13394WAT     H154282   1.893   1.728   4.629  2.6767 -1.9120 -0.2980
13394WAT     H254283   1.923   1.823   4.534  0.2235 -0.3115  0.4325
13394WAT    EPW54284   1.894   1.753   4.555 -0.5534 -0.3542  0.2975
13395WAT      O54285   2.712   4.310   4.604 -0.1068 -0.0625  0.0602
13395WAT     H154286   2.678   4.238   4.567 -0.6905  0.7754 -1.0967
13395WAT     H254287   2.786   4.281   4.640 -0.7542 -1.4125  0.3861
13395WAT    EPW54288   2.718   4.295   4.604  0.0263  0.1146  0.1807
13396WAT      O54289   1.485   0.742   2.498  0.2746  0.6641  0.7503
13396WAT     H154290   1.562   0.746   2.540 -0.1887 -1.1166  1.8812
13396WAT     H254291   1.508   0.737   2.414  1.4328 -0.2397  1.0899
13396WAT    EPW54292   1.500   0.742   2.492  0.3633  0.4173 -0.2752
13397WAT      O54293   7.510   1.252   1.293  0.0542 -0.4409  0.0784
13397WAT     H154294   7.597   1.243   1.292 -0.0583 -1.7695  0.6010
13397WAT     H254295   7.481   1.173   1.317 -1.3299 -0.2136 -0.7407
13397WAT    EPW54296   7.519   1.239   1.296 -0.1382  0.0019  0.9886
13398WAT      O54297   2.557   6.549   5.282 -0.6942 -0.7610  0.1237
13398WAT     H154298   2.541   6.470   5.316 -1.2600 -0.4504  0.6005
13398WAT     H254299   2.541   6.538   5.197 -1.8616 -0.8890  0.3466
13398WAT    EPW54300   2.552   6.535   5.275  0.6815 -0.4101 -0.8110
13399WAT      O54301   4.204   0.132   5.295 -0.3013 -0.2638  0.0575
13399WAT     H154302   4.239   0.079   5.355 -1.3980 -1.6753 -0.4880
13399WAT     H254303   4.259   0.127   5.228  0.6852  0.9568  0.7335
13399WAT    EPW54304   4.217   0.123   5.294 -0.3941  0.6232  0.5805
13400WAT      O54305   6.143   2.175   2.234 -0.3786  0.5798  0.4574
13400WAT     H154306   6.106   2.227   2.174  1.6754  1.1183 -0.4289
13400WAT     H254307   6.110   2.096   2.217 -1.2869  1.0654 -0.1124
13400WAT    EPW54308   6.133   2.171   2.222  0.0129 -0.1854  0.3379
13401WAT      O54309   3.047   3.699   7.479 -0.8224 -0.3159 -0.3788
13401WAT     H154310   3.083   3.711   7.400  0.1980 -1.3496 -0.0859
13401WAT     H254311   3.078   3.622   7.505 -0.8440  0.1766  1.2139
13401WAT    EPW54312   3.057   3.689   7.471  0.0893  0.4179 -0.6262
13402WAT      O54313   1.847   5.365   6.536 -0.2908  0.5655 -0.3112
13402WAT     H154314   1.805   5.292   6.560 -0.3335  0.4032 -0.8531
13402WAT     H254315   1.913   5.335   6.488  0.1589  0.8484  0.1250
13402WAT    EPW54316   1.851   5.350   6.532  0.3088 -0.5018 -0.0688
13403WAT      O54317   1.538   2.141   6.824  0.3017 -0.6985 -0.3259
13403WAT     H154318   1.537   2.115   6.740 -0.3675 -1.0507 -0.2146
13403WAT     H254319   1.499   2.075   6.866 -0.2409 -0.0831  0.1387
13403WAT    EPW54320   1.532   2.127   6.818  1.2788  0.1923 -0.1834
13404WAT      O54321   5.019   0.491   5.619  0.2953  0.2214 -0.0942
13404WAT     H154322   4.937   0.502   5.648  0.4509  3.4173 -0.5177
13404WAT     H254323   5.057   0.446   5.683 -1.5948 -0.8139  0.3968
13404WAT    EPW54324   5.012   0.486   5.633 -0.1553 -0.0506 -0.9527
13405WAT      O54325   5.403   1.335   4.314 -0.3630 -0.1421  0.2177
13405WAT     H154326   5.477   1.361   4.351  0.3929  0.4415 -1.5721
13405WAT     H254327   5.427   1.315   4.232 -2.1389 -0.1396 -0.3493
13405WAT    EPW54328   5.417   1.336   4.307  0.3464 -0.4302 -0.1429
13406WAT      O54329   0.870   0.202   4.736 -0.5090  0.2689  0.6270
13406WAT     H154330   0.818   0.161   4.793 -1.0394  0.7828  0.5269
13406WAT     H254331   0.830   0.279   4.724  0.4529  0.8118  0.8002
13406WAT    EPW54332   0.856   0.207   4.742  0.0655 -1.0934 -0.2453
13407WAT      O54333   5.285   3.213   3.087  0.3067  0.3116 -0.8052
13407WAT     H154334   5.225   3.150   3.087  1.0035 -0.3929  0.6377
13407WAT     H254335   5.238   3.286   3.079 -0.5225 -0.3494 -2.3249
13407WAT    EPW54336   5.269   3.215   3.086 -0.8377 -0.2487  0.3426
13408WAT      O54337   2.509   1.624   5.952 -0.6231  0.1090  0.3817
13408WAT     H154338   2.579   1.663   5.917 -1.6362  0.6915 -1.0726
13408WAT     H254339   2.490   1.675   6.021 -0.9765  1.3188 -0.5736
13408WAT    EPW54340   2.517   1.638   5.957 -0.2389 -0.6102  0.0749
13409WAT      O54341   4.010   4.569   0.744  0.1468  0.0229  0.6340
13409WAT     H154342   3.958   4.530   0.687  1.2802  1.7747 -1.7868
13409WAT     H254343   4.074   4.511   0.757 -1.3240 -1.3682  2.1645
13409WAT    EPW54344   4.012   4.555   0.738  0.6995  0.0365  0.0843
13410WAT      O54345   2.623   0.107   1.990  0.0725  0.0589 -0.0094
13410WAT     H154346   2.678   0.110   2.057 -0.0629  0.5291  0.0794
13410WAT     H254347   2.649   0.173   1.938 -0.2337  0.1095 -0.1004
13410WAT    EPW54348   2.635   0.117   1.992  0.0441  0.1356 -0.1687
13411WAT      O54349   2.825   4.897   5.370 -0.5851  0.3435 -0.3756
13411WAT     H154350   2.861   4.820   5.351  0.8482  0.9520 -0.2773
13411WAT     H254351   2.890   4.954   5.357 -1.9969  1.7296 -1.9137
13411WAT    EPW54352   2.840   4.894   5.365 -0.8874  0.4902  0.1338
13412WAT      O54353   1.932   0.376   4.925 -0.1284 -0.0781 -0.0260
13412WAT     H154354   1.847   0.362   4.912  0.1455 -0.5255 -1.6371
13412WAT     H254355   1.969   0.341   4.854  1.3948  0.1714  0.6094
13412WAT    EPW54356   1.925   0.369   4.912  0.0672 -0.1802 -0.2860
13413WAT      O54357   5.335   2.692   4.712  0.1381 -0.0856 -0.3409
13413WAT     H154358   5.254   2.702   4.742  0.4586 -1.1505  1.0120
13413WAT     H254359   5.333   2.731   4.634 -2.0354 -1.1764 -0.9227
13413WAT    EPW54360   5.323   2.699   4.705 -0.0003  0.0289 -0.3661
13414WAT      O54361   1.973   2.974   5.830  0.1897  0.8426  0.5567
13414WAT     H154362   1.920   3.016   5.775 -1.5170  0.9190  2.1762
13414WAT     H254363   2.051   3.011   5.815 -0.1552  0.7715 -1.8341
13414WAT    EPW54364   1.977   2.986   5.820 -0.4148  0.2703 -0.3147
13415WAT      O54365   2.646   3.564   7.826  0.1970  0.4287  0.1862
13415WAT     H154366   2.587   3.501   7.833  0.6352 -0.0709 -0.4941
13415WAT     H254367   2.614   3.628   7.876 -2.4419  1.3493 -2.3905
13415WAT    EPW54368   2.633   3.565   7.834  0.0127 -0.4249  0.5220
13416WAT      O54369   1.443   2.343   3.404 -0.2229 -0.4492  0.0697
13416WAT     H154370   1.502   2.363   3.343  0.2391 -2.5533 -0.2219
13416WAT     H254371   1.469   2.266   3.434 -2.6312 -1.2891  0.1863
13416WAT    EPW54372   1.455   2.335   3.400 -0.2327 -0.2574  0.8137
13417WAT      O54373   0.918   5.209   4.649 -0.3865 -0.1502 -0.1264
13417WAT     H154374   0.872   5.185   4.579  1.1874 -4.3479  0.0224
13417WAT     H254375   0.986   5.252   4.616  0.2657 -1.9653 -1.2467
13417WAT    EPW54376   0.921   5.212   4.634 -0.0350  1.0461  0.3692
13418WAT      O54377   5.894   2.186   2.672 -0.3341 -0.0211 -0.2789
13418WAT     H154378   5.847   2.119   2.641  1.3346 -1.3446 -0.0638
13418WAT     H254379   5.959   2.148   2.716  0.7286  1.7452 -0.2006
13418WAT    EPW54380   5.896   2.171   2.674  0.3461  0.1296 -0.0278
13419WAT      O54381   5.214   1.749   6.955  0.2937 -0.0344  0.3722
13419WAT     H154382   5.276   1.702   6.915 -0.9454 -2.4836  1.1273
13419WAT     H254383   5.259   1.797   7.012  1.6605 -0.0574 -0.6216
13419WAT    EPW54384   5.230   1.749   6.958 -0.0027 -0.9554  0.2387
13420WAT      O54385   4.885   6.115   4.447  0.4736  0.0719  0.3327
13420WAT     H154386   4.945   6.115   4.383  0.0277 -0.8578 -0.1100
13420WAT     H254387   4.830   6.051   4.423  0.3466 -0.3573  1.6820
13420WAT    EPW54388   4.886   6.105   4.434 -0.4369  0.1434  0.5441
13421WAT      O54389   4.591   1.979   1.338 -0.0640  0.3038  0.0795
13421WAT     H154390   4.634   2.048   1.368  0.8745 -0.3218  0.1996
13421WAT     H254391   4.589   1.924   1.406 -0.7749  0.1856 -0.0221
13421WAT    EPW54392   4.597   1.981   1.353 -0.0550  0.3025  0.1639
13422WAT      O54393   5.980   2.663   7.092  0.3305  0.0397  0.3402
13422WAT     H154394   6.025   2.723   7.138 -0.2484  0.2917  0.5841
13422WAT     H254395   5.964   2.601   7.151  1.7883 -0.8510 -0.1450
13422WAT    EPW54396   5.984   2.663   7.108  0.2072 -0.3785  1.2773
13423WAT      O54397   5.534   3.321   0.761 -0.1911  0.1449 -0.3109
13423WAT     H154398   5.453   3.316   0.793  0.4124 -2.2388  1.1336
13423WAT     H254399   5.562   3.398   0.789 -1.4310  0.3287  0.5473
13423WAT    EPW54400   5.526   3.332   0.770  0.0758  0.3646 -0.0385
13424WAT      O54401   2.038   1.566   1.453 -0.4827 -0.0632  0.6055
13424WAT     H154402   2.043   1.569   1.366  0.0300 -1.6701  0.5595
13424WAT     H254403   1.977   1.626   1.472 -0.9081  0.0074 -0.8876
13424WAT    EPW54404   2.030   1.575   1.443 -0.1257  0.4125  0.1387
13425WAT      O54405   1.665   6.196   0.806 -0.2748 -0.5750 -0.3330
13425WAT     H154406   1.633   6.244   0.740  0.8085 -1.2467 -1.3749
13425WAT     H254407   1.635   6.238   0.877 -3.1576 -0.9318 -1.1857
13425WAT    EPW54408   1.656   6.210   0.807  0.1986  0.1101 -0.0183
13426WAT      O54409   3.347   0.314   7.004  0.1877 -0.1853  0.2039
13426WAT     H154410   3.402   0.354   7.059  0.0634 -0.2417  0.3675
13426WAT     H254411   3.324   0.242   7.046  0.0398 -0.1949  0.1063
13426WAT    EPW54412   3.352   0.310   7.018  0.1658 -0.1983 -0.1522
13427WAT      O54413   3.229   3.260   4.211  0.2791  0.2626 -0.6575
13427WAT     H154414   3.191   3.181   4.215  0.7320 -0.0207 -1.5936
13427WAT     H254415   3.308   3.246   4.245  0.7495  0.0418 -1.7958
13427WAT    EPW54416   3.235   3.246   4.217  0.7449 -0.1272 -0.0056
13428WAT      O54417   5.106   5.797   5.606 -0.1204 -0.0780  0.0155
13428WAT     H154418   5.134   5.774   5.686 -0.7625  2.0010  0.9219
13428WAT     H254419   5.164   5.761   5.553  0.6554 -1.0662  1.4519
13428WAT    EPW54420   5.118   5.789   5.610  0.6285  0.0246 -0.2407
13429WAT      O54421   4.789   6.689   8.023  0.4514 -0.0104  0.3696
13429WAT     H154422   4.715   6.708   8.064  0.3341  0.3467  0.0041
13429WAT     H254423   4.766   6.690   7.938  0.8267 -0.0936  0.2659
13429WAT    EPW54424   4.775   6.692   8.016  0.2914 -0.0198 -0.2436
13430WAT      O54425   3.885   0.715   6.126 -0.0355  0.3388 -0.2015
13430WAT     H154426   3.952   0.668   6.095  1.0195  2.1221 -0.8135
13430WAT     H254427   3.843   0.659   6.177  2.3415 -0.7086  0.7900
13430WAT    EPW54428   3.889   0.700   6.129 -0.0402  0.4523 -0.6745
13431WAT      O54429   1.474   0.355   5.259  0.4423 -0.6490  0.0928
13431WAT     H154430   1.545   0.396   5.290  0.5927  0.0784 -1.1583
13431WAT     H254431   1.408   0.394   5.301  0.4106  2.3040 -2.3438
13431WAT    EPW54432   1.475   0.367   5.270  0.0103 -0.3608 -0.2125
13432WAT      O54433   0.155   1.355   2.258 -0.4971 -0.0312 -0.4116
13432WAT     H154434   0.211   1.410   2.220  0.0980 -1.1319 -1.1754
13432WAT     H254435   0.154   1.286   2.205 -2.0392 -0.3423 -0.0321
13432WAT    EPW54436   0.163   1.353   2.245  0.4186 -0.0861 -0.3171
13433WAT      O54437   1.798   2.976   7.317 -0.3893  0.3582 -0.0192
13433WAT     H154438   1.866   2.922   7.331 -0.9184  0.2364  2.4307
13433WAT     H254439   1.761   2.943   7.245 -0.0469 -1.9278  0.7603
13433WAT    EPW54440   1.803   2.963   7.308 -0.0854  0.0777  0.3151
13434WAT      O54441   2.206   4.780   3.926 -0.2338 -0.1719  0.1558
13434WAT     H154442   2.166   4.742   3.858  1.0201 -1.0909 -0.1084
13434WAT     H254443   2.154   4.761   3.994 -0.5306 -0.8728 -0.2601
13434WAT    EPW54444   2.192   4.772   3.926 -0.1900  0.6397 -0.1365
13435WAT      O54445   0.554   0.651   0.467  0.3723 -0.1328 -0.7215
13435WAT     H154446   0.611   0.699   0.422 -0.7813  0.8033 -1.2377
13435WAT     H254447   0.517   0.601   0.406 -0.1038  0.0300 -0.5686
13435WAT    EPW54448   0.557   0.650   0.452 -0.1629  0.0623 -0.8902
13436WAT      O54449   6.775   7.757   4.169 -0.2086  0.2101 -0.0071
13436WAT     H154450   6.837   7.773   4.229 -1.0651  1.0797  0.6882
13436WAT     H254451   6.727   7.694   4.206  0.4033 -0.6559 -0.6630
13436WAT    EPW54452   6.777   7.750   4.183 -1.0543  0.3519 -0.4853
13437WAT      O54453   3.392   4.627   2.688  0.0425 -0.1692 -0.5911
13437WAT     H154454   3.389   4.597   2.770  1.2614 -0.1176 -0.4972
13437WAT     H254455   3.327   4.685   2.684 -1.0975 -1.3812 -0.1810
13437WAT    EPW54456   3.382   4.631   2.700 -0.3198 -0.6793 -0.1457
13438WAT      O54457   6.176   4.210   5.841  0.1049  0.3181  0.4049
13438WAT     H154458   6.251   4.221   5.797  0.1321  1.0901  0.6419
13438WAT     H254459   6.135   4.286   5.833 -1.8062 -0.8203 -1.7981
13438WAT    EPW54460   6.181   4.223   5.834  1.1673 -0.0833  0.7029
13439WAT      O54461   2.447   1.935   5.161  0.7463  0.2592  0.3794
13439WAT     H154462   2.427   1.862   5.205  0.7617  0.1727  0.2410
13439WAT     H254463   2.369   1.966   5.137  0.5140  1.6826  2.6685
13439WAT    EPW54464   2.433   1.929   5.164  0.0870  0.8129 -0.4448
13440WAT      O54465   2.901   1.060   6.095 -0.2789  0.4215 -0.4429
13440WAT     H154466   2.941   0.988   6.068 -2.3602 -0.5245 -1.1988
13440WAT     H254467   2.930   1.121   6.040  0.9639  0.0498 -0.2372
13440WAT    EPW54468   2.911   1.059   6.083  0.1611 -0.1995  0.4482
13441WAT      O54469   2.543   4.478   4.778  0.1028  0.2149  0.4794
13441WAT     H154470   2.566   4.451   4.857  0.6319 -0.6209  0.0559
13441WAT     H254471   2.578   4.418   4.725 -1.5271 -0.0967 -0.3038
13441WAT    EPW54472   2.551   4.465   4.782  0.0133 -0.1658 -0.5310
13442WAT      O54473   1.593   8.008   5.287  0.5397  0.3643  0.1102
13442WAT     H154474   1.573   8.020   5.371 -0.7936 -0.6867 -0.0335
13442WAT     H254475   1.674   7.974   5.290  0.1441 -0.5427  1.0287
13442WAT    EPW54476   1.602   8.005   5.300  0.6257  0.5994  0.4208
13443WAT      O54477   2.877   0.787   4.405 -0.1659 -0.0669 -0.1723
13443WAT     H154478   2.922   0.860   4.394  1.2466 -0.4414  2.2788
13443WAT     H254479   2.815   0.809   4.463 -1.5052 -0.2228 -1.4706
13443WAT    EPW54480   2.874   0.801   4.412  0.5276 -0.0639 -0.2089
13444WAT      O54481   1.740   5.001   0.453 -0.1672  0.6467 -0.3085
13444WAT     H154482   1.776   4.937   0.500  0.5104  0.8536 -0.5413
13444WAT     H254483   1.658   5.005   0.483 -0.1488 -0.1670 -0.1272
13444WAT    EPW54484   1.733   4.992   0.464 -0.3150  0.1687 -0.2789
13445WAT      O54485   1.655   2.880   0.494  0.0069  0.6602  0.6742
13445WAT     H154486   1.617   2.955   0.514 -1.9474 -0.0770 -0.0030
13445WAT     H254487   1.609   2.821   0.538 -0.6886 -0.4121 -1.3292
13445WAT    EPW54488   1.643   2.882   0.503 -0.5820 -0.4276  0.3442
13446WAT      O54489   3.255   4.083   6.526 -0.5385  0.3900 -0.3231
13446WAT     H154490   3.242   4.054   6.445  0.4181 -0.0002 -0.3552
13446WAT     H254491   3.210   4.157   6.530 -1.5620 -0.1804 -0.8272
13446WAT    EPW54492   3.247   4.089   6.515 -0.1431 -0.0956 -0.0693
13447WAT      O54493   2.556   6.674   7.982  0.6650 -0.2840  0.3929
13447WAT     H154494   2.570   6.666   7.896 -0.7401 -1.4518  0.2200
13447WAT     H254495   2.604   6.610   8.017  0.5258 -0.3930  0.3854
13447WAT    EPW54496   2.565   6.663   7.974 -0.1528 -0.5659  0.3044
13448WAT      O54497   4.355   3.923   6.763 -0.9102 -0.6521 -0.4110
13448WAT     H154498   4.422   3.974   6.741 -1.9028  1.6215  1.3413
13448WAT     H254499   4.371   3.902   6.846 -1.2769 -1.9882 -0.6544
13448WAT    EPW54500   4.367   3.927   6.772 -0.7273  0.3243  0.5076
13449WAT      O54501   0.781   2.063   4.335  0.6380 -0.0412  0.1346
13449WAT     H154502   0.859   2.062   4.298 -0.2818 -0.2136 -1.9347
13449WAT     H254503   0.757   1.979   4.336  1.8297 -0.5645  4.0836
13449WAT    EPW54504   0.789   2.050   4.330 -1.0099 -0.5689  0.3413
13450WAT      O54505   4.837   0.613   5.981 -0.6253 -0.0805  0.1089
13450WAT     H154506   4.877   0.684   5.950 -1.2078  0.1846 -0.0475
13450WAT     H254507   4.879   0.597   6.056 -1.1626  1.0511  0.6692
13450WAT    EPW54508   4.849   0.621   5.987  0.5374  0.0628  0.2852
13451WAT      O54509   3.641   2.241   6.338 -0.4539  0.1315  0.1230
13451WAT     H154510   3.566   2.205   6.312 -0.2972 -0.9748  1.1193
13451WAT     H254511   3.696   2.173   6.342  0.4736  0.8472 -0.1140
13451WAT    EPW54512   3.638   2.225   6.335 -0.1182  0.6765 -0.1390
13452WAT      O54513   3.230   2.466   5.713  0.3939  0.1862 -0.7196
13452WAT     H154514   3.243   2.547   5.683  0.7064  1.6313  2.7745
13452WAT     H254515   3.150   2.468   5.746  0.7327 -0.6310  0.2128
13452WAT    EPW54516   3.220   2.478   5.713  0.2915  0.3667  0.6802
13453WAT      O54517   3.822   3.861   6.496 -0.3340  0.7796  0.3349
13453WAT     H154518   3.846   3.865   6.412 -1.2204  2.4562  0.1131
13453WAT     H254519   3.884   3.812   6.533 -0.1090 -0.2609 -1.3467
13453WAT    EPW54520   3.835   3.854   6.489 -0.0343 -0.6689  0.2417
13454WAT      O54521   2.406   2.763   7.642  0.3459 -0.1622  0.2327
13454WAT     H154522   2.440   2.722   7.712 -0.3822  1.3693  1.5644
13454WAT     H254523   2.411   2.847   7.664 -1.1490  0.2843 -1.0028
13454WAT    EPW54524   2.412   2.769   7.656  0.2294 -0.4789  0.0246
13455WAT      O54525   2.272   1.450   5.288  0.1157 -0.1146  0.4909
13455WAT     H154526   2.249   1.424   5.208 -3.0520 -4.4269  2.4092
13455WAT     H254527   2.339   1.398   5.309  0.5091  0.5434  0.9325
13455WAT    EPW54528   2.278   1.439   5.279  0.0389  0.2683 -0.9518
13456WAT      O54529   3.264   1.293   7.312 -0.2140 -0.0838 -0.0311
13456WAT     H154530   3.193   1.332   7.345  1.5344  0.1308  4.2258
13456WAT     H254531   3.251   1.209   7.329  0.6000 -0.0093  1.0483
13456WAT    EPW54532   3.252   1.287   7.320  0.3735  0.3638 -0.6310
13457WAT      O54533   3.395   1.734   1.017  0.1817  0.0244 -0.1931
13457WAT     H154534   3.333   1.724   1.077 -0.9126  3.2947 -0.5807
13457WAT     H254535   3.400   1.655   0.980 -0.5944 -1.5310  2.7085
13457WAT    EPW54536   3.386   1.721   1.020 -0.3140  0.1241  0.1556
13458WAT      O54537   2.197   4.194   6.043  0.0596 -0.2698  0.5245
13458WAT     H154538   2.148   4.257   6.008  0.4374 -0.4611 -0.3968
13458WAT     H254539   2.250   4.236   6.098  1.7827  0.5949 -1.6225
13458WAT    EPW54540   2.198   4.209   6.046  0.0111  0.0966  0.1905
13459WAT      O54541   1.855   4.609   0.396 -0.4639  0.2202 -0.0505
13459WAT     H154542   1.801   4.558   0.350 -0.3967  0.3301 -0.2502
13459WAT     H254543   1.917   4.631   0.338  0.2703 -0.6084  0.3963
13459WAT    EPW54544   1.857   4.605   0.380  0.0990 -0.0529  0.5193
13460WAT      O54545   6.791   6.386   2.718 -0.3751  0.3737  0.6972
13460WAT     H154546   6.795   6.358   2.635 -1.3873  0.0960  0.7234
13460WAT     H254547   6.857   6.343   2.757 -0.4340 -0.1717  0.2173
13460WAT    EPW54548   6.802   6.375   2.712  0.4780 -0.0178 -0.3609
13461WAT      O54549   0.548   5.118   1.027  0.0907  0.5152 -0.1513
13461WAT     H154550   0.545   5.065   0.957 -1.5061  0.3240  0.0292
13461WAT     H254551   0.621   5.164   1.014  0.2941 -0.1284 -1.4966
13461WAT    EPW54552   0.559   5.117   1.015 -0.5378 -0.1572 -0.0621
13462WAT      O54553   5.902   4.144   7.772 -0.4127 -0.3635 -0.1138
13462WAT     H154554   5.942   4.208   7.728 -1.2337  0.9946  1.0236
13462WAT     H254555   5.906   4.076   7.718  2.8619 -0.1533 -0.2955
13462WAT    EPW54556   5.908   4.143   7.758  0.3294  0.6869 -0.2283
13463WAT      O54557   2.863   6.715   6.590  0.1121 -0.1224 -0.2902
13463WAT     H154558   2.800   6.659   6.612 -0.0815  0.8831  1.9190
13463WAT     H254559   2.823   6.792   6.592  0.5370  0.2308 -2.6298
13463WAT    EPW54560   2.847   6.718   6.593 -0.1787 -0.1224 -0.2012
13464WAT      O54561   2.804   7.036   1.376 -0.3248  0.4230  0.0176
13464WAT     H154562   2.728   7.027   1.417 -0.2264  2.1240  0.6564
13464WAT     H254563   2.812   7.123   1.366  0.7269  0.1937 -1.5774
13464WAT    EPW54564   2.794   7.048   1.381 -0.4433 -0.1333 -0.2808
13465WAT      O54565   6.439   2.430   0.465 -0.1291  0.1642  0.2414
13465WAT     H154566   6.518   2.400   0.488  0.6689  0.1108 -2.2434
13465WAT     H254567   6.446   2.516   0.474 -0.0540  0.1112  0.7215
13465WAT    EPW54568   6.452   2.438   0.469  0.5595  0.3488 -0.3334
13466WAT      O54569   4.499   6.639   0.757 -0.2165 -0.7623 -0.0121
13466WAT     H154570   4.509   6.654   0.671  0.1416  1.1349  0.3154
13466WAT     H254571   4.423   6.678   0.776  1.4124  2.1766  1.1578
13466WAT    EPW54572   4.489   6.647   0.747  0.9633 -0.7606 -0.5905
13467WAT      O54573   1.986   6.281   5.950 -0.2320 -0.3701 -0.0147
13467WAT     H154574   1.973   6.197   5.928  1.4521 -0.1295 -2.2936
13467WAT     H254575   1.922   6.323   5.909 -0.0264 -0.4136 -0.3945
13467WAT    EPW54576   1.975   6.275   5.941  0.8171  0.2264 -0.7411
13468WAT      O54577   3.332   7.562   0.339 -0.0132  0.1051  0.4331
13468WAT     H154578   3.341   7.643   0.370  1.2764  0.3932 -0.6093
13468WAT     H254579   3.296   7.574   0.260  2.2915 -0.0949 -0.7279
13468WAT    EPW54580   3.328   7.576   0.332 -0.1426  0.2052 -0.0138
13469WAT      O54581   7.123   5.362   3.975 -0.1993 -0.3122 -0.2031
13469WAT     H154582   7.106   5.364   4.060 -0.7475  0.7581 -0.3253
13469WAT     H254583   7.195   5.313   3.969 -0.4014 -0.7516  0.8227
13469WAT    EPW54584   7.131   5.355   3.986  0.0936  0.3275  0.3307
13470WAT      O54585   1.854   4.719   6.699 -0.0940 -0.8714 -0.1816
13470WAT     H154586   1.889   4.651   6.740  1.5257 -0.5562 -0.9550
13470WAT     H254587   1.825   4.770   6.763 -0.3488 -1.7802  0.4346
13470WAT    EPW54588   1.855   4.716   6.714 -0.1989 -0.0472 -0.2690
13471WAT      O54589   1.597   1.923   7.872  0.5181 -0.2497  0.4329
13471WAT     H154590   1.526   1.973   7.876  1.9411  1.8936  0.5946
13471WAT     H254591   1.627   1.937   7.791  2.1792  1.0433  1.2249
13471WAT    EPW54592   1.591   1.932   7.860  0.4712 -0.3344  0.2719
13472WAT      O54593   0.631   6.063   3.905  0.1352 -0.6954 -0.3814
13472WAT     H154594   0.635   6.149   3.915  0.7626 -0.6510 -0.9200
13472WAT     H254595   0.601   6.034   3.982  1.5908 -0.1400  0.4190
13472WAT    EPW54596   0.627   6.071   3.918  0.5017 -0.3151 -0.2647
13473WAT      O54597   3.012   7.201   6.351 -0.0139  0.3846 -0.2014
13473WAT     H154598   3.083   7.189   6.401  1.3734  1.6888 -1.7472
13473WAT     H254599   2.984   7.120   6.336  0.5433 -0.1151  1.2424
13473WAT    EPW54600   3.019   7.187   6.356  0.2975 -0.3732 -0.3690
13474WAT      O54601   2.476   0.300   4.155 -0.1964  0.5117  0.1484
13474WAT     H154602   2.412   0.256   4.196  1.1641 -1.0194  0.7220
13474WAT     H254603   2.493   0.251   4.085  0.1967  1.0375 -0.1247
13474WAT    EPW54604   2.469   0.286   4.151 -0.1552  0.1068 -0.5492
13475WAT      O54605   3.288   3.428   3.185  0.3388 -0.1135  0.2733
13475WAT     H154606   3.293   3.362   3.242  1.2414  1.0496  1.6118
13475WAT     H254607   3.220   3.475   3.213  0.6545  0.3522  0.2729
13475WAT    EPW54608   3.279   3.425   3.198  0.6661  0.0573 -0.3294
13476WAT      O54609   7.652   7.176   2.662 -0.0182 -0.7426  0.5709
13476WAT     H154610   7.636   7.165   2.747 -1.7521  1.1408  0.5811
13476WAT     H254611   7.582   7.140   2.624 -1.8029  2.6128  0.2935
13476WAT    EPW54612   7.639   7.169   2.669  0.3357 -0.0365 -0.0979
13477WAT      O54613   2.373   6.576   3.246  0.0912  0.3761 -0.0525
13477WAT     H154614   2.328   6.621   3.306 -0.8061 -1.8139  1.0401
13477WAT     H254615   2.456   6.583   3.272 -0.3544 -1.2810  2.1020
13477WAT    EPW54616   2.378   6.584   3.259  0.3219 -0.3247  0.3386
13478WAT      O54617   3.739   3.365   6.040  0.2408  0.0511  0.0303
13478WAT     H154618   3.800   3.427   6.043  0.4619 -0.1512 -0.2278
13478WAT     H254619   3.679   3.398   5.986  1.0460 -0.5535 -1.2972
13478WAT    EPW54620   3.739   3.379   6.033  0.8049 -0.6291  0.0294
13479WAT      O54621   2.242   7.949   2.514 -0.0334  0.4554 -0.3402
13479WAT     H154622   2.259   7.974   2.596  0.6044  0.9252 -0.6000
13479WAT     H254623   2.198   8.018   2.481 -1.3779 -0.2262 -0.0534
13479WAT    EPW54624   2.238   7.963   2.522 -0.0517  0.3879 -0.0603
13480WAT      O54625   3.282   1.139   4.841 -0.3790  0.3752 -0.1724
13480WAT     H154626   3.309   1.071   4.792 -0.2948  0.5586 -0.3857
13480WAT     H254627   3.352   1.191   4.842 -0.9353  1.2038 -1.3423
13480WAT    EPW54628   3.297   1.137   4.834  0.0719 -0.2206  0.2963
13481WAT      O54629   6.588   4.738   2.900  0.4053 -0.3498  0.1119
13481WAT     H154630   6.540   4.725   2.972 -0.0891  0.6904 -0.0146
13481WAT     H254631   6.528   4.740   2.837  0.6988  0.1702 -0.1490
13481WAT    EPW54632   6.572   4.736   2.901  0.1328 -0.0770 -0.3523
13482WAT      O54633   3.906   6.787   5.208  0.5180 -0.0597  0.3784
13482WAT     H154634   3.926   6.815   5.128 -2.1497 -0.4153 -0.5302
13482WAT     H254635   3.930   6.853   5.260  1.2618  0.6652 -0.8446
13482WAT    EPW54636   3.913   6.801   5.204  0.0801 -0.3845  0.6349
13483WAT      O54637   7.736   5.079   2.365  0.0457 -0.1997  0.2307
13483WAT     H154638   7.810   5.114   2.335  0.2940  0.1839  1.2318
13483WAT     H254639   7.717   5.129   2.434 -1.7388  0.3909 -0.6370
13483WAT    EPW54640   7.744   5.092   2.371  0.5618  0.4873 -0.2307
13484WAT      O54641   5.815   7.615   4.435 -0.8852 -0.8919 -0.5853
13484WAT     H154642   5.771   7.589   4.506  0.4658 -3.6175 -0.6071
13484WAT     H254643   5.867   7.678   4.465 -2.1276 -0.2324  0.2595
13484WAT    EPW54644   5.816   7.620   4.450 -0.2717 -0.7532 -0.5220
13485WAT      O54645   5.445   3.278   3.921 -0.3038  0.0023 -0.9962
13485WAT     H154646   5.423   3.196   3.901 -0.4032  0.0765 -1.1964
13485WAT     H254647   5.414   3.325   3.854 -2.4548  0.5092  0.2531
13485WAT    EPW54648   5.437   3.273   3.908  0.0868 -0.3128  0.0554
13486WAT      O54649   2.915   3.816   8.038  0.0465 -0.4390 -0.2850
13486WAT     H154650   2.891   3.895   8.011  0.7965 -0.3524 -0.7572
13486WAT     H254651   2.844   3.767   8.027 -0.3614  0.1279 -0.1714
13486WAT    EPW54652   2.901   3.820   8.032  0.7021  0.7790 -0.4685
13487WAT      O54653   2.684   6.043   3.327 -0.0748  0.0270 -0.8011
13487WAT     H154654   2.634   6.047   3.398 -0.8200  0.6964 -1.3574
13487WAT     H254655   2.726   6.119   3.327  2.5539 -1.2390  0.7639
13487WAT    EPW54656   2.683   6.055   3.337 -0.1197 -0.2977 -0.1748
13488WAT      O54657   1.030   2.516   3.682  0.0643  0.5470  0.6272
13488WAT     H154658   1.076   2.456   3.638  0.3438  0.1080  1.5088
13488WAT     H254659   1.072   2.523   3.758  0.1609  2.0337  0.4550
13488WAT    EPW54660   1.043   2.508   3.687  0.0612 -0.3019 -0.5416
13489WAT      O54661   2.795   4.832   6.356 -0.1325 -0.5787  0.8410
13489WAT     H154662   2.786   4.891   6.420 -1.2074  0.1436  0.0427
13489WAT     H254663   2.882   4.826   6.347  0.0151  0.9579  0.8851
13489WAT    EPW54664   2.807   4.840   6.364  0.3649  0.2880  0.8796
13490WAT      O54665   2.013   3.639   5.803  0.7735 -0.2686  0.0293
13490WAT     H154666   2.007   3.631   5.890 -1.2640  1.4467  0.1255
13490WAT     H254667   1.942   3.597   5.773  1.6063 -1.0981 -0.8635
13490WAT    EPW54668   2.001   3.632   5.811  0.4352 -0.4182  0.1778
13491WAT      O54669   5.096   3.153   5.715 -0.2091  0.2236  0.3457
13491WAT     H154670   5.046   3.196   5.773 -1.1994 -2.1472  1.3931
13491WAT     H254671   5.146   3.102   5.765  0.6536 -0.1406 -0.8403
13491WAT    EPW54672   5.096   3.152   5.731  0.2389  0.7051 -0.1367
13492WAT      O54673   2.157   5.003   1.458 -0.6943 -0.5973 -0.5212
13492WAT     H154674   2.209   5.057   1.414 -0.5007 -1.3569 -1.2700
13492WAT     H254675   2.079   5.012   1.420 -0.6420 -0.8921 -0.7065
13492WAT    EPW54676   2.153   5.012   1.446  0.2898 -0.3614  0.2132
13493WAT      O54677   2.873   5.266   3.524 -0.3256  0.3385  0.0843
13493WAT     H154678   2.880   5.270   3.610  0.6584 -1.4477  0.1280
13493WAT     H254679   2.893   5.183   3.505 -1.0676  0.5439 -1.8096
13493WAT    EPW54680   2.877   5.255   3.534 -0.0970 -0.3259 -0.3996
13494WAT      O54681   0.912   3.035   1.849 -0.6804 -0.0969  0.4703
13494WAT     H154682   0.840   3.075   1.878 -1.3276 -0.4971 -0.5440
13494WAT     H254683   0.894   3.016   1.766  1.7567  2.5492 -0.8359
13494WAT    EPW54684   0.899   3.038   1.841  0.1555 -0.2199 -0.0411
13495WAT      O54685   1.414   2.277   7.257 -0.1493  0.0269  1.1824
13495WAT     H154686   1.371   2.208   7.291  0.8391 -1.3728 -0.2512
13495WAT     H254687   1.431   2.326   7.327 -1.6454 -0.7265  2.1524
13495WAT    EPW54688   1.410   2.274   7.272  0.7633  0.4062 -0.7535
13496WAT      O54689   3.361   2.645   5.088 -0.2803 -0.3514 -0.4965
13496WAT     H154690   3.287   2.610   5.059 -0.2516  0.2180 -1.2966
13496WAT     H254691   3.364   2.722   5.048  0.0877  0.2054  0.5499
13496WAT    EPW54692   3.351   2.651   5.078 -0.3161  1.1060 -0.4789
13497WAT      O54693   3.785   3.844   3.304  0.2541 -0.2190  0.0492
13497WAT     H154694   3.849   3.855   3.245 -0.2630  0.6890 -0.3642
13497WAT     H254695   3.829   3.840   3.380  0.8180  0.3910 -0.2259
13497WAT    EPW54696   3.801   3.845   3.307  0.0946  0.5146 -0.1232
13498WAT      O54697   0.092   7.428   3.660  0.4200 -0.4624  0.4093
13498WAT     H154698   0.006   7.413   3.661  0.6359 -2.8298 -2.4040
13498WAT     H254699   0.121   7.385   3.730 -0.4663 -1.7772  0.0062
13498WAT    EPW54700   0.084   7.419   3.670  0.3890  0.0457 -0.8961
13499WAT      O54701   3.511   3.271   0.557  0.1501  0.3703  0.3301
13499WAT     H154702   3.524   3.279   0.643  1.0419  3.0227  0.0355
13499WAT     H254703   3.584   3.305   0.523 -1.3813  2.0502 -1.4565
13499WAT    EPW54704   3.524   3.277   0.565  0.4525  0.3587 -0.1277
13500WAT      O54705   3.622   0.015   2.180 -0.3007 -0.0312 -0.1563
13500WAT     H154706   3.629   0.098   2.207  0.0605  0.8977 -2.7659
13500WAT     H254707   3.703  -0.005   2.154 -0.2897 -1.3850  0.8369
13500WAT    EPW54708   3.635   0.025   2.180 -0.6387 -0.6714 -0.0684
13501WAT      O54709   1.054   6.115   3.251 -0.4443  0.5156  0.1635
13501WAT     H154710   1.032   6.187   3.207  2.8171  2.4002  1.2567
13501WAT     H254711   1.053   6.052   3.191 -3.0858  1.4464 -0.9026
13501WAT    EPW54712   1.051   6.116   3.236 -0.0975  0.2134 -0.2360
13502WAT      O54713   0.245   0.697   1.115  0.3001  0.1871 -0.4715
13502WAT     H154714   0.256   0.611   1.107 -0.9837  0.0487 -0.9287
13502WAT     H254715   0.216   0.721   1.036 -0.3318  0.8690 -0.0395
13502WAT    EPW54716   0.243   0.688   1.102  0.0414  0.3474  0.3204
13503WAT      O54717   1.251   2.609   2.578  0.5322 -0.2254 -0.1815
13503WAT     H154718   1.272   2.689   2.606  2.0302 -0.4098 -0.6597
13503WAT     H254719   1.165   2.613   2.565  0.4549  1.0528  0.6019
13503WAT    EPW54720   1.242   2.621   2.580 -0.1584 -0.0465  0.1498
13504WAT      O54721   0.755   2.400   4.625  0.2637  0.7249 -0.0159
13504WAT     H154722   0.777   2.461   4.567 -0.5039  0.1041 -1.0083
13504WAT     H254723   0.831   2.379   4.663  0.8848  0.8086 -1.1610
13504WAT    EPW54724   0.770   2.406   4.622  0.3501  0.0053  0.3183
13505WAT      O54725   6.325   5.992   4.798  0.6651  0.1232 -0.2077
13505WAT     H154726   6.372   5.927   4.765  0.8518  0.0173  0.2514
13505WAT     H254727   6.379   6.060   4.795  0.4894  0.2413 -0.6361
13505WAT    EPW54728   6.340   5.992   4.793 -0.7742 -0.3395 -0.1423
13506WAT      O54729   3.727   2.576   1.428 -0.3069  0.4513 -0.8691
13506WAT     H154730   3.668   2.606   1.484 -1.3601 -1.0883 -1.0979
13506WAT     H254731   3.717   2.627   1.358  0.5271  1.9227  0.0571
13506WAT    EPW54732   3.717   2.588   1.426 -0.1362 -1.0212  0.0588
13507WAT      O54733   3.058   6.792   0.506  0.4667  0.0175  0.1309
13507WAT     H154734   3.089   6.714   0.481  0.5405 -0.8921  2.7641
13507WAT     H254735   2.971   6.781   0.503  0.4633  0.1805 -0.4479
13507WAT    EPW54736   3.049   6.779   0.502 -0.8415 -0.1365 -0.0778
13508WAT      O54737   3.099   7.661   7.445 -0.3457  0.2247  0.1090
13508WAT     H154738   3.021   7.646   7.410  0.4903  1.0106 -2.3063
13508WAT     H254739   3.140   7.707   7.384  2.4994 -1.3150  0.6991
13508WAT    EPW54740   3.094   7.666   7.431 -0.1409  0.1742 -0.0415
13509WAT      O54741   1.466   6.708   6.951  1.0137 -0.0185  0.1740
13509WAT     H154742   1.546   6.678   6.936  1.1390  0.0627  0.6766
13509WAT     H254743   1.439   6.663   7.021  0.2126 -0.8096 -0.6027
13509WAT    EPW54744   1.474   6.697   6.959 -0.5943  0.1962 -0.3259
13510WAT      O54745   2.921   5.781   5.659 -0.2444 -0.5207  0.7221
13510WAT     H154746   2.992   5.745   5.695 -0.5921 -0.6007  1.3518
13510WAT     H254747   2.902   5.727   5.593  1.8716  0.9892 -1.2698
13510WAT    EPW54748   2.929   5.767   5.655 -0.0015 -0.0737  0.6980
13511WAT      O54749   1.415   1.988   7.339  0.2125 -0.4390 -0.3446
13511WAT     H154750   1.431   1.914   7.382  0.9723 -0.7612 -1.1502
13511WAT     H254751   1.494   2.011   7.308  0.1019  1.0120  0.3550
13511WAT    EPW54752   1.429   1.981   7.341 -0.0778  0.1698 -0.6378
13512WAT      O54753   4.281   7.506   5.052 -0.0792 -0.2555 -0.4426
13512WAT     H154754   4.239   7.516   5.128 -1.9908 -0.0582 -1.4670
13512WAT     H254755   4.358   7.473   5.076 -0.1420  0.9020  1.6757
13512WAT    EPW54756   4.286   7.503   5.067 -0.2540  0.2681 -0.6791
13513WAT      O54757   2.062   0.949   4.687 -0.1149 -0.3046  0.3215
13513WAT     H154758   2.083   0.920   4.766  0.2918 -1.0917 -0.0668
13513WAT     H254759   2.131   0.929   4.638 -0.5543 -0.2500 -0.3330
13513WAT    EPW54760   2.075   0.942   4.691 -0.0546 -0.2159  0.0278
13514WAT      O54761   1.898   2.208   5.260 -0.0784 -0.0060  0.4105
13514WAT     H154762   1.917   2.222   5.176  0.4727 -0.7543  0.3979
13514WAT     H254763   1.842   2.142   5.258  1.2250 -1.1669  0.6932
13514WAT    EPW54764   1.892   2.201   5.247 -0.2000  0.4566 -0.0706
13515WAT      O54765   5.588   4.358   5.784 -0.0521  0.6432 -0.2428
13515WAT     H154766   5.533   4.292   5.801  0.2203  0.3766 -0.3996
13515WAT     H254767   5.663   4.332   5.820  0.5421  0.0720 -1.8056
13515WAT    EPW54768   5.591   4.344   5.792  0.7685 -0.2440 -0.1568
13516WAT      O54769   1.907   1.410   8.010 -0.0415  0.5785 -0.1314
13516WAT     H154770   1.924   1.485   8.051  1.4186 -0.5026  1.3989
13516WAT     H254771   1.825   1.420   7.982 -0.3334  2.2615  1.1374
13516WAT    EPW54772   1.897   1.422   8.012 -0.1592 -0.2274 -0.6532
13517WAT      O54773   2.421   2.142   5.336  0.8140 -0.1795  0.0973
13517WAT     H154774   2.453   2.087   5.277  1.6228 -0.1095  0.4664
13517WAT     H254775   2.338   2.153   5.310  1.1031 -0.2807 -0.9141
13517WAT    EPW54776   2.413   2.136   5.324 -0.1445  0.3089  0.3767
13518WAT      O54777   4.201   7.413   3.552 -0.1181 -0.1480  0.2516
13518WAT     H154778   4.157   7.486   3.530  1.3760  1.1857  1.4546
13518WAT     H254779   4.277   7.422   3.509  0.0094 -1.0935  0.2692
13518WAT    EPW54780   4.206   7.425   3.542 -0.1359  0.0073 -0.1447
13519WAT      O54781   7.136   6.857   3.023 -0.2130  0.5522 -0.8525
13519WAT     H154782   7.121   6.860   3.109  0.4889 -1.1585 -0.6326
13519WAT     H254783   7.153   6.940   3.002 -0.8614  1.0735  0.5581
13519WAT    EPW54784   7.136   6.870   3.032 -0.1824 -0.2515 -0.5893
13520WAT      O54785   1.917   7.965   6.257  0.0184  0.0236 -0.2885
13520WAT     H154786   1.916   7.946   6.342  1.9076 -1.1416 -0.4891
13520WAT     H254787   1.899   7.889   6.218 -0.5787  0.4907 -0.9597
13520WAT    EPW54788   1.914   7.951   6.264 -0.6539  0.3919 -0.2399
13521WAT      O54789   0.757   6.704   3.040  0.0183  0.2504  0.2198
13521WAT     H154790   0.693   6.732   2.988 -0.1070  0.4523  0.4779
13521WAT     H254791   0.728   6.626   3.068 -0.1250  0.3504  0.3522
13521WAT    EPW54792   0.743   6.696   3.037 -0.3517  0.4577 -0.0621
13522WAT      O54793   3.407   3.558   2.803 -0.1290 -0.2499  0.2246
13522WAT     H154794   3.426   3.557   2.888 -2.0950  1.9467  0.8065
13522WAT     H254795   3.459   3.620   2.771  0.6149 -1.0782 -0.2132
13522WAT    EPW54796   3.417   3.567   2.811 -0.0784 -0.2305  0.3281
13523WAT      O54797   2.312   3.071   3.279 -0.4025 -0.4789 -0.2891
13523WAT     H154798   2.280   3.149   3.258  0.9305 -0.2403 -1.6019
13523WAT     H254799   2.362   3.087   3.348 -2.6567 -0.7901  1.5292
13523WAT    EPW54800   2.315   3.085   3.286  0.8312  0.0802  0.3131
13524WAT      O54801   7.646   3.354   0.868 -0.5578  0.1411 -0.4688
13524WAT     H154802   7.643   3.441   0.872 -1.4091  0.0750  1.9085
13524WAT     H254803   7.729   3.335   0.885 -0.7771  0.4828  1.1535
13524WAT    EPW54804   7.658   3.364   0.871  0.5078 -0.1372 -0.7523
13525WAT      O54805   0.098   3.925   2.916  0.3851 -0.3678 -0.6974
13525WAT     H154806   0.176   3.960   2.899  0.2102 -0.6109 -2.0503
13525WAT     H254807   0.057   3.988   2.961  1.9288 -0.8756  1.5916
13525WAT    EPW54808   0.103   3.939   2.920 -0.2502 -0.6386 -0.5450
13526WAT      O54809   3.126   7.346   3.208 -0.0293  0.3698 -0.0737
13526WAT     H154810   3.040   7.348   3.220 -0.2474  0.0721 -1.3867
13526WAT     H254811   3.135   7.338   3.121  1.2830 -1.2815  0.1589
13526WAT    EPW54812   3.115   7.345   3.197  0.0643  0.0919 -0.5071
13527WAT      O54813   4.254   7.183   6.196 -0.4294 -0.0732 -0.3609
13527WAT     H154814   4.209   7.255   6.214 -1.1036 -0.6762  0.4154
13527WAT     H254815   4.318   7.212   6.143 -0.7288  1.0685 -0.1268
13527WAT    EPW54816   4.257   7.198   6.191 -0.2187  0.5446 -0.3785
13528WAT      O54817   1.151   3.315   5.358 -0.0797 -0.2084 -0.3727
13528WAT     H154818   1.172   3.389   5.399 -0.5217 -0.2883  0.0044
13528WAT     H254819   1.079   3.336   5.314 -0.0143 -0.3244 -0.5376
13528WAT    EPW54820   1.144   3.329   5.358  0.2554 -0.4175  0.0192
13529WAT      O54821   1.365   5.897   3.925 -0.0471 -0.2217  0.4182
13529WAT     H154822   1.431   5.916   3.871 -1.4688 -0.3228 -1.4321
13529WAT     H254823   1.365   5.965   3.981  0.6076  0.5944 -0.5277
13529WAT    EPW54824   1.375   5.910   3.925  0.2887 -0.0397 -0.2036
13530WAT      O54825   0.982   6.126   1.128  0.1145  0.1890  0.5428
13530WAT     H154826   1.061   6.158   1.109  0.0640  1.0074  1.6491
13530WAT     H254827   0.934   6.197   1.143 -0.6853 -0.3264  0.4621
13530WAT    EPW54828   0.987   6.141   1.127  0.2009 -0.0309 -0.5244
13531WAT      O54829   2.764   1.495   2.744  0.1779 -0.5895 -0.1137
13531WAT     H154830   2.830   1.537   2.782 -1.1799  1.0122  0.6407
13531WAT     H254831   2.727   1.450   2.809 -0.2313 -0.4228 -0.2235
13531WAT    EPW54832   2.768   1.495   2.759  0.4756  0.1063  0.2263
13532WAT      O54833   0.152   7.796   4.416  0.2135  0.4838  0.0463
13532WAT     H154834   0.112   7.732   4.460  0.1998  0.3078 -0.2172
13532WAT     H254835   0.235   7.772   4.417  0.2073  0.4564 -0.0588
13532WAT    EPW54836   0.158   7.783   4.422 -0.6526  0.0901 -0.4436
13533WAT      O54837   1.086   1.085   4.041  0.0739 -0.1365 -0.2373
13533WAT     H154838   1.145   1.130   4.087  0.4515  1.4354 -2.1235
13533WAT     H254839   1.021   1.142   4.030 -0.2409 -0.6682 -1.1938
13533WAT    EPW54840   1.085   1.100   4.047 -0.2252  0.3908  0.0985
13534WAT      O54841   1.711   4.031   5.153  0.1709 -0.2560  0.2081
13534WAT     H154842   1.726   4.102   5.106  0.6846 -1.2775 -1.2310
13534WAT     H254843   1.627   4.039   5.177  0.3391  1.0076  0.4308
13534WAT    EPW54844   1.701   4.042   5.150  0.3878 -0.1933 -0.1881
13535WAT      O54845   1.586   7.853   1.867 -0.3529 -0.5208 -0.1407
13535WAT     H154846   1.634   7.902   1.814 -1.6462  0.6177 -0.3106
13535WAT     H254847   1.597   7.889   1.945  2.7538 -3.0795  0.8230
13535WAT    EPW54848   1.595   7.865   1.871  0.6903  0.2489 -0.4764
13536WAT      O54849   0.995   5.442   3.744  0.0488  0.3670  0.6972
13536WAT     H154850   1.059   5.387   3.721 -1.3329 -0.6018 -1.1114
13536WAT     H254851   0.983   5.491   3.672  0.1432  1.9478  1.7213
13536WAT    EPW54852   1.003   5.441   3.730 -0.6814  0.2605  0.4419
13537WAT      O54853   7.842   0.556   2.446  0.5352 -0.1072  0.1077
13537WAT     H154854   7.837   0.581   2.529  0.4787 -1.3515  0.5031
13537WAT     H254855   7.875   0.626   2.405 -1.1862  1.1925  0.8249
13537WAT    EPW54856   7.846   0.570   2.452  0.5601  0.0779 -0.0441
13538WAT      O54857   0.083   3.371   4.909  0.9354  0.3259  0.4933
13538WAT     H154858   0.003   3.348   4.884  1.8014 -1.3343 -0.9209
13538WAT     H254859   0.103   3.437   4.856  1.0123 -0.1762 -0.1158
13538WAT    EPW54860   0.075   3.377   4.898  0.4371  0.3003  0.5624
13539WAT      O54861   6.260   4.345   2.054  0.4379 -0.5622 -0.5795
13539WAT     H154862   6.220   4.311   2.123 -0.2679  1.0987 -0.0949
13539WAT     H254863   6.334   4.301   2.048 -0.2938 -1.9424  0.1391
13539WAT    EPW54864   6.265   4.334   2.063 -0.1081  0.1218 -0.4703
13540WAT      O54865   1.742   3.882   1.616 -0.2931  0.4743 -0.4242
13540WAT     H154866   1.794   3.895   1.685  0.7019  1.2694 -1.3057
13540WAT     H254867   1.701   3.959   1.607 -0.7629  0.2268 -0.4515
13540WAT    EPW54868   1.743   3.895   1.625  0.2035  0.3467  0.5947
13541WAT      O54869   4.564   0.238   1.848  0.5309  0.0993  0.2609
13541WAT     H154870   4.588   0.297   1.789  0.7277 -1.0233 -0.8129
13541WAT     H254871   4.479   0.253   1.858  0.7603  1.1900  0.7483
13541WAT    EPW54872   4.555   0.249   1.841  0.0174  0.2783 -0.0436
13542WAT      O54873   2.820   0.044   4.443  0.8358 -0.1173  0.4130
13542WAT     H154874   2.736   0.040   4.465  0.8410 -1.4024  0.2809
13542WAT     H254875   2.823   0.002   4.366  1.4477  0.7982 -0.0843
13542WAT    EPW54876   2.808   0.037   4.435  0.4803  0.3044  0.4201
13543WAT      O54877   7.933   3.253   4.857 -0.1453 -0.4715 -0.2656
13543WAT     H154878   7.920   3.223   4.777 -0.1609 -0.5258 -0.2426
13543WAT     H254879   7.853   3.277   4.883  0.0233  0.6388 -0.6998
13543WAT    EPW54880   7.919   3.252   4.849  0.5563 -0.1157 -0.2305
13544WAT      O54881   4.258   2.963   4.879 -0.2400 -0.5523 -0.2123
13544WAT     H154882   4.216   2.898   4.919  1.6596 -1.3409  0.6151
13544WAT     H254883   4.263   2.937   4.797 -0.3590 -0.9699 -0.0884
13544WAT    EPW54884   4.252   2.950   4.873  0.2327  0.0140  0.0269
13545WAT      O54885   7.161   3.924   1.700 -0.2975  0.1794  0.4010
13545WAT     H154886   7.139   4.008   1.706 -0.3918  0.1133  1.1000
13545WAT     H254887   7.215   3.912   1.767  1.9093  0.3130 -1.2395
13545WAT    EPW54888   7.165   3.934   1.711  0.6186 -0.3911 -0.0972
13546WAT      O54889   4.939   1.847   5.907 -0.3606 -0.1660  0.2641
13546WAT     H154890   4.968   1.774   5.869 -1.1394 -0.2178 -0.2760
13546WAT     H254891   4.855   1.829   5.924 -1.0929  1.1880 -1.5249
13546WAT    EPW54892   4.931   1.834   5.904  0.5183  0.1971  0.5655
13547WAT      O54893   5.938   7.345   5.513 -0.0193  0.4693 -0.1836
13547WAT     H154894   5.866   7.395   5.515  0.0530  0.5633  0.8506
13547WAT     H254895   5.916   7.276   5.561 -0.1337 -0.5586 -1.6404
13547WAT    EPW54896   5.924   7.342   5.520 -0.0275  0.3725 -0.0719
13548WAT      O54897   0.317   4.090   2.854 -0.2518  0.5122 -0.0076
13548WAT     H154898   0.289   4.102   2.772  1.5077 -0.8413 -0.8995
13548WAT     H254899   0.342   4.169   2.879  0.0963  0.8003 -1.1812
13548WAT    EPW54900   0.317   4.103   2.845 -0.0474 -0.0015  0.1132
13549WAT      O54901   7.291   1.004   3.680 -0.1065  0.4689  0.2014
13549WAT     H154902   7.259   1.081   3.655  0.1729  0.4805 -0.1351
13549WAT     H254903   7.237   0.947   3.642  0.6350  0.4774 -0.9087
13549WAT    EPW54904   7.278   1.007   3.670  0.6673 -0.7222  0.4632
13550WAT      O54905   2.929   5.758   1.972 -0.5771 -0.1957  0.1010
13550WAT     H154906   2.988   5.823   1.970 -0.3648 -0.4079 -1.4380
13550WAT     H254907   2.946   5.718   2.048  0.5586  0.4004  0.1853
13550WAT    EPW54908   2.940   5.761   1.983  0.0207  0.1300 -0.0682
13551WAT      O54909   5.653   1.587   1.676 -0.4814  0.2250  0.4265
13551WAT     H154910   5.727   1.547   1.653 -0.3834  0.3667  0.4973
13551WAT     H254911   5.602   1.578   1.606 -0.4764 -0.0622  0.4544
13551WAT    EPW54912   5.657   1.580   1.662 -0.3246  0.1892  0.1072
13552WAT      O54913   2.798   7.554   4.320 -0.4897 -0.3891 -0.1080
13552WAT     H154914   2.766   7.485   4.364 -0.9518  0.1799  0.4715
13552WAT     H254915   2.880   7.560   4.350 -0.4538 -0.6778 -0.1455
13552WAT    EPW54916   2.806   7.545   4.331  0.5009  0.3827 -0.2573
13553WAT      O54917   4.931   2.968   1.397 -0.3437 -0.1400  0.0590
13553WAT     H154918   4.904   3.045   1.427 -0.6139 -0.4522  0.6245
13553WAT     H254919   4.892   2.910   1.450 -0.2820 -0.6711 -0.4671
13553WAT    EPW54920   4.921   2.971   1.409  0.0815  0.8139  0.2235
13554WAT      O54921   3.059   1.167   2.041  0.5344  0.2539 -0.9051
13554WAT     H154922   3.035   1.212   1.970  0.9008  1.1445 -0.4727
13554WAT     H254923   3.142   1.192   2.054 -0.0459  1.4323  0.8276
13554WAT    EPW54924   3.068   1.177   2.032  0.1605  0.2505 -0.0669
13555WAT      O54925   1.711   2.826   5.175 -0.7176  0.4253  0.2220
13555WAT     H154926   1.753   2.805   5.102  1.6357 -0.7023  1.7650
13555WAT     H254927   1.720   2.913   5.180  1.4442  0.2363  0.4314
13555WAT    EPW54928   1.719   2.836   5.165 -0.3785 -0.3867 -0.2251
13556WAT      O54929   7.278   1.579   1.224  0.0556  0.2986  0.5336
13556WAT     H154930   7.198   1.591   1.255 -0.6270  2.8387 -1.8541
13556WAT     H254931   7.329   1.601   1.291 -1.2379  0.1714  1.5968
13556WAT    EPW54932   7.274   1.584   1.239 -0.8326 -0.5646 -0.1431
13557WAT      O54933   1.084   2.004   2.410  0.5051 -0.5728  0.0888
13557WAT     H154934   1.115   2.064   2.466 -0.5019  0.3046 -0.2467
13557WAT     H254935   1.035   1.952   2.461  0.2688 -0.2784  0.1661
13557WAT    EPW54936   1.081   2.005   2.426 -0.0059  0.4855  0.2122
13558WAT      O54937   1.204   4.849   5.222  0.5554 -0.1868  0.1987
13558WAT     H154938   1.215   4.909   5.160  2.1256  0.1110  0.6969
13558WAT     H254939   1.129   4.872   5.260  0.8669  1.1765  0.0469
13558WAT    EPW54940   1.195   4.861   5.219 -0.0754 -0.2017 -0.4778
13559WAT      O54941   1.469   2.748   0.647  0.0008 -0.1209  0.4912
13559WAT     H154942   1.438   2.681   0.601  1.3220  0.0815 -0.7634
13559WAT     H254943   1.420   2.815   0.621  1.1644  0.1361 -1.2430
13559WAT    EPW54944   1.457   2.748   0.636 -0.3359  0.0368 -0.1264
13560WAT      O54945   3.665   7.888   6.480 -0.1280 -0.5554 -0.1247
13560WAT     H154946   3.660   7.970   6.510 -1.9247  0.1000 -1.9687
13560WAT     H254947   3.695   7.898   6.398  2.6096 -2.0822  0.5349
13560WAT    EPW54948   3.669   7.902   6.472 -0.3829  0.1930  0.5226
13561WAT      O54949   1.839   2.361   3.276 -0.0734  0.1069  0.1001
13561WAT     H154950   1.905   2.417   3.286  0.6747 -0.6658 -0.4147
13561WAT     H254951   1.858   2.319   3.202 -0.6429 -0.8020  0.4508
13561WAT    EPW54952   1.851   2.363   3.267  0.2197  0.6043 -0.0213
13562WAT      O54953   4.506   1.489   7.070  0.6414  0.2918  0.0698
13562WAT     H154954   4.508   1.457   7.151 -3.2269  2.0908  1.1345
13562WAT     H254955   4.553   1.562   7.075  0.4506  0.3767  0.7381
13562WAT    EPW54956   4.513   1.495   7.083  0.2482  0.3184 -0.1880
13563WAT      O54957   2.637   3.857   5.842  0.1088 -0.0743  0.2643
13563WAT     H154958   2.712   3.813   5.847  0.8988  1.0740 -0.8094
13563WAT     H254959   2.590   3.811   5.785  0.2610 -0.4231  0.4169
13563WAT    EPW54960   2.641   3.844   5.834 -0.2908  0.0977  0.0001
13564WAT      O54961   2.638   2.735   3.454 -0.5027  0.2920 -0.1141
13564WAT     H154962   2.695   2.718   3.518 -0.4197 -1.2334 -0.5431
13564WAT     H254963   2.571   2.772   3.495  0.1196  0.5903  0.6493
13564WAT    EPW54964   2.637   2.738   3.469  0.1557 -0.2838 -0.5515
13565WAT      O54965   1.407   0.553   1.575 -0.4068  0.1983 -0.3496
13565WAT     H154966   1.407   0.640   1.580  0.5145  0.2148 -0.4405
13565WAT     H254967   1.365   0.537   1.500  1.4361  0.6917 -1.5648
13565WAT    EPW54968   1.401   0.563   1.564  0.2324  0.1987  0.0536
13566WAT      O54969   7.509   2.953   3.303 -0.1849 -0.1752  0.1762
13566WAT     H154970   7.594   2.956   3.321 -0.6071 -0.7479  2.4925
13566WAT     H254971   7.507   2.955   3.215  2.2892 -1.8402 -0.0190
13566WAT    EPW54972   7.521   2.954   3.292 -0.4172  0.1895  0.2564
13567WAT      O54973   4.844   6.526   4.350  0.1059 -0.0270  0.3566
13567WAT     H154974   4.817   6.608   4.347  2.2668  0.7336 -2.1463
13567WAT     H254975   4.913   6.529   4.403  1.5033  0.3532 -1.3636
13567WAT    EPW54976   4.850   6.538   4.357  0.6869 -0.2928  0.4783
13568WAT      O54977   1.096   3.263   4.963  0.4810 -0.1583 -0.3509
13568WAT     H154978   1.078   3.178   4.972 -2.4039  0.3021 -1.0531
13568WAT     H254979   1.054   3.300   5.029  0.3909  0.8747 -0.9689
13568WAT    EPW54980   1.087   3.256   4.974 -0.0262 -0.2242 -0.1841
13569WAT      O54981   2.928   5.296   1.168 -0.1307 -0.6388 -0.4432
13569WAT     H154982   2.946   5.256   1.243  1.3282 -1.1600 -1.0421
13569WAT     H254983   2.982   5.259   1.110 -1.6790 -0.7357 -1.9308
13569WAT    EPW54984   2.939   5.285   1.170  0.5045  0.4028  0.6042
13570WAT      O54985   4.806   3.994   1.110  0.2572 -0.4750  0.2626
13570WAT     H154986   4.755   3.976   1.179 -0.8733  0.0871 -0.3971
13570WAT     H254987   4.780   3.936   1.050  0.3330 -0.1392 -0.1000
13570WAT    EPW54988   4.794   3.983   1.112 -0.0494 -0.6500 -0.5334
13571WAT      O54989   2.966   3.065   5.111 -0.0408 -0.1824 -0.0997
13571WAT     H154990   2.941   3.068   5.195  0.4024 -1.6629  0.1216
13571WAT     H254991   2.941   2.986   5.085 -1.7915  0.8843 -1.9456
13571WAT    EPW54992   2.959   3.054   5.120 -0.4426 -0.5045  0.6946
13572WAT      O54993   3.776   0.502   6.560 -0.7703  0.2469  0.2164
13572WAT     H154994   3.706   0.478   6.606 -1.1177  1.3620  0.2886
13572WAT     H254995   3.807   0.571   6.603 -0.9293  1.1351 -1.0250
13572WAT    EPW54996   3.770   0.509   6.573 -0.1241 -0.6486 -0.0200
13573WAT      O54997   2.429   4.909   4.789 -0.0931  0.5745 -0.1544
13573WAT     H154998   2.390   4.981   4.818 -0.9470  0.1450 -0.1773
13573WAT     H254999   2.471   4.935   4.718  1.5566  1.5293  1.1057
13573WAT    EPW55000   2.429   4.923   4.783  0.0327  0.1778 -0.6590
13574WAT      O55001   2.059   1.988   3.941  0.1029  0.0143 -0.1399
13574WAT     H155002   2.037   1.908   3.913 -1.0746 -0.5967  2.3351
13574WAT     H255003   1.982   2.029   3.948  0.7534  2.2064 -3.2774
13574WAT    EPW55004   2.044   1.983   3.938 -0.3654 -0.5034 -0.3242
13575WAT      O55005   7.263   5.012   3.970 -0.0173  0.4759  0.1918
13575WAT     H155006   7.176   5.006   3.959  0.1434  0.6459 -1.5072
13575WAT     H255007   7.295   4.958   3.909  1.0800 -0.6237  1.6815
13575WAT    EPW55008   7.255   5.004   3.959 -0.0411 -0.4762 -0.5864
13576WAT      O55009   1.779   4.342   6.144  0.3885  0.2640  0.1514
13576WAT     H155010   1.722   4.349   6.209 -0.0379 -1.0892 -0.0423
13576WAT     H255011   1.773   4.258   6.121  1.7002  0.3435 -0.5658
13576WAT    EPW55012   1.770   4.330   6.150 -0.3612  0.2269  1.1034
13577WAT      O55013   0.281   3.602   4.237 -0.2131  0.1871 -0.2704
13577WAT     H155014   0.367   3.597   4.247 -0.3407 -0.9819  0.4804
13577WAT     H255015   0.259   3.524   4.204 -0.8988  0.7749 -1.2820
13577WAT    EPW55016   0.290   3.589   4.234  0.0255  0.4215  0.5380
13578WAT      O55017   7.245   4.695   2.577  0.4963 -0.2093 -0.5859
13578WAT     H155018   7.161   4.677   2.592  0.6606 -0.7903 -0.3219
13578WAT     H255019   7.288   4.635   2.624  1.0507 -0.3269 -1.2190
13578WAT    EPW55020   7.239   4.683   2.586  0.3960  0.2002 -0.3363
13579WAT      O55021   0.891   2.401   2.497  0.5280  0.6180 -0.4639
13579WAT     H155022   0.815   2.389   2.537 -0.5545 -0.3702 -2.6569
13579WAT     H255023   0.891   2.486   2.477  0.1009  0.6702 -0.2383
13579WAT    EPW55024   0.880   2.412   2.500  0.2029 -0.7996  0.0260
13580WAT      O55025   1.070   2.256   3.983  0.1941 -0.3611 -0.5909
13580WAT     H155026   1.068   2.249   4.070 -0.5710  1.3801 -0.4125
13580WAT     H255027   0.987   2.241   3.960  0.4663 -1.1651 -1.0598
13580WAT    EPW55028   1.057   2.253   3.992 -0.0554  0.7783 -0.2428
13581WAT      O55029   1.390   2.276   0.511  0.5143 -0.0562  0.2304
13581WAT     H155030   1.413   2.212   0.566  1.6121  0.0220 -0.1277
13581WAT     H255031   1.303   2.266   0.505  0.6396 -1.4318  0.2784
13581WAT    EPW55032   1.380   2.265   0.518  0.1626  0.6155  0.0030
13582WAT      O55033   4.603   0.654   5.560  0.2289  0.2203 -0.5343
13582WAT     H155034   4.636   0.621   5.486  0.7195 -1.0676  0.2273
13582WAT     H255035   4.649   0.614   5.622 -1.9849 -0.8133  0.5488
13582WAT    EPW55036   4.615   0.643   5.558 -0.1775 -0.0064 -0.3022
13583WAT      O55037   7.913   4.846   0.912 -0.4285 -0.2586 -0.0284
13583WAT     H155038   7.894   4.774   0.866  0.0886  0.3826 -1.2744
13583WAT     H255039   7.846   4.899   0.896 -0.7710 -0.4019  0.8343
13583WAT    EPW55040   7.900   4.843   0.903 -0.1639 -0.1319 -0.0405
13584WAT      O55041   3.341   0.574   4.474 -0.9336 -0.1152  0.3702
13584WAT     H155042   3.298   0.619   4.535 -0.0541  1.4483 -0.1263
13584WAT     H255043   3.350   0.630   4.409  0.4624 -0.9101 -0.1591
13584WAT    EPW55044   3.336   0.589   4.474 -0.1414 -0.0364 -0.5244
13585WAT      O55045   6.739   2.174   3.277 -0.2376 -0.4025  0.1212
13585WAT     H155046   6.674   2.230   3.259 -0.4983 -0.1652  1.6202
13585WAT     H255047   6.794   2.223   3.325  1.1098 -0.5778 -1.1703
13585WAT    EPW55048   6.738   2.190   3.282 -0.0293 -0.6739  0.1531
13586WAT      O55049   2.390   1.714   5.303  0.0658 -0.3474  0.0729
13586WAT     H155050   2.354   1.634   5.304  0.8185 -0.7091  2.0488
13586WAT     H255051   2.403   1.732   5.387  3.1451  0.3615 -0.4245
13586WAT    EPW55052   2.387   1.705   5.316  0.0830 -0.3341 -0.4736
13587WAT      O55053   1.667   1.833   4.817  0.2753  0.0951  0.4809
13587WAT     H155054   1.629   1.869   4.887 -1.8673 -0.8732 -0.1057
13587WAT     H255055   1.602   1.826   4.760  0.6444 -3.9890  0.2964
13587WAT    EPW55056   1.652   1.837   4.819 -0.7199 -0.2294  0.4922
13588WAT      O55057   2.600   3.841   4.293  0.0903 -0.6824  0.2234
13588WAT     H155058   2.631   3.821   4.214  1.6789  2.8226 -0.2460
13588WAT     H255059   2.671   3.840   4.344 -0.2636  0.4816  0.7769
13588WAT    EPW55060   2.615   3.838   4.289  0.1442 -0.1293  0.5855
13589WAT      O55061   3.008   6.743   5.279 -0.4889  0.6109 -0.1341
13589WAT     H155062   3.063   6.753   5.346 -0.3724  2.0465 -0.4099
13589WAT     H255063   2.933   6.719   5.318 -0.0822  0.1250  0.3751
13589WAT    EPW55064   3.005   6.741   5.295 -0.1119  0.1785 -0.3612
13590WAT      O55065   0.192   1.701   4.221  0.2734 -0.0134 -0.8695
13590WAT     H155066   0.176   1.714   4.306 -0.9496  0.2925 -1.1325
13590WAT     H255067   0.246   1.633   4.221 -1.9203 -1.8958  0.0823
13590WAT    EPW55068   0.198   1.693   4.233  0.5888 -0.3880  0.5550
13591WAT      O55069   2.876   1.310   7.822 -0.1283 -0.0576  0.5847
13591WAT     H155070   2.953   1.345   7.845 -0.0847  0.5094 -0.3647
13591WAT     H255071   2.820   1.346   7.878  0.1373  0.3764  0.5738
13591WAT    EPW55072   2.879   1.320   7.834  0.5792  0.1142  0.0523
13592WAT      O55073   0.730   6.508   2.766  0.0197  0.0335 -0.3303
13592WAT     H155074   0.714   6.590   2.741 -0.2791 -0.0740 -0.4932
13592WAT     H255075   0.762   6.470   2.695 -0.8653 -0.2839 -0.5770
13592WAT    EPW55076   0.732   6.514   2.752  0.2146 -0.3009  0.6369
13593WAT      O55077   2.122   4.948   5.695  0.5668 -0.2748 -0.2505
13593WAT     H155078   2.208   4.945   5.705  0.5222 -1.6499 -0.0898
13593WAT     H255079   2.099   4.864   5.688 -0.8835 -0.0115  0.7955
13593WAT    EPW55080   2.131   4.935   5.695  0.1101  0.3515 -0.4570
13594WAT      O55081   2.304   0.636   5.206 -0.2408  0.4669  0.1273
13594WAT     H155082   2.251   0.570   5.186  0.6060  0.3555 -2.0800
13594WAT     H255083   2.358   0.601   5.265  1.5000 -1.6090 -2.4624
13594WAT    EPW55084   2.304   0.621   5.212 -0.4365  0.4836  0.0219
13595WAT      O55085   0.510   0.932   2.864 -0.2440  0.0944 -0.3080
13595WAT     H155086   0.550   0.969   2.796 -0.5768  0.4667 -0.3071
13595WAT     H255087   0.518   0.991   2.928  1.0848 -0.7343  0.3401
13595WAT    EPW55088   0.517   0.946   2.864 -0.0253 -0.1435  0.0588
13596WAT      O55089   2.473   2.254   4.835 -0.0929  0.0566  0.0182
13596WAT     H155090   2.516   2.181   4.858 -0.4264  0.4660  2.1706
13596WAT     H255091   2.497   2.267   4.752  0.1586 -2.3573 -0.3486
13596WAT    EPW55092   2.483   2.245   4.826 -0.4756  0.5610 -0.4852
13597WAT      O55093   3.182   0.990   2.914 -0.0302  0.4795  0.4070
13597WAT     H155094   3.172   1.068   2.951  0.9493 -0.1735  2.1792
13597WAT     H255095   3.103   0.971   2.882 -0.6186  1.6028  1.1521
13597WAT    EPW55096   3.169   0.999   2.914 -0.1607  0.3499  0.2574
13598WAT      O55097   3.704   2.795   2.162 -0.3865  0.4976 -0.5579
13598WAT     H155098   3.719   2.838   2.236 -0.7900 -0.1250 -0.1064
13598WAT     H255099   3.668   2.721   2.189  0.6934 -0.3244 -1.2812
13598WAT    EPW55100   3.701   2.790   2.177 -0.5768  0.1046  0.3202
13599WAT      O55101   3.079   1.244   0.231  0.1833  0.0844  0.0904
13599WAT     H155102   3.024   1.312   0.235  0.0524  0.3961 -3.3969
13599WAT     H255103   3.029   1.176   0.253 -0.5967  0.7864  0.5213
13599WAT    EPW55104   3.063   1.244   0.235 -0.3225  0.0631 -0.4791
13600WAT      O55105   0.956   7.236   4.708 -0.3903  0.4882 -0.5781
13600WAT     H155106   0.915   7.268   4.638 -0.8054  3.3262  0.8305
13600WAT     H255107   0.904   7.259   4.775  0.1404 -1.8424  0.7526
13600WAT    EPW55108   0.942   7.244   4.708  0.1079 -0.1225 -0.0287
13601WAT      O55109   3.443   0.419   2.445  0.0974  0.0855 -0.0233
13601WAT     H155110   3.394   0.392   2.512  0.1602  0.8208  0.3389
13601WAT     H255111   3.391   0.411   2.376  0.0788 -0.8210  0.0898
13601WAT    EPW55112   3.428   0.414   2.445  0.0319 -0.1327 -0.1033
13602WAT      O55113   4.357   1.954   1.201  0.0626 -0.2070  0.6153
13602WAT     H155114   4.432   1.946   1.245  0.1582 -0.1298  0.4679
13602WAT     H255115   4.297   1.920   1.255  0.3216 -1.0145  0.3990
13602WAT    EPW55116   4.359   1.948   1.216  0.1555  0.0993 -0.3465
13603WAT      O55117   0.061   3.561   4.440 -0.8069 -0.3205 -0.4275
13603WAT     H155118   0.017   3.634   4.421  0.3830  0.4436 -0.2936
13603WAT     H255119   0.132   3.565   4.390 -0.1772 -0.8418  0.3902
13603WAT    EPW55120   0.065   3.572   4.430  0.5173 -0.3507 -0.1507
13604WAT      O55121   6.770   6.217   1.124 -0.1234  0.1482 -0.2715
13604WAT     H155122   6.755   6.283   1.178  0.2269  1.0005 -1.1944
13604WAT     H255123   6.774   6.254   1.045  1.9328 -0.6811 -0.6299
13604WAT    EPW55124   6.768   6.232   1.120  0.0019 -0.3040  0.4804
13605WAT      O55125   2.520   8.058   3.398  0.1027 -0.2703 -0.4875
13605WAT     H155126   2.543   7.983   3.437 -2.0328  0.4412  2.5072
13605WAT     H255127   2.476   8.032   3.327 -0.1487 -1.8404  0.2024
13605WAT    EPW55128   2.517   8.043   3.393  0.6371 -0.8168 -0.6626
13606WAT      O55129   2.070   7.241   4.079 -0.8379  0.1576  0.0241
13606WAT     H155130   2.110   7.207   4.010  1.0194  1.8958  0.1450
13606WAT     H255131   2.096   7.190   4.145  1.1115  1.0816  0.0594
13606WAT    EPW55132   2.080   7.229   4.079  0.0127  0.0904 -0.0568
13607WAT      O55133   1.398   0.964   4.575  0.2021  0.2850 -0.2719
13607WAT     H155134   1.338   0.991   4.517  0.6765  0.9000 -0.4930
13607WAT     H255135   1.405   1.032   4.629  0.3372  0.0184  0.0464
13607WAT    EPW55136   1.390   0.978   4.574 -0.1315  0.5293  0.1263
13608WAT      O55137   7.508   1.564   4.836 -0.6985  0.1279 -0.4606
13608WAT     H155138   7.581   1.598   4.803  0.4088 -2.0767 -0.4506
13608WAT     H255139   7.520   1.478   4.828 -2.1160 -0.4008  2.0272
13608WAT    EPW55140   7.520   1.557   4.830 -0.4129 -0.4787 -0.0174
13609WAT      O55141   7.179   2.228   2.442  0.5232 -0.4812 -0.1959
13609WAT     H155142   7.130   2.284   2.397  0.5233 -1.3715 -1.3648
13609WAT     H255143   7.133   2.153   2.437 -0.3015 -0.2804  2.7016
13609WAT    EPW55144   7.165   2.225   2.435  0.8878  0.5608 -0.1910
13610WAT      O55145   2.289   4.412   2.678 -0.0483  0.0157  0.3303
13610WAT     H155146   2.316   4.469   2.617 -0.7856 -0.9456 -0.9469
13610WAT     H255147   2.209   4.389   2.650 -0.1720 -0.8966  1.3625
13610WAT    EPW55148   2.281   4.417   2.665  0.0992  0.1606 -1.0646
13611WAT      O55149   5.056   2.048   2.881 -0.2336  0.2308 -0.6525
13611WAT     H155150   4.974   2.053   2.854 -0.5936 -0.0523  0.3367
13611WAT     H255151   5.061   2.110   2.943 -0.3559 -1.2163  0.8689
13611WAT    EPW55152   5.045   2.058   2.886 -0.0628 -0.7353 -0.8659
13612WAT      O55153   3.063   4.375   6.833  0.2656 -0.8175  0.4539
13612WAT     H155154   3.047   4.461   6.832  2.0239 -0.4378 -1.0873
13612WAT     H255155   2.989   4.341   6.865 -0.8481  1.1915  0.2062
13612WAT    EPW55156   3.049   4.382   6.837  0.0823  0.3884  0.2794
13613WAT      O55157   0.002   5.397   1.756 -0.0902  0.9221  0.2462
13613WAT     H155158   0.065   5.434   1.805  1.4740 -0.7657 -0.3887
13613WAT     H255159   0.029   5.315   1.747 -1.3961  0.6600 -1.7456
13613WAT    EPW55160   0.015   5.391   1.762 -0.6802 -0.2720 -0.1239
13614WAT      O55161   6.631   2.317   5.052  0.0174  0.3363 -0.5367
13614WAT     H155162   6.578   2.291   5.116  0.5038  0.6800  0.0221
13614WAT     H255163   6.651   2.399   5.074  0.6258  0.2760 -0.8293
13614WAT    EPW55164   6.626   2.325   5.065  0.3995  0.3730  0.0643
13615WAT      O55165   2.024   3.530   5.132 -0.4093  0.1719 -0.1695
13615WAT     H155166   2.106   3.520   5.106 -0.1957  1.3531 -0.0220
13615WAT     H255167   2.031   3.576   5.207 -1.2511  2.2039 -1.2477
13615WAT    EPW55168   2.037   3.536   5.140 -0.0541 -0.2341 -0.0552
13616WAT      O55169   1.561   5.550   1.010  0.3821  0.4196 -0.1265
13616WAT     H155170   1.479   5.578   1.022 -0.9880 -2.7561 -0.8405
13616WAT     H255171   1.582   5.580   0.931  0.1017  1.6362  0.2503
13616WAT    EPW55172   1.552   5.559   1.000  0.3035  0.6551 -0.5822
13617WAT      O55173   3.367   1.826   2.302  0.2087  0.2416 -0.4344
13617WAT     H155174   3.443   1.798   2.336  0.2734  1.1078  0.1586
13617WAT     H255175   3.350   1.899   2.347 -1.7377 -0.7152  0.5329
13617WAT    EPW55176   3.375   1.832   2.314 -0.2046  0.1089 -0.1415
13618WAT      O55177   0.945   1.392   4.309 -0.8303  0.4948 -0.4511
13618WAT     H155178   0.966   1.476   4.297  0.6436  0.1337 -0.6593
13618WAT     H255179   0.905   1.392   4.386  1.5196  1.0748  0.8598
13618WAT    EPW55180   0.942   1.405   4.318 -0.7030  0.7536  0.0549
13619WAT      O55181   1.993   2.325   3.714  0.8508 -0.3216 -0.8383
13619WAT     H155182   2.075   2.315   3.686  0.9521 -0.0144 -0.6623
13619WAT     H255183   2.003   2.347   3.798  0.5444 -2.0237 -0.3037
13619WAT    EPW55184   2.007   2.327   3.723  0.2692 -0.2218 -0.1905
13620WAT      O55185   1.589   0.097   4.787 -0.1217 -0.3789  0.2432
13620WAT     H155186   1.516   0.053   4.769  0.5739 -1.1530 -0.7607
13620WAT     H255187   1.644   0.036   4.816  0.5414 -0.0250 -0.2429
13620WAT    EPW55188   1.586   0.082   4.789  0.2858  0.7012 -0.0278
13621WAT      O55189   7.047   6.000   3.356 -0.4981  0.6726 -0.1088
13621WAT     H155190   7.061   5.977   3.272  1.3007 -0.5512  0.4650
13621WAT     H255191   7.122   5.979   3.395 -1.2745  1.3167  1.8088
13621WAT    EPW55192   7.060   5.993   3.349  0.6601  0.6610 -0.5536
13622WAT      O55193   5.715   1.678   4.636 -0.1997  0.2197 -0.1467
13622WAT     H155194   5.770   1.741   4.665  0.0836  0.1367 -0.4995
13622WAT     H255195   5.752   1.605   4.666 -0.3375  0.1933 -0.0422
13622WAT    EPW55196   5.729   1.677   4.645 -0.6605 -0.4297 -0.1554
13623WAT      O55197   2.078   3.855   3.881 -0.3459  0.2790 -0.4446
13623WAT     H155198   2.134   3.817   3.937  0.9505 -0.0205 -1.8562
13623WAT     H255199   2.107   3.937   3.876 -2.2110  1.1469  1.4266
13623WAT    EPW55200   2.091   3.862   3.889  0.4654 -0.2364  0.2748
13624WAT      O55201   1.604   5.150   4.840 -1.1238 -0.2257 -0.5635
13624WAT     H155202   1.634   5.070   4.856 -1.1773 -0.1902 -0.2658
13624WAT     H255203   1.517   5.139   4.839 -1.3174  0.2699  2.2549
13624WAT    EPW55204   1.595   5.137   4.842  0.2239  0.0689 -0.1002
13625WAT      O55205   4.646   4.639   1.681 -0.0223 -0.4639 -0.2722
13625WAT     H155206   4.706   4.579   1.662  0.9669  0.4345 -0.0974
13625WAT     H255207   4.637   4.633   1.768 -0.1153 -0.5326 -0.2865
13625WAT    EPW55208   4.654   4.630   1.691 -0.3781 -0.7516  0.0331
13626WAT      O55209   1.161   5.031   2.821  0.3825 -0.0319 -0.3829
13626WAT     H155210   1.139   4.967   2.766 -0.5651 -0.3196  0.2919
13626WAT     H255211   1.089   5.081   2.824  0.9879  0.8785 -0.6348
13626WAT    EPW55212   1.147   5.029   2.814  0.1828 -0.0615 -0.1783
13627WAT      O55213   4.487   2.405   5.957  0.1807  0.4393  0.4668
13627WAT     H155214   4.435   2.472   5.939 -0.1227  0.0007 -0.3534
13627WAT     H255215   4.515   2.379   5.879  0.0774 -0.5443  0.7394
13627WAT    EPW55216   4.483   2.411   5.943  0.0281 -0.0978 -0.5363
13628WAT      O55217   4.181   4.675   2.220  0.0051 -0.3047 -0.2394
13628WAT     H155218   4.203   4.715   2.145 -0.0664 -0.0173 -0.1082
13628WAT     H255219   4.100   4.703   2.235  0.3637  0.4086  0.4515
13628WAT    EPW55220   4.172   4.685   2.211 -0.0287  0.0883 -0.5456
13629WAT      O55221   3.317   2.220   7.591  0.0215 -0.1556 -0.4029
13629WAT     H155222   3.295   2.176   7.518 -1.0242  0.7306 -0.6430
13629WAT     H255223   3.349   2.157   7.643  0.8668 -0.7997 -1.6346
13629WAT    EPW55224   3.319   2.204   7.588 -0.2318 -0.1774 -0.2095
13630WAT      O55225   6.130   2.146   0.606 -0.3741  1.0074 -0.2228
13630WAT     H155226   6.165   2.224   0.621 -2.2544  1.8948 -0.1740
13630WAT     H255227   6.105   2.119   0.685 -1.0735  1.0515 -0.4206
13630WAT    EPW55228   6.131   2.154   0.620  1.0688 -0.6151 -0.2029
13631WAT      O55229   0.236   5.398   4.126  0.4227  0.0449  0.0455
13631WAT     H155230   0.198   5.446   4.188  0.4599 -0.1105  0.1898
13631WAT     H255231   0.289   5.454   4.086 -0.6637  0.5013 -0.7823
13631WAT    EPW55232   0.239   5.413   4.129  0.0493  0.5491  0.1780
13632WAT      O55233   1.247   6.115   2.834  0.2892 -0.0138 -0.0128
13632WAT     H155234   1.301   6.086   2.896 -0.3702  1.5568  1.3704
13632WAT     H255235   1.252   6.202   2.841 -0.2182  0.2042 -1.8267
13632WAT    EPW55236   1.255   6.124   2.844 -0.2868 -0.3273 -0.0103
13633WAT      O55237   6.805   0.091   1.422 -0.0490  0.2118 -0.5655
13633WAT     H155238   6.726   0.102   1.385 -0.6380 -0.4708  0.4212
13633WAT     H255239   6.789   0.104   1.507  0.7276 -0.7108 -0.2628
13633WAT    EPW55240   6.791   0.094   1.429 -0.0160 -0.5154  0.1625
13634WAT      O55241   6.888   3.072   2.965  0.1765 -0.4392 -0.1673
13634WAT     H155242   6.949   3.128   2.939  1.3380 -1.0501  1.1630
13634WAT     H255243   6.897   3.005   2.910  0.9742 -0.6918  0.2621
13634WAT    EPW55244   6.898   3.070   2.953  0.0965  0.2116  0.4128
13635WAT      O55245   0.627   0.833   4.861  0.0866 -0.7714 -0.3319
13635WAT     H155246   0.693   0.779   4.844  1.0651  0.4536 -0.6160
13635WAT     H255247   0.587   0.797   4.929  0.4579 -2.0460 -0.7675
13635WAT    EPW55248   0.631   0.820   4.868  0.2753 -0.2776 -0.0877
13636WAT      O55249   7.319   3.542   1.393  0.0235  0.3226 -0.3283
13636WAT     H155250   7.329   3.529   1.307  1.5455 -0.1625 -0.1130
13636WAT     H255251   7.391   3.587   1.415  1.0631 -1.8890  1.1235
13636WAT    EPW55252   7.331   3.547   1.384 -0.0803  0.2926  0.2134
13637WAT      O55253   6.478   3.636   1.559  0.2297 -0.3964  0.0470
13637WAT     H155254   6.532   3.705   1.563  0.5848 -0.6855  0.3083
13637WAT     H255255   6.440   3.634   1.637 -0.4271  0.0108 -0.2516
13637WAT    EPW55256   6.480   3.646   1.571  0.8795  1.0634 -0.2342
13638WAT      O55257   1.893   0.850   7.988  0.3061 -0.2324  0.2073
13638WAT     H155258   1.807   0.866   7.985 -0.2609 -2.7837  0.0175
13638WAT     H255259   1.912   0.827   7.906  0.5057 -2.3372  0.7829
13638WAT    EPW55260   1.883   0.849   7.975 -0.0970 -0.1424  0.4617
13639WAT      O55261   0.779   2.571   3.748 -0.2229 -0.6211  0.2689
13639WAT     H155262   0.796   2.653   3.724 -0.9470  0.1226  2.1035
13639WAT     H255263   0.843   2.525   3.711 -0.0721  0.6803 -1.1994
13639WAT    EPW55264   0.791   2.577   3.739 -0.1919  0.2284 -0.1908
13640WAT      O55265   0.434   1.492   2.120 -0.5656 -0.4070  0.4488
13640WAT     H155266   0.486   1.554   2.150 -0.3068 -0.6368  0.4825
13640WAT     H255267   0.381   1.534   2.065 -0.8840 -0.0261  1.0415
13640WAT    EPW55268   0.434   1.507   2.116 -0.1644 -0.1219 -0.1668
13641WAT      O55269   5.312   2.900   5.191  0.2221 -0.3323  0.5459
13641WAT     H155270   5.235   2.887   5.152 -0.8579 -2.0226  2.9582
13641WAT     H255271   5.365   2.843   5.151  0.1887  0.5725 -0.8674
13641WAT    EPW55272   5.309   2.890   5.180 -0.2079 -0.3091 -0.1362
13642WAT      O55273   2.741   1.863   2.830  0.1587  0.1402 -0.4315
13642WAT     H155274   2.743   1.880   2.915  1.4373 -0.9595 -0.2167
13642WAT     H255275   2.743   1.776   2.826 -3.1285 -0.0219 -1.5501
13642WAT    EPW55276   2.741   1.853   2.842  0.7659 -0.5396 -0.0377
13643WAT      O55277   5.315   0.222   3.779 -0.0133 -0.2327 -0.0178
13643WAT     H155278   5.293   0.288   3.727 -0.1398  0.3053  0.7164
13643WAT     H255279   5.384   0.187   3.739  1.7780  1.9813  0.9227
13643WAT    EPW55280   5.322   0.226   3.765 -0.2653 -0.2344  0.6815
13644WAT      O55281   1.978   2.550   5.172 -0.4151  0.2594  0.1415
13644WAT     H155282   1.962   2.536   5.257 -1.3682 -0.1996 -0.1079
13644WAT     H255283   1.963   2.635   5.162 -1.2966  0.1189  0.2234
13644WAT    EPW55284   1.974   2.560   5.183  0.1696 -0.3259 -0.3286
13645WAT      O55285   5.848   7.004   3.078  0.1260  0.4979  0.2002
13645WAT     H155286   5.791   6.984   3.014 -0.8234 -0.1872  1.2135
13645WAT     H255287   5.838   7.090   3.087 -0.8388  0.3862  0.4031
13645WAT    EPW55288   5.838   7.013   3.070 -0.3475  0.1715 -0.4040
13646WAT      O55289   7.421   0.582   1.830 -0.0400 -0.5360 -0.0447
13646WAT     H155290   7.495   0.573   1.876 -0.2280  2.3632  1.0296
13646WAT     H255291   7.448   0.576   1.747  1.5275  0.7167  0.3169
13646WAT    EPW55292   7.436   0.580   1.825  0.4213 -0.2652  0.1439
13647WAT      O55293   2.379   5.822   3.815  0.1765  0.1929  0.0981
13647WAT     H155294   2.414   5.902   3.813 -0.9343  0.7231 -2.6075
13647WAT     H255295   2.411   5.787   3.889  1.7662  2.6198  0.6668
13647WAT    EPW55296   2.389   5.828   3.826  0.1779  0.8850  0.4599
13648WAT      O55297   1.051   1.469   1.838  0.5998  0.0051  0.3044
13648WAT     H155298   0.983   1.452   1.890 -0.4941 -1.3502 -1.4528
13648WAT     H255299   1.024   1.538   1.792  1.3478  0.8674  1.1355
13648WAT    EPW55300   1.037   1.477   1.839  0.3202 -0.0394  0.4019
13649WAT      O55301   4.832   6.028   0.643  0.1544  0.1680 -0.1955
13649WAT     H155302   4.769   6.054   0.590 -0.0433  2.2246  0.9603
13649WAT     H255303   4.855   6.100   0.686  1.4574 -1.0516  1.3165
13649WAT    EPW55304   4.826   6.042   0.642 -0.1198  0.0982  0.0542
13650WAT      O55305   2.973   1.536   4.069 -0.3591 -0.1360 -0.0414
13650WAT     H155306   3.019   1.572   4.004 -0.2908  0.4999  0.3531
13650WAT     H255307   2.901   1.507   4.029  0.2480 -0.8952 -0.6143
13650WAT    EPW55308   2.969   1.537   4.053  0.0254  0.1185  0.1373
13651WAT      O55309   0.986   1.729   2.036 -0.1779  0.0676  0.1904
13651WAT     H155310   1.037   1.794   2.065  1.7704 -1.2341 -0.1788
13651WAT     H255311   1.022   1.707   1.960  0.6238 -2.8979  1.3196
13651WAT    EPW55312   0.998   1.736   2.029 -0.2434  0.3875  0.0252
13652WAT      O55313   3.947   2.361   4.630 -0.0558 -0.1690 -0.0458
13652WAT     H155314   3.903   2.314   4.690 -0.6319 -0.2954 -0.5635
13652WAT     H255315   3.959   2.438   4.670 -0.7102 -0.1475  0.1270
13652WAT    EPW55316   3.942   2.366   4.645 -0.1070  0.0112  0.1049
13653WAT      O55317   6.094   2.619   5.113 -0.3880  1.0599 -0.2727
13653WAT     H155318   6.011   2.591   5.117 -0.1622  0.3427 -0.3591
13653WAT     H255319   6.100   2.653   5.033 -0.1244 -0.5377 -0.9804
13653WAT    EPW55320   6.083   2.620   5.102  0.0212 -0.2666  0.2524
13654WAT      O55321   1.126   5.128   2.393 -0.2097 -0.0466  0.9351
13654WAT     H155322   1.190   5.175   2.431  0.1243 -1.0428  1.6825
13654WAT     H255323   1.114   5.063   2.450 -1.2513 -0.3862  0.3380
13654WAT    EPW55324   1.134   5.125   2.407 -0.1989 -0.3050 -0.1215
13655WAT      O55325   7.044   6.107   4.753  0.1471  0.8568 -0.2662
13655WAT     H155326   6.988   6.145   4.807  0.2530 -0.4147  0.7926
13655WAT     H255327   7.101   6.068   4.807  1.0434  0.6873 -1.3020
13655WAT    EPW55328   7.045   6.107   4.769  0.1052  0.2847  0.3188
13656WAT      O55329   6.347   2.021   3.493 -0.4431 -0.5298 -0.1779
13656WAT     H155330   6.322   2.045   3.413  0.4821  2.3007  0.2758
13656WAT     H255331   6.433   2.010   3.486 -0.0827  1.3494  0.6959
13656WAT    EPW55332   6.356   2.023   3.480 -0.0592  0.3822 -0.5459
13657WAT      O55333   3.678   5.173   0.771  0.0689  0.0098  0.4922
13657WAT     H155334   3.633   5.100   0.781 -0.8989  0.3145 -1.1751
13657WAT     H255335   3.750   5.147   0.729 -0.1245 -0.0488  0.1890
13657WAT    EPW55336   3.682   5.159   0.766 -0.2509  0.3490 -0.5900
13658WAT      O55337   0.887   6.370   3.794  0.3143 -0.1581 -0.1658
13658WAT     H155338   0.965   6.388   3.759 -0.2165 -1.2063 -2.0297
13658WAT     H255339   0.834   6.368   3.725 -0.7540 -2.5540  0.6228
13658WAT    EPW55340   0.891   6.372   3.778 -0.6398 -0.2009 -0.1756
13659WAT      O55341   2.136   1.013   6.422 -0.5259 -0.3727  0.2347
13659WAT     H155342   2.206   1.065   6.423  0.8279 -2.0636  1.8248
13659WAT     H255343   2.154   0.953   6.483 -3.4890 -0.7724  0.9176
13659WAT    EPW55344   2.149   1.012   6.431 -1.1642  0.0174 -0.4107
13660WAT      O55345   0.086   2.077   4.459  0.0165  0.3503 -0.1805
13660WAT     H155346   0.078   2.158   4.427 -1.2240  0.6965  0.9124
13660WAT     H255347   0.042   2.028   4.403 -0.5180  0.6615 -0.0344
13660WAT    EPW55348   0.079   2.082   4.446 -0.3478 -0.1547  0.0671
13661WAT      O55349   7.751   1.809   0.136  0.0620 -0.2487 -0.1125
13661WAT     H155350   7.670   1.841   0.128 -0.5739 -1.8259 -0.2226
13661WAT     H255351   7.760   1.758   0.066  2.4056  2.3751 -1.9470
13661WAT    EPW55352   7.740   1.806   0.124  0.0233  0.6955 -0.1278
13662WAT      O55353   7.186   1.255   3.616 -0.3034 -0.3537 -0.1973
13662WAT     H155354   7.105   1.248   3.585 -0.8134 -1.6549  1.2912
13662WAT     H255355   7.229   1.298   3.553 -1.3138 -2.5221 -2.5057
13662WAT    EPW55356   7.181   1.261   3.602 -0.1126 -0.0488 -0.1319
13663WAT      O55357   7.601   3.016   2.643 -0.9129  0.0668 -0.2177
13663WAT     H155358   7.659   2.956   2.671 -0.6153  0.1767 -0.5887
13663WAT     H255359   7.524   2.978   2.658 -0.7320 -0.3425 -0.2925
13663WAT    EPW55360   7.598   3.001   2.649  0.3474  0.4246 -0.3721
13664WAT      O55361   1.828   5.664   4.875 -0.6899  0.0365  0.0222
13664WAT     H155362   1.893   5.610   4.899 -1.1873 -1.1757 -1.2193
13664WAT     H255363   1.778   5.669   4.946 -0.8790 -1.5557  0.0409
13664WAT    EPW55364   1.831   5.657   4.889 -0.5276  0.2675  0.3396
13665WAT      O55365   7.125   5.113   3.137 -0.4189  0.4776 -0.7101
13665WAT     H155366   7.189   5.071   3.095  0.1479 -0.8239  1.2715
13665WAT     H255367   7.068   5.049   3.155  0.5243  0.3426  2.5163
13665WAT    EPW55368   7.126   5.097   3.134  0.1478 -0.4649 -0.3119
13666WAT      O55369   5.110   0.352   7.001  0.5363 -0.1728 -0.0803
13666WAT     H155370   5.086   0.269   7.011 -0.9619 -0.1483 -2.6631
13666WAT     H255371   5.083   0.372   6.921 -0.7381  3.3388  1.0371
13666WAT    EPW55372   5.103   0.343   6.991 -0.4069 -0.1118  0.4186
13667WAT      O55373   2.657   4.314   5.928 -0.1558  0.1237  0.0245
13667WAT     H155374   2.614   4.239   5.913  0.3681 -0.1141 -0.3273
13667WAT     H255375   2.594   4.373   5.938 -0.5685  0.0209 -1.6677
13667WAT    EPW55376   2.641   4.311   5.928 -0.2079 -0.6684  0.3566
13668WAT      O55377   2.313   2.392   2.101  0.3756 -0.0202  0.5093
13668WAT     H155378   2.358   2.418   2.030  0.3407  1.0353  0.8489
13668WAT     H255379   2.299   2.307   2.087  1.1881 -0.0345 -0.3040
13668WAT    EPW55380   2.318   2.384   2.088 -0.2899 -0.4724 -0.0115
13669WAT      O55381   2.961   1.674   2.734  0.0911  0.0771  0.0435
13669WAT     H155382   3.007   1.729   2.784 -0.0178  0.9130 -0.7306
13669WAT     H255383   3.005   1.675   2.658 -0.4843 -0.1152 -0.2978
13669WAT    EPW55384   2.974   1.682   2.730 -0.3931 -0.3697  0.5152
13670WAT      O55385   4.020   4.455   2.513  0.0384  0.2627 -0.0855
13670WAT     H155386   4.093   4.503   2.508  0.4511 -0.3676 -0.1435
13670WAT     H255387   4.016   4.431   2.596 -0.0261  0.1803 -0.1117
13670WAT    EPW55388   4.030   4.459   2.524  0.3260 -0.1025  0.5964
13671WAT      O55389   3.195   0.090   0.700  0.1501  0.3333 -0.0881
13671WAT     H155390   3.176   0.091   0.785  0.3186  0.3476 -0.0514
13671WAT     H255391   3.271   0.133   0.695  1.2795 -1.5630  0.0280
13671WAT    EPW55392   3.203   0.097   0.712  0.2180 -0.2196  0.4008
13672WAT      O55393   4.058   3.132   0.300  0.1060  0.7781  0.0151
13672WAT     H155394   4.086   3.063   0.255 -1.6211  0.0494 -0.0139
13672WAT     H255395   4.094   3.121   0.379  0.2571  0.1132 -0.1410
13672WAT    EPW55396   4.068   3.120   0.305  0.7329 -0.2075  0.5044
13673WAT      O55397   1.574   0.029   1.673  0.1788 -0.0963 -0.2311
13673WAT     H155398   1.557   0.114   1.678 -0.0870 -0.1228 -0.6273
13673WAT     H255399   1.504  -0.004   1.634 -0.0725 -0.6188  0.6367
13673WAT    EPW55400   1.561   0.036   1.668 -0.2796  0.2747 -0.5372
13674WAT      O55401   0.398   5.013   1.683  0.2784  0.5974  0.4238
13674WAT     H155402   0.376   4.931   1.703 -1.1303  1.4074  2.5192
13674WAT     H255403   0.354   5.029   1.610  0.9852 -0.6567 -0.3040
13674WAT    EPW55404   0.389   5.003   1.675  0.3892  0.2875  0.0354
13675WAT      O55405   7.609   3.434   1.300  0.3947  0.1391  0.4104
13675WAT     H155406   7.651   3.392   1.364  0.3455 -1.8520 -0.7754
13675WAT     H255407   7.660   3.503   1.283  0.6215  0.4648  2.2555
13675WAT    EPW55408   7.623   3.438   1.307 -0.0588 -0.7374 -0.2202
13676WAT      O55409   5.818   3.725   6.880  0.6022 -0.0583  0.3956
13676WAT     H155410   5.853   3.745   6.957 -0.6283 -2.2093  1.5825
13676WAT     H255411   5.833   3.797   6.832  1.4076  1.3343  2.5870
13676WAT    EPW55412   5.826   3.739   6.884  0.0474 -0.8423  0.2262
13677WAT      O55413   7.586   2.308   2.372 -0.3946  0.0789 -0.2735
13677WAT     H155414   7.591   2.376   2.318 -2.1858 -1.1387 -2.0659
13677WAT     H255415   7.661   2.313   2.417  0.2379  2.3009 -1.4213
13677WAT    EPW55416   7.598   2.319   2.371 -0.6501 -0.0489  0.7129
13678WAT      O55417   6.665   7.214   3.427  0.4544  0.3133  0.2107
13678WAT     H155418   6.745   7.216   3.463  0.4069  0.8683  0.3001
13678WAT     H255419   6.626   7.148   3.468  0.6361  0.4915  0.6818
13678WAT    EPW55420   6.671   7.205   3.439  0.1907  0.2877  0.2932
13679WAT      O55421   4.370   2.287   2.359 -0.4864  0.4186  0.0473
13679WAT     H155422   4.316   2.228   2.324 -1.0521  1.5846 -1.1393
13679WAT     H255423   4.380   2.346   2.295  0.4211  1.3740  1.0295
13679WAT    EPW55424   4.364   2.287   2.344  0.0443 -0.4526 -0.3160
13680WAT      O55425   6.811   2.371   1.728 -0.7960 -0.9400  0.2335
13680WAT     H155426   6.741   2.387   1.679  0.7040  0.3215 -1.6506
13680WAT     H255427   6.839   2.451   1.751  0.2018 -1.3893  0.6813
13680WAT    EPW55428   6.805   2.385   1.724 -0.5357  0.1256  0.4466
13681WAT      O55429   2.897   5.371   8.028  0.2640 -0.0246 -0.2540
13681WAT     H155430   2.873   5.454   8.026  0.2192 -0.0507 -1.0945
13681WAT     H255431   2.925   5.355   7.946  0.5303 -0.7532 -0.0341
13681WAT    EPW55432   2.898   5.381   8.015  0.4098  0.3921  0.4812
13682WAT      O55433   0.506   0.404   1.699  0.5968 -0.1484  0.2348
13682WAT     H155434   0.518   0.486   1.725 -0.8609  0.2384 -0.2252
13682WAT     H255435   0.497   0.360   1.774  2.7222 -0.1847  0.5476
13682WAT    EPW55436   0.507   0.410   1.714  0.3159 -0.7756 -0.1295
13683WAT      O55437   1.299   3.383   0.823 -0.5006  0.0808 -0.6115
13683WAT     H155438   1.265   3.383   0.743 -1.0578 -0.2962 -0.3809
13683WAT     H255439   1.378   3.419   0.812 -0.0959 -1.0268 -1.5386
13683WAT    EPW55440   1.306   3.388   0.810  0.4000 -0.0064 -0.3451
13684WAT      O55441   1.669   2.675   5.421 -0.1666  0.2518 -0.3877
13684WAT     H155442   1.727   2.609   5.424 -1.1168 -0.5760  0.9635
13684WAT     H255443   1.673   2.702   5.338  2.5845  0.6559 -0.2117
13684WAT    EPW55444   1.678   2.669   5.409  0.1890  0.0995 -0.3339
13685WAT      O55445   1.760   1.601   3.010  0.0962 -0.3328  0.7026
13685WAT     H155446   1.701   1.552   3.051 -0.6640 -0.4596 -0.4865
13685WAT     H255447   1.716   1.674   2.991  0.3353 -0.3912 -0.1150
13685WAT    EPW55448   1.745   1.605   3.013 -0.4175  0.0641  0.7051
13686WAT      O55449   5.988   7.529   0.788 -0.1269  0.3566 -0.7057
13686WAT     H155450   5.962   7.474   0.725  0.7647 -0.6756 -0.2159
13686WAT     H255451   5.946   7.500   0.859  0.9957 -0.2608 -0.2654
13686WAT    EPW55452   5.978   7.516   0.790 -0.0405  0.5010  0.5584
13687WAT      O55453   5.674   1.663   4.357  0.3504 -0.2180 -0.4200
13687WAT     H155454   5.625   1.716   4.308  0.6475 -0.0929 -0.5821
13687WAT     H255455   5.675   1.703   4.434  0.0920 -0.2863 -0.3786
13687WAT    EPW55456   5.667   1.677   4.361 -0.2314  0.0477 -0.3293
13688WAT      O55457   6.571   4.680   0.264 -0.0947  0.0621  0.1789
13688WAT     H155458   6.547   4.763   0.255 -2.4152 -0.4363  1.1520
13688WAT     H255459   6.496   4.636   0.262  0.8728 -1.8270  1.7112
13688WAT    EPW55460   6.557   4.685   0.263 -0.1888  0.5551 -0.1825
13689WAT      O55461   5.433   3.149   5.179  0.3157 -0.2802 -0.2761
13689WAT     H155462   5.409   3.072   5.213 -0.2363  0.5483  1.2885
13689WAT     H255463   5.386   3.207   5.224  0.6532  0.9844 -1.4952
13689WAT    EPW55464   5.423   3.146   5.191  0.4594  0.3435  0.3301
13690WAT      O55465   1.280   2.967   5.638 -0.6634 -0.1207 -0.1156
13690WAT     H155466   1.351   2.930   5.604 -0.3841  1.1370 -0.9839
13690WAT     H255467   1.265   2.922   5.711  0.2145 -1.2748 -0.6297
13690WAT    EPW55468   1.288   2.955   5.644  0.3288 -0.1719 -0.2433
13691WAT      O55469   0.885   0.125   2.494  0.5873 -0.4384 -0.0906
13691WAT     H155470   0.933   0.190   2.528  0.2824  0.4235 -1.2666
13691WAT     H255471   0.883   0.067   2.559  2.2963 -0.0334  0.3950
13691WAT    EPW55472   0.892   0.126   2.509  0.3141  0.0413 -0.0046
13692WAT      O55473   1.607   4.342   6.923 -0.0796  0.1061 -0.2271
13692WAT     H155474   1.625   4.425   6.943 -0.8712  0.3160 -0.3464
13692WAT     H255475   1.670   4.321   6.866  0.2620  0.5504 -0.0240
13692WAT    EPW55476   1.619   4.352   6.917 -0.4793 -0.2676 -0.0464
13693WAT      O55477   0.852   7.393   2.013 -0.1668  0.0814  0.9063
13693WAT     H155478   0.800   7.324   2.025  2.0008 -1.8500 -0.1224
13693WAT     H255479   0.923   7.373   2.059  1.1515  0.8445 -0.7150
13693WAT    EPW55480   0.855   7.380   2.021  0.2608  0.2188 -0.4514
13694WAT      O55481   2.518   2.307   4.546 -0.3427  0.2652 -0.2638
13694WAT     H155482   2.483   2.343   4.475  0.7592 -0.5250 -1.2571
13694WAT     H255483   2.602   2.298   4.525 -0.1829 -0.9316  0.7414
13694WAT    EPW55484   2.525   2.311   4.533  0.4660  0.0639 -0.0735
13695WAT      O55485   2.757   1.801   3.717  0.8104  0.1354  0.7700
13695WAT     H155486   2.734   1.884   3.698  2.4014  0.4169 -0.0865
13695WAT     H255487   2.685   1.768   3.754 -0.5670  1.3014 -0.6981
13695WAT    EPW55488   2.743   1.809   3.720  0.7763 -0.2542  0.9951
13696WAT      O55489   5.539   2.392   0.716  0.1304 -0.4334 -0.9039
13696WAT     H155490   5.595   2.326   0.704  0.0246 -0.2854 -2.3364
13696WAT     H255491   5.579   2.460   0.680 -0.2099  0.0717 -0.3373
13696WAT    EPW55492   5.553   2.392   0.709  0.2755 -0.3757 -0.0130
13697WAT      O55493   2.071   3.313   4.434 -0.9117  0.2084  0.0424
13697WAT     H155494   2.022   3.250   4.400 -1.3300  0.6185 -0.1287
13697WAT     H255495   2.018   3.382   4.434 -0.3221  0.6685 -0.1706
13697WAT    EPW55496   2.056   3.314   4.429 -0.6168 -0.3218 -0.2179
13698WAT      O55497   2.386   3.219   6.842  0.9326  0.3064 -0.5011
13698WAT     H155498   2.302   3.231   6.862  0.6278 -2.1877  0.0819
13698WAT     H255499   2.427   3.235   6.917  0.7783 -0.0336 -0.3394
13698WAT    EPW55500   2.379   3.223   6.856  0.5239 -0.4250  0.4666
13699WAT      O55501   0.545   5.798   0.668  0.2887 -0.4807 -0.2085
13699WAT     H155502   0.627   5.788   0.640  0.5581 -0.1761  0.4393
13699WAT     H255503   0.537   5.737   0.730  0.9593  1.2221  1.6613
13699WAT    EPW55504   0.556   5.788   0.673  0.6610 -0.1366 -0.4530
13700WAT      O55505   5.898   4.059   4.994  0.2892 -0.2937  0.0507
13700WAT     H155506   5.964   4.116   5.002  0.9471 -0.8522 -1.0163
13700WAT     H255507   5.845   4.098   4.937 -0.4933  0.2929  1.1437
13700WAT    EPW55508   5.900   4.073   4.986 -0.4164 -0.1295  0.5430
13701WAT      O55509   7.786   3.704   2.150 -0.0586  0.5857  0.2000
13701WAT     H155510   7.733   3.757   2.193  0.2749  1.5862 -0.5940
13701WAT     H255511   7.835   3.758   2.102  1.7051 -0.2845  0.9248
13701WAT    EPW55512   7.786   3.720   2.149 -0.2269 -0.9992 -0.8700
13702WAT      O55513   6.121   0.388   2.043 -0.4429 -0.3078 -0.0126
13702WAT     H155514   6.051   0.364   1.997 -0.9561 -0.8604  1.0387
13702WAT     H255515   6.187   0.354   1.997 -0.9091 -0.4455 -0.5948
13702WAT    EPW55516   6.121   0.379   2.029  0.0000  0.4534  0.2400
13703WAT      O55517   2.640   3.547   6.453  0.0084  0.0895 -0.9745
13703WAT     H155518   2.690   3.598   6.503 -0.8409  1.7398 -1.7121
13703WAT     H255519   2.576   3.521   6.506 -0.5749  1.3637 -1.0280
13703WAT    EPW55520   2.638   3.551   6.468  0.5090  0.3942  0.3505
13704WAT      O55521   5.368   6.596   4.840 -0.6078 -0.0243  0.4984
13704WAT     H155522   5.396   6.519   4.811  2.6638  1.9118 -2.3507
13704WAT     H255523   5.281   6.590   4.835 -0.4187 -2.9040 -1.4600
13704WAT    EPW55524   5.359   6.584   4.835 -0.1729  0.5126 -0.3303
13705WAT      O55525   7.317   1.575   3.421  0.1138 -0.0751 -0.1263
13705WAT     H155526   7.380   1.616   3.375 -0.3504 -0.4693 -1.1531
13705WAT     H255527   7.329   1.491   3.400  0.5299 -0.4041  1.3048
13705WAT    EPW55528   7.328   1.569   3.411 -0.1432  0.3041  0.0435
13706WAT      O55529   3.280   7.029   2.672 -0.0496 -0.3771  0.3964
13706WAT     H155530   3.345   7.029   2.614  2.5829  2.8976  2.8983
13706WAT     H255531   3.313   6.987   2.741 -1.1062  0.0862  1.2247
13706WAT    EPW55532   3.294   7.023   2.674 -0.1954 -0.0917 -0.5541
13707WAT      O55533   6.928   7.297   1.127  0.3165 -0.4882  0.1213
13707WAT     H155534   6.886   7.224   1.108  0.3574 -0.8534  1.3649
13707WAT     H255535   7.010   7.271   1.143  0.7538  0.0610 -1.0904
13707WAT    EPW55536   6.934   7.283   1.127 -0.2363  0.2182 -0.0822
13708WAT      O55537   5.996   2.864   3.952  0.1663  0.1145 -0.2579
13708WAT     H155538   5.949   2.937   3.954  2.6755  1.8447 -0.2191
13708WAT     H255539   5.997   2.838   4.036  1.6141  1.7160  0.2713
13708WAT    EPW55540   5.989   2.871   3.965 -0.3641 -1.0499  0.0499
13709WAT      O55541   3.407   1.327   2.869 -0.0585  0.0631 -0.0343
13709WAT     H155542   3.393   1.291   2.947  0.6249  0.4901  0.2887
13709WAT     H255543   3.335   1.374   2.855  0.5066  1.3242  1.1029
13709WAT    EPW55544   3.394   1.328   2.879 -0.2054 -0.0947 -0.3067
13710WAT      O55545   1.400   1.588   1.559 -0.1260 -0.1989 -0.4570
13710WAT     H155546   1.369   1.578   1.640 -0.3668  2.0092 -0.2007
13710WAT     H255547   1.329   1.581   1.509 -1.0650  3.6493  0.0343
13710WAT    EPW55548   1.385   1.586   1.564  0.2698 -0.6053  0.1373
13711WAT      O55549   2.100   2.542   1.024  0.5309 -0.0356  0.2202
13711WAT     H155550   2.060   2.487   0.969 -0.8875  0.1378  1.0517
13711WAT     H255551   2.052   2.614   1.021 -1.4957 -0.9942  3.9089
13711WAT    EPW55552   2.087   2.544   1.016  0.7275  0.0063  0.6043
13712WAT      O55553   5.050   6.657   6.927 -0.4368 -0.1034 -0.1567
13712WAT     H155554   5.014   6.681   7.003  1.5620 -0.2975  0.9274
13712WAT     H255555   5.132   6.638   6.949  0.5923  1.1356 -2.6185
13712WAT    EPW55556   5.057   6.657   6.941 -0.1753 -0.6143 -0.7716
13713WAT      O55557   4.718   3.221   0.053  0.2611 -0.0387  0.5331
13713WAT     H155558   4.704   3.293   0.100 -0.5443 -0.0056  0.2587
13713WAT     H255559   4.799   3.231   0.022  0.0470  0.8877  0.2599
13713WAT    EPW55560   4.728   3.233   0.055  0.0476 -0.2470 -0.1012
13714WAT      O55561   4.906   2.247   0.431  0.4128  0.2211 -0.2069
13714WAT     H155562   4.857   2.318   0.418  0.0124  0.3059  1.5652
13714WAT     H255563   4.883   2.220   0.511  1.0853 -1.4923 -0.5508
13714WAT    EPW55564   4.896   2.253   0.441 -0.3210 -0.5936 -0.4202
13715WAT      O55565   7.799   3.519   4.113 -0.2064  0.0583 -0.7163
13715WAT     H155566   7.765   3.543   4.037  0.7334 -0.5568 -1.3454
13715WAT     H255567   7.761   3.574   4.170  0.5070  1.8388 -1.8601
13715WAT    EPW55568   7.788   3.531   4.110 -0.0851 -0.0416  0.5839
13716WAT      O55569   1.971   1.815   6.757 -0.0137  0.5108  0.0381
13716WAT     H155570   1.919   1.885   6.749 -0.9231 -0.3122 -1.5657
13716WAT     H255571   1.976   1.784   6.676 -0.0875 -1.6329  0.8042
13716WAT    EPW55572   1.964   1.821   6.744 -0.2824 -0.4486 -0.6497
13717WAT      O55573   6.348   5.764   1.333  0.1714 -0.5677  0.1461
13717WAT     H155574   6.390   5.840   1.330 -2.1063  0.7971  0.7676
13717WAT     H255575   6.336   5.743   1.249  2.7314 -1.4513 -0.0728
13717WAT    EPW55576   6.352   5.772   1.320 -0.2282 -0.2757 -0.7119
13718WAT      O55577   1.308   5.145   0.918 -0.6285 -0.2505 -0.2765
13718WAT     H155578   1.383   5.101   0.912  0.2961  0.8996  1.8591
13718WAT     H255579   1.318   5.210   0.861 -0.3529 -0.5611 -0.5885
13718WAT    EPW55580   1.321   5.148   0.909  0.4467  0.0808 -0.2452
13719WAT      O55581   6.111   2.468   4.795 -0.0393 -0.4775  0.0615
13719WAT     H155582   6.161   2.396   4.796 -1.0489 -1.2006 -0.0836
13719WAT     H255583   6.089   2.476   4.711  0.0762  0.0220  0.0754
13719WAT    EPW55584   6.115   2.459   4.783 -0.5310  0.1218 -0.4145
13720WAT      O55585   2.360   1.044   3.941 -0.0599  0.2048  0.3656
13720WAT     H155586   2.411   1.079   4.002 -0.6483 -0.4137  1.2416
13720WAT     H255587   2.356   0.960   3.964 -0.2032 -0.0609 -0.5934
13720WAT    EPW55588   2.367   1.036   3.953 -0.7555  0.2213  0.4455
13721WAT      O55589   4.846   1.217   5.858  0.2170 -0.1111 -0.1613
13721WAT     H155590   4.832   1.283   5.802 -0.3331 -0.2395 -0.1819
13721WAT     H255591   4.817   1.248   5.934 -1.0400 -0.6911 -0.3782
13721WAT    EPW55592   4.840   1.231   5.861  0.5116 -0.5289  0.2561
13722WAT      O55593   3.804   2.638   0.852  0.4933 -0.1310  0.5482
13722WAT     H155594   3.756   2.586   0.903  1.5188  0.3127  2.0216
13722WAT     H255595   3.879   2.595   0.844  0.6002  0.1504 -0.0054
13722WAT    EPW55596   3.808   2.624   0.858  0.3594 -0.2912  0.3561
13723WAT      O55597   7.616   7.436   2.988 -0.1546 -0.7433 -0.5143
13723WAT     H155598   7.616   7.491   2.921 -0.0809  0.5927  0.5396
13723WAT     H255599   7.546   7.460   3.034  1.4065  0.4443  1.4558
13723WAT    EPW55600   7.606   7.448   2.985 -0.2936 -0.0125  0.3354
13724WAT      O55601   5.586   2.265   1.167  0.3629 -0.1730  0.2321
13724WAT     H155602   5.527   2.313   1.125 -1.0488 -0.6836  1.5261
13724WAT     H255603   5.595   2.194   1.117  0.0063 -0.0011 -0.0775
13724WAT    EPW55604   5.578   2.262   1.153 -0.1845  0.0053 -0.0386
13725WAT      O55605   0.069   1.074   2.357 -0.0929  0.3115 -0.3068
13725WAT     H155606  -0.012   1.102   2.342 -0.6648 -1.4585 -0.6805
13725WAT     H255607   0.103   1.065   2.277 -0.5500 -1.7476 -0.3170
13725WAT    EPW55608   0.062   1.077   2.343  0.3698  0.1090 -0.7735
13726WAT      O55609   1.721   6.723   2.492  0.4360 -0.3436 -0.5822
13726WAT     H155610   1.722   6.690   2.411  0.0373  1.3147 -1.3053
13726WAT     H255611   1.798   6.699   2.525  0.9294 -0.4004 -1.7311
13726WAT    EPW55612   1.732   6.714   2.485 -0.7178 -0.4196 -0.1252
13727WAT      O55613   2.345   2.529   3.692 -0.3211  0.3470  0.2799
13727WAT     H155614   2.366   2.460   3.742 -1.2857 -0.5274 -0.4920
13727WAT     H255615   2.419   2.545   3.648  0.2075  0.4376  1.1652
13727WAT    EPW55616   2.359   2.521   3.693  0.2730 -0.1630  0.3216
13728WAT      O55617   7.477   6.719   2.663 -0.1760 -0.0325 -0.0973
13728WAT     H155618   7.391   6.703   2.663 -0.2714  0.3593 -1.5311
13728WAT     H255619   7.485   6.788   2.716 -0.6514 -0.4785  0.5692
13728WAT    EPW55620   7.466   6.727   2.671  0.0936  0.0019 -0.2910
13729WAT      O55621   5.185   6.593   4.440  0.2156 -0.5855  0.3010
13729WAT     H155622   5.145   6.546   4.502  3.2599 -0.6309  2.4615
13729WAT     H255623   5.145   6.670   4.443  0.0959 -0.6865  2.1919
13729WAT    EPW55624   5.173   6.598   4.449 -0.2466 -0.4110 -0.2313
13730WAT      O55625   1.098   3.485   0.977  0.4939 -0.1748 -0.5097
13730WAT     H155626   1.168   3.460   0.933  1.5386  1.3079  0.2323
13730WAT     H255627   1.119   3.564   1.006 -0.3299 -0.8231  2.1457
13730WAT    EPW55628   1.111   3.493   0.975  0.5231  0.0406 -0.7057
13731WAT      O55629   5.708   4.129   4.819  1.2428 -0.3000 -0.3953
13731WAT     H155630   5.746   4.200   4.786  1.2135  0.0341  0.2773
13731WAT     H255631   5.641   4.160   4.864  0.5480 -0.8438 -1.0401
13731WAT    EPW55632   5.704   4.144   4.821 -0.5174  0.3808 -0.0881
13732WAT      O55633   1.976   3.387   2.205  0.0996 -0.1960 -0.4215
13732WAT     H155634   1.975   3.309   2.166 -0.7643 -0.5840  0.3488
13732WAT     H255635   2.039   3.380   2.264 -0.4153 -0.5460  0.0946
13732WAT    EPW55636   1.985   3.374   2.208 -0.2757 -0.1933 -0.6387
13733WAT      O55637   1.884   0.460   2.335 -0.2657  0.1628  0.3607
13733WAT     H155638   1.820   0.472   2.393 -0.9553  1.5157 -0.6174
13733WAT     H255639   1.917   0.539   2.323 -0.0803 -0.0870 -1.0081
13733WAT    EPW55640   1.879   0.473   2.342 -0.0830  0.3742  0.2826
13734WAT      O55641   7.966   7.053   4.374  0.3298 -0.2469  0.2192
13734WAT     H155642   7.907   7.107   4.410  1.4621  1.8168 -0.8412
13734WAT     H255643   8.042   7.093   4.390  0.9969  0.1601 -3.3340
13734WAT    EPW55644   7.969   7.067   4.382  0.0354 -0.0811 -0.1805
13735WAT      O55645   7.923   1.887   3.391 -0.5995  0.6145 -0.1744
13735WAT     H155646   7.930   1.812   3.347 -0.6804 -0.2880  1.2528
13735WAT     H255647   7.948   1.948   3.334  0.9929 -0.6463 -0.8973
13735WAT    EPW55648   7.928   1.885   3.376 -0.0010 -0.3010  0.0522
13736WAT      O55649   7.762   2.317   0.936 -0.0587 -0.8325  0.5288
13736WAT     H155650   7.796   2.241   0.908 -0.7971 -1.5368  1.4736
13736WAT     H255651   7.698   2.292   0.990 -1.2167  0.4630 -0.1793
13736WAT    EPW55652   7.758   2.302   0.940  0.4573 -0.0645 -0.0742
13737WAT      O55653   4.290   7.376   4.314  0.2813  0.3831  0.0348
13737WAT     H155654   4.308   7.431   4.380 -0.5054 -0.6523  1.1513
13737WAT     H255655   4.223   7.414   4.273  1.3391  1.4741 -0.7387
13737WAT    EPW55656   4.283   7.390   4.318 -0.2522  0.1143 -0.1305
13738WAT      O55657   6.159   2.944   1.751  0.2770 -0.0688 -0.4912
13738WAT     H155658   6.078   2.920   1.730  0.1498 -0.7159  0.6674
13738WAT     H255659   6.204   2.869   1.748  0.4954  0.0182  0.3619
13738WAT    EPW55660   6.154   2.929   1.747 -0.2631 -0.3344  0.1546
13739WAT      O55661   0.437   6.934   3.886 -0.3904 -0.1258 -0.5153
13739WAT     H155662   0.389   6.880   3.837 -0.2120 -0.8341  0.0909
13739WAT     H255663   0.420   7.013   3.851 -1.6119 -0.4148 -0.6172
13739WAT    EPW55664   0.427   6.938   3.873  0.1872 -0.5980  0.0860
13740WAT      O55665   0.763   4.560   3.420 -0.4279 -0.5130 -0.4001
13740WAT     H155666   0.818   4.510   3.374 -0.1380  0.8741 -1.6364
13740WAT     H255667   0.690   4.512   3.424  0.3608 -1.7436 -0.0552
13740WAT    EPW55668   0.760   4.545   3.414  0.1543 -0.1144 -0.0806
13741WAT      O55669   1.887   2.700   4.573  0.1876  0.4706  0.5267
13741WAT     H155670   1.940   2.672   4.636  1.8215  1.1262 -0.4713
13741WAT     H255671   1.937   2.755   4.527 -0.7050 -0.4244 -1.6976
13741WAT    EPW55672   1.902   2.704   4.575  0.2639  0.3149  0.1532
13742WAT      O55673   3.377   6.060   1.960 -0.1208 -0.0015 -0.0898
13742WAT     H155674   3.463   6.059   1.947 -0.3865  0.6529 -2.3066
13742WAT     H255675   3.355   5.976   1.962  0.1993 -0.2292 -2.8233
13742WAT    EPW55676   3.386   6.048   1.959 -0.0839  0.5883 -0.3406
13743WAT      O55677   7.222   1.842   2.470 -0.7388  0.7159 -0.0935
13743WAT     H155678   7.276   1.885   2.523  1.5790  0.2535 -1.8840
13743WAT     H255679   7.256   1.857   2.391 -1.7064 -1.7867 -1.0713
13743WAT    EPW55680   7.235   1.851   2.466 -0.7033  0.1612  0.5472
13744WAT      O55681   1.663   1.140   4.673 -0.1273  0.3633  0.0600
13744WAT     H155682   1.685   1.058   4.653 -0.8499 -0.3970  2.0479
13744WAT     H255683   1.732   1.170   4.716 -0.5820  0.0934  1.0115
13744WAT    EPW55684   1.676   1.132   4.677  0.1132 -0.0562  0.0873
13745WAT      O55685   7.730   1.465   0.882 -0.5912 -0.3504 -0.1618
13745WAT     H155686   7.697   1.490   0.959  1.3867  1.7435  0.1222
13745WAT     H255687   7.777   1.395   0.902  0.4569  0.5675  0.7427
13745WAT    EPW55688   7.732   1.459   0.896  0.7665  0.0118  0.0229
13746WAT      O55689   0.991   3.176   2.839  0.0126  0.1177 -0.5707
13746WAT     H155690   0.991   3.091   2.820  1.4252 -0.1504  0.5219
13746WAT     H255691   1.073   3.201   2.826 -0.0980  1.0321  0.3551
13746WAT    EPW55692   1.003   3.167   2.834  0.8490 -0.2810 -0.3234
13747WAT      O55693   2.999   2.148   4.363 -0.5277  0.0315  0.4935
13747WAT     H155694   3.015   2.075   4.318 -2.5285  0.6306 -1.3983
13747WAT     H255695   3.040   2.210   4.316 -1.8942  0.5448 -0.1056
13747WAT    EPW55696   3.007   2.147   4.349 -0.3814  0.1685  0.1567
13748WAT      O55697   2.849   1.261   5.303  0.0458  0.9964 -0.1276
13748WAT     H155698   2.935   1.246   5.297 -0.1453 -0.2486 -0.0684
13748WAT     H255699   2.839   1.339   5.266  1.3984  1.8360  1.1723
13748WAT    EPW55700   2.861   1.270   5.297  0.4047  0.1876  0.4237
13749WAT      O55701   0.480   7.193   3.783 -0.3536 -0.0530  0.4960
13749WAT     H155702   0.549   7.216   3.832 -1.1098  1.4728  0.9108
13749WAT     H255703   0.515   7.182   3.703  0.7774 -1.9009  1.1819
13749WAT    EPW55704   0.496   7.195   3.778  0.6206 -0.0000 -0.0466
13750WAT      O55705   7.636   4.420   1.121 -0.0803  0.1709  0.4425
13750WAT     H155706   7.633   4.418   1.208  0.4208  2.1036  0.5590
13750WAT     H255707   7.719   4.440   1.104 -0.3962  0.7849 -0.4335
13750WAT    EPW55708   7.648   4.423   1.131  0.0340 -0.4728  0.3940
13751WAT      O55709   5.645   0.586   0.756 -0.2574 -0.0829 -0.3421
13751WAT     H155710   5.569   0.626   0.744 -1.8508 -2.4957  0.8700
13751WAT     H255711   5.670   0.563   0.676 -1.3323 -0.1597 -0.6617
13751WAT    EPW55712   5.638   0.589   0.742 -0.4693  0.8021  0.5107
13752WAT      O55713   0.423   3.070   3.452 -0.3441  0.1754 -0.3560
13752WAT     H155714   0.493   3.051   3.403 -0.5165  0.4927 -0.7300
13752WAT     H255715   0.435   3.022   3.524  0.5722  0.7088 -0.1429
13752WAT    EPW55716   0.436   3.060   3.456  0.1670  0.3269 -0.2611
13753WAT      O55717   1.063   7.926   3.804 -0.5753  0.4992  0.5151
13753WAT     H155718   1.124   7.926   3.741 -1.4113  0.7896 -0.3188
13753WAT     H255719   1.053   7.841   3.822  0.0034  0.4434  0.5896
13753WAT    EPW55720   1.071   7.913   3.797 -0.1536  0.0650 -0.0780
13754WAT      O55721   0.392   2.983   0.806 -0.1636 -0.2089  0.1014
13754WAT     H155722   0.388   2.915   0.751 -1.2713  1.2008 -1.6719
13754WAT     H255723   0.333   2.963   0.867  1.6997 -2.2123  1.4349
13754WAT    EPW55724   0.383   2.970   0.807  0.7903  0.3926 -0.2145
13755WAT      O55725   0.477   5.279   2.002  0.0853  0.1061 -0.8487
13755WAT     H155726   0.491   5.332   2.070  1.5158  0.7033 -1.5572
13755WAT     H255727   0.410   5.230   2.028  0.5703  0.3190  0.9924
13755WAT    EPW55728   0.469   5.279   2.016 -0.6566  0.2726 -0.1094
13756WAT      O55729   3.385   0.127   1.318  0.0820  0.3688 -0.1797
13756WAT     H155730   3.466   0.158   1.328  0.0633  0.1800  0.5915
13756WAT     H255731   3.397   0.040   1.316 -0.0673  0.3528 -0.4154
13756WAT    EPW55732   3.399   0.119   1.319 -0.3621 -0.9127  0.2135
13757WAT      O55733   6.702   0.081   0.861 -0.2720  0.0252  0.3278
13757WAT     H155734   6.739   0.073   0.939  1.4468 -1.1365 -0.5194
13757WAT     H255735   6.771   0.085   0.807 -1.3963  1.2530 -1.1040
13757WAT    EPW55736   6.718   0.080   0.864  0.4312  0.0913 -0.3837
13758WAT      O55737   3.681   0.748   3.934 -0.1895 -0.5202  0.1264
13758WAT     H155738   3.765   0.770   3.929  0.1735 -1.5524  1.3694
13758WAT     H255739   3.654   0.785   4.008 -1.1383  0.6962 -0.7831
13758WAT    EPW55740   3.689   0.757   3.944 -0.5995 -0.0893  0.0519
13759WAT      O55741   2.292   3.489   5.038 -0.1534 -0.2430 -0.2229
13759WAT     H155742   2.325   3.569   5.052 -2.1748  0.2009  3.2506
13759WAT     H255743   2.332   3.441   5.099 -1.9289 -0.8473  0.5181
13759WAT    EPW55744   2.303   3.494   5.049  0.0488  0.5528 -0.2976
13760WAT      O55745   3.190   6.072   2.581  0.3982  0.0646  0.5157
13760WAT     H155746   3.191   6.138   2.638 -1.5412  0.7099 -0.1375
13760WAT     H255747   3.184   6.112   2.504  0.6214 -0.8522  0.0168
13760WAT    EPW55748   3.189   6.088   2.578  0.3318 -0.4423  0.3210
13761WAT      O55749   4.838   0.833   7.925 -0.0546 -0.3876 -0.0503
13761WAT     H155750   4.818   0.749   7.933  1.9400 -1.1117 -1.6763
13761WAT     H255751   4.924   0.835   7.943  0.0736  1.1881 -0.6814
13761WAT    EPW55752   4.848   0.821   7.929  0.1308  0.1335 -0.2453
13762WAT      O55753   7.343   0.085   2.562  0.1868 -0.3259 -0.1532
13762WAT     H155754   7.428   0.097   2.547 -0.1250  0.7646 -1.1520
13762WAT     H255755   7.305   0.153   2.522 -0.9513  1.1238  3.0424
13762WAT    EPW55756   7.350   0.097   2.554  0.2909 -0.1898  0.6558
13763WAT      O55757   0.455   1.374   3.334 -0.0010 -0.5246  0.0182
13763WAT     H155758   0.510   1.309   3.314 -0.2250 -0.7783  0.2164
13763WAT     H255759   0.498   1.421   3.394  0.1315 -0.5333 -0.0718
13763WAT    EPW55760   0.469   1.371   3.340  0.1443 -0.5918 -0.2807
13764WAT      O55761   6.519   0.735   0.375  0.4763 -0.0976  0.6019
13764WAT     H155762   6.594   0.698   0.350 -1.0330 -2.1531 -1.3810
13764WAT     H255763   6.501   0.790   0.310  0.1611  0.2470  0.9759
13764WAT    EPW55764   6.527   0.738   0.361 -0.6722 -0.2777 -0.3925
13765WAT      O55765   1.108   5.737   1.827 -0.4669 -0.2302  0.6126
13765WAT     H155766   1.022   5.728   1.818 -0.3217 -1.3022  0.2214
13765WAT     H255767   1.119   5.744   1.914 -0.9075 -0.4545  0.6854
13765WAT    EPW55768   1.097   5.737   1.839 -0.2994 -0.0581 -0.1087
13766WAT      O55769   6.966   7.869   3.881 -0.4665  0.4002 -0.2293
13766WAT     H155770   7.007   7.921   3.938  0.0243 -0.0426 -0.1714
13766WAT     H255771   6.941   7.801   3.930  1.1029 -0.6108 -0.7647
13766WAT    EPW55772   6.968   7.867   3.896 -0.0681  0.3653  0.5396
13767WAT      O55773   0.292   2.227   0.443  0.2983  0.0279  0.8402
13767WAT     H155774   0.248   2.182   0.382 -0.0733  1.7669 -0.2253
13767WAT     H255775   0.365   2.180   0.454  0.8708  0.1866 -1.7397
13767WAT    EPW55776   0.297   2.213   0.436 -0.1933 -0.7033 -0.0160
13768WAT      O55777   7.304   0.562   3.003  0.2914  0.5094  0.1796
13768WAT     H155778   7.350   0.557   3.077  1.1713  0.3564 -0.3609
13768WAT     H255779   7.347   0.509   2.948 -0.1343  0.8992 -0.5476
13768WAT    EPW55780   7.317   0.553   3.005 -0.1753 -0.1984 -0.2509
13769WAT      O55781   6.142   5.260   2.378 -0.0679  0.1145  0.2738
13769WAT     H155782   6.113   5.329   2.333  1.2560  0.4282 -0.1307
13769WAT     H255783   6.099   5.193   2.343 -1.5615  0.7262  0.8278
13769WAT    EPW55784   6.131   5.261   2.366  0.9399 -0.6801 -0.4477
13770WAT      O55785   5.978   0.472   4.176 -0.3681 -0.2988 -0.0167
13770WAT     H155786   6.052   0.503   4.210  0.3539 -1.8802 -0.0477
13770WAT     H255787   6.005   0.409   4.122 -1.7612 -1.4649  0.5742
13770WAT    EPW55788   5.993   0.467   4.173  0.0392  0.1040 -0.0187
13771WAT      O55789   2.016   5.975   1.640 -0.2299  0.0322 -0.2648
13771WAT     H155790   2.073   6.001   1.700  0.6875  0.1444 -1.1464
13771WAT     H255791   2.019   5.888   1.645  0.8235 -0.0007 -0.9808
13771WAT    EPW55792   2.025   5.966   1.649 -0.4264  0.7347  0.2541
13772WAT      O55793   3.970   0.941   4.085 -0.7920 -0.0518  0.0966
13772WAT     H155794   3.959   0.902   4.163 -0.4942  1.5522  1.0010
13772WAT     H255795   4.055   0.959   4.083 -0.7431 -0.3637 -0.7654
13772WAT    EPW55796   3.981   0.938   4.096 -0.0324 -0.6415 -0.2573
13773WAT      O55797   2.677   2.530   2.266 -0.5537 -0.0336 -0.3298
13773WAT     H155798   2.627   2.580   2.215  1.0287  1.4868 -0.4669
13773WAT     H255799   2.728   2.487   2.209 -0.6251 -0.4040 -0.1233
13773WAT    EPW55800   2.678   2.531   2.250 -0.2904 -0.7697  0.6115
13774WAT      O55801   1.953   5.487   0.259  0.1590  0.4050 -0.4229
13774WAT     H155802   2.036   5.466   0.276  0.4896  0.6605 -1.6456
13774WAT     H255803   1.936   5.446   0.184 -1.0957 -0.2926  0.1972
13774WAT    EPW55804   1.963   5.478   0.250 -0.3971  0.1884  0.1122
13775WAT      O55805   0.016   7.107   2.686 -0.4303 -0.5561  0.7453
13775WAT     H155806  -0.058   7.152   2.700 -0.3748 -0.6323  1.2912
13775WAT     H255807   0.044   7.137   2.609 -0.4101  0.3222  1.0887
13775WAT    EPW55808   0.009   7.118   2.677  0.5079  0.3520 -0.1769
13776WAT      O55809   1.936   6.565   0.034  0.2864  0.4221 -0.4037
13776WAT     H155810   1.915   6.644   0.003 -0.6435  0.4152  0.1715
13776WAT     H255811   1.922   6.512  -0.034 -0.1572  0.6113 -0.4636
13776WAT    EPW55812   1.931   6.569   0.019  0.1098 -0.1053  0.3117
13777WAT      O55813   1.870   3.856   7.565  0.4184 -0.0779  0.5858
13777WAT     H155814   1.820   3.812   7.621  0.0680  0.4668  0.7040
13777WAT     H255815   1.846   3.826   7.487 -1.1478  1.2253  0.5341
13777WAT    EPW55816   1.859   3.845   7.562 -0.4146 -0.5485 -0.2251
13778WAT      O55817   2.843   0.765   3.145 -0.0662 -0.0310 -0.8275
13778WAT     H155818   2.866   0.840   3.183  1.6894 -1.1668  0.4914
13778WAT     H255819   2.776   0.737   3.194 -2.1338  1.5583 -2.5416
13778WAT    EPW55820   2.836   0.772   3.158  0.3809  0.1243  0.1232
13779WAT      O55821   2.283   0.068   6.631 -0.1621 -0.0838  0.1169
13779WAT     H155822   2.353   0.019   6.616  1.6378  2.4856 -0.5690
13779WAT     H255823   2.255   0.090   6.551 -0.2503  0.8606  0.3928
13779WAT    EPW55824   2.289   0.064   6.617 -0.0316  1.1985  0.1843
13780WAT      O55825   3.185   4.105   2.136  0.0071 -0.0572  0.2367
13780WAT     H155826   3.258   4.085   2.091  0.2675  0.6279  0.3385
13780WAT     H255827   3.138   4.032   2.132 -0.1740  0.1177 -1.5528
13780WAT    EPW55828   3.189   4.091   2.129  0.1680  0.3448 -0.2736
13781WAT      O55829   1.676   2.887   0.173  0.1772  0.5781  0.6015
13781WAT     H155830   1.597   2.910   0.144 -0.1648 -0.4100  0.7050
13781WAT     H255831   1.682   2.929   0.249  0.5390  2.1324 -0.2516
13781WAT    EPW55832   1.665   2.896   0.180 -0.3314 -0.1551 -0.6510
13782WAT      O55833   1.696   4.405   7.452  0.1830 -0.4996 -0.2715
13782WAT     H155834   1.641   4.455   7.407  0.8112 -0.9741 -1.6161
13782WAT     H255835   1.773   4.445   7.443  0.3640 -0.7352  0.1845
13782WAT    EPW55836   1.699   4.418   7.444 -0.8690 -0.1846  0.6696
13783WAT      O55837   1.929   4.474   7.143 -0.0761  0.1151  0.2424
13783WAT     H155838   1.868   4.412   7.151 -2.7528  2.6514  0.9726
13783WAT     H255839   1.912   4.510   7.066 -0.0085  1.3515  0.7884
13783WAT    EPW55840   1.918   4.470   7.133 -0.2419 -0.2356 -0.6010
13784WAT      O55841   7.663   7.544   3.315  0.5596 -0.9547 -0.2052
13784WAT     H155842   7.698   7.553   3.394 -1.2345 -0.9230  0.6407
13784WAT     H255843   7.710   7.480   3.279  0.2057 -2.3616  1.6544
13784WAT    EPW55844   7.675   7.536   3.322  0.8413  0.3766  0.0870
13785WAT      O55845   7.045   1.176   2.766 -0.4363  0.8342  0.1885
13785WAT     H155846   7.091   1.134   2.705  1.1124 -1.8656  2.9246
13785WAT     H255847   7.101   1.234   2.798 -0.4739  0.7296  0.4534
13785WAT    EPW55848   7.060   1.178   2.762  0.1497 -0.3075  0.5459
13786WAT      O55849   1.524   3.365   7.633 -0.4937 -0.4624 -0.4801
13786WAT     H155850   1.516   3.395   7.714 -1.1208  1.0181 -1.0626
13786WAT     H255851   1.473   3.294   7.632 -0.3459 -0.5876  0.4465
13786WAT    EPW55852   1.516   3.359   7.645 -0.0354 -1.3912 -0.4294
13787WAT      O55853   3.029   0.794   2.547 -0.0795  0.2783 -0.2549
13787WAT     H155854   3.114   0.795   2.525 -0.4438  0.1532 -1.7796
13787WAT     H255855   2.993   0.851   2.493 -1.0355  0.0415  0.1133
13787WAT    EPW55856   3.036   0.802   2.536  0.3583 -0.4221 -0.1404
13788WAT      O55857   6.275   7.834   4.326 -0.3708  0.5670  0.3313
13788WAT     H155858   6.192   7.856   4.315 -0.2764  1.3013  1.0248
13788WAT     H255859   6.285   7.834   4.413  0.8288  2.4309  0.2531
13788WAT    EPW55860   6.264   7.837   4.337 -0.4950 -0.9402  0.1553
13789WAT      O55861   1.280   1.402   0.252 -0.0048  0.0462 -0.1932
13789WAT     H155862   1.242   1.472   0.286 -0.1703  0.3083 -0.8977
13789WAT     H255863   1.365   1.420   0.259 -0.0307  0.0108  0.2481
13789WAT    EPW55864   1.287   1.415   0.258 -0.0755  0.3047 -0.5408
13790WAT      O55865   5.659   0.734   0.298 -0.2036 -0.1547  0.3688
13790WAT     H155866   5.714   0.796   0.271 -1.3597  1.2077  1.0024
13790WAT     H255867   5.708   0.686   0.352  0.5247  0.7041  0.5062
13790WAT    EPW55868   5.675   0.736   0.302 -0.3946 -0.3645  0.4173
13791WAT      O55869   6.843   0.614   2.097 -0.4673  0.2860  0.0123
13791WAT     H155870   6.905   0.675   2.100 -0.3630  0.1494  2.5105
13791WAT     H255871   6.779   0.646   2.146 -1.1546 -0.8631 -0.0854
13791WAT    EPW55872   6.843   0.628   2.104  0.9596  0.1266 -0.9619
13792WAT      O55873   6.659   4.801   0.975 -0.5704  0.6389 -0.3295
13792WAT     H155874   6.600   4.803   0.911 -0.2235 -0.7692 -0.7414
13792WAT     H255875   6.719   4.743   0.946  0.1226  0.7436  0.8124
13792WAT    EPW55876   6.659   4.793   0.961 -0.0270 -0.5924  0.0299
13793WAT      O55877   1.299   1.249   2.475  0.1260 -0.3816 -0.1557
13793WAT     H155878   1.296   1.162   2.481  0.4838 -0.3066  1.6066
13793WAT     H255879   1.233   1.268   2.421  0.9925 -1.8226 -1.8223
13793WAT    EPW55880   1.289   1.239   2.468  0.3032 -0.1175  0.4198
13794WAT      O55881   6.395   1.912   2.733 -0.0491 -0.8148 -0.3321
13794WAT     H155882   6.454   1.878   2.789  2.1891  1.9933 -0.7253
13794WAT     H255883   6.445   1.953   2.674 -2.3730 -2.1827 -3.4969
13794WAT    EPW55884   6.411   1.913   2.733  0.2401  0.0885 -0.0047
13795WAT      O55885   0.632   3.626   2.524 -0.2104 -0.2907  0.0421
13795WAT     H155886   0.684   3.666   2.582 -0.6771 -0.8671  0.8842
13795WAT     H255887   0.664   3.652   2.447 -0.2802  1.4079  0.5370
13795WAT    EPW55888   0.645   3.636   2.521 -0.1624 -0.5466  0.0491
13796WAT      O55889   2.780   3.443   5.220 -0.1204 -0.5857 -0.1539
13796WAT     H155890   2.836   3.502   5.187  0.4685 -0.2999  1.2990
13796WAT     H255891   2.814   3.423   5.297 -1.4684 -1.2157  0.3050
13796WAT    EPW55892   2.793   3.449   5.226 -0.1536  0.5092  0.1870
13797WAT      O55893   6.763   3.653   4.675  0.0138 -0.3413 -0.1959
13797WAT     H155894   6.839   3.628   4.709 -0.0179 -0.6785 -0.3670
13797WAT     H255895   6.764   3.617   4.595 -0.5054 -0.7011 -0.0432
13797WAT    EPW55896   6.774   3.644   4.668 -0.0734  0.1626 -0.2076
13798WAT      O55897   5.190   3.677   4.110  0.5354 -0.4480  0.5787
13798WAT     H155898   5.197   3.755   4.148 -0.8814 -0.7717  1.5729
13798WAT     H255899   5.210   3.621   4.174 -0.4802 -0.9545  0.4707
13798WAT    EPW55900   5.194   3.680   4.125 -0.0919  0.5525 -0.2684
13799WAT      O55901   6.370   6.697   5.057  0.2092 -0.6019 -0.5112
13799WAT     H155902   6.439   6.745   5.034  1.1472 -0.5497  2.1171
13799WAT     H255903   6.306   6.755   5.065  1.0729  0.1474  1.6019
13799WAT    EPW55904   6.371   6.712   5.055  0.1844 -0.4413  0.8183
13800WAT      O55905   8.009   6.411   1.489  0.2681 -0.1712 -0.1326
13800WAT     H155906   8.086   6.447   1.506  0.5147 -1.2794  1.2631
13800WAT     H255907   7.958   6.439   1.555 -0.3225 -0.0319 -0.6369
13800WAT    EPW55908   8.013   6.421   1.502  0.0982 -0.5351 -0.5568
13801WAT      O55909   5.170   6.643   0.493 -0.4242  0.0329 -0.2331
13801WAT     H155910   5.201   6.652   0.412  0.0725  0.8720  0.0323
13801WAT     H255911   5.129   6.719   0.507 -1.7263 -0.6530 -0.1939
13801WAT    EPW55912   5.168   6.656   0.483 -0.3294  0.0894  0.1877
13802WAT      O55913   3.973   2.215   1.601  0.3670 -0.6003  0.1182
13802WAT     H155914   3.943   2.237   1.680  0.5550  0.9582 -0.2101
13802WAT     H255915   3.908   2.237   1.547  0.0540 -2.0695 -0.1616
13802WAT    EPW55916   3.959   2.221   1.604  0.1402  0.7958 -0.3165
13803WAT      O55917   7.557   2.562   4.911 -0.3020 -0.1071 -0.0845
13803WAT     H155918   7.519   2.623   4.860 -0.4933 -1.1196 -1.1879
13803WAT     H255919   7.612   2.609   4.960 -0.1009  0.9147 -1.2225
13803WAT    EPW55920   7.559   2.578   4.911 -0.4774 -0.0234 -0.5183
13804WAT      O55921   2.302   3.083   8.021  0.0864  0.3506 -0.1178
13804WAT     H155922   2.301   3.000   7.996  1.0814  0.0499  0.7626
13804WAT     H255923   2.236   3.088   8.078  0.0317  0.1725 -0.1649
13804WAT    EPW55924   2.292   3.072   8.026  0.1983 -0.1746  0.4341
13805WAT      O55925   4.087   2.850   5.954  0.0640 -0.4387  0.0399
13805WAT     H155926   4.107   2.793   6.018 -0.1022  2.3802  2.8644
13805WAT     H255927   4.164   2.862   5.914  0.6106 -0.9961  0.8665
13805WAT    EPW55928   4.102   2.843   5.958 -0.0582 -0.3533 -0.2222
13806WAT      O55929   3.498   1.933   0.848  0.2005 -0.0229  0.1044
13806WAT     H155930   3.470   1.873   0.904  0.4498 -0.1826  0.0606
13806WAT     H255931   3.463   1.908   0.772 -1.4450  1.0601  0.4354
13806WAT    EPW55932   3.489   1.921   0.845 -0.8257  0.0794 -0.1257
13807WAT      O55933   3.014   0.459   0.428 -0.3957 -0.6064 -0.9121
13807WAT     H155934   2.972   0.456   0.505 -1.6306  0.6645 -1.4936
13807WAT     H255935   3.015   0.376   0.402  1.6705 -1.3819  1.2658
13807WAT    EPW55936   3.008   0.446   0.436 -0.4894  0.2004 -0.0424
13808WAT      O55937   6.883   5.181   2.748  0.7035 -0.2486 -0.0450
13808WAT     H155938   6.889   5.212   2.666  0.0303 -1.0292 -0.4033
13808WAT     H255939   6.820   5.230   2.783  2.5836  1.7506  0.8291
13808WAT    EPW55940   6.875   5.193   2.741 -0.2199  0.2940 -0.2858
13809WAT      O55941   2.274   3.975   4.080 -0.4804 -0.2711 -0.6813
13809WAT     H155942   2.351   3.933   4.086 -0.7893 -0.7855 -0.3090
13809WAT     H255943   2.216   3.917   4.110 -1.2628 -0.5545 -2.6099
13809WAT    EPW55944   2.277   3.960   4.085 -0.2283  0.1968 -0.7304
13810WAT      O55945   2.494   3.385   1.234  0.0292  0.3124 -0.2830
13810WAT     H155946   2.485   3.342   1.310 -0.1143 -1.0821 -1.0592
13810WAT     H255947   2.524   3.463   1.259  1.6882 -0.6897  1.1139
13810WAT    EPW55948   2.497   3.391   1.249  0.0637  0.9411  0.1768
13811WAT      O55949   1.679   3.986   1.190 -0.0305 -0.2900  0.2663
13811WAT     H155950   1.623   4.052   1.199 -0.1860 -0.6306  2.1989
13811WAT     H255951   1.757   4.025   1.192 -0.1207 -0.1290  1.5000
13811WAT    EPW55952   1.682   4.001   1.192  0.0962  0.4232 -0.6156
13812WAT      O55953   4.289   3.125   0.920 -0.2128  0.1130  0.0211
13812WAT     H155954   4.310   3.111   1.003  0.0850 -1.0863 -0.2288
13812WAT     H255955   4.347   3.076   0.876 -0.2388  0.8821 -0.8957
13812WAT    EPW55956   4.300   3.115   0.926  0.1528  0.3605  0.0289
13813WAT      O55957   7.507   0.829   3.381  0.1147 -0.4362  0.3124
13813WAT     H155958   7.425   0.832   3.409  0.1324  2.0480  0.3419
13813WAT     H255959   7.551   0.874   3.442  1.0562  0.3685 -0.8961
13813WAT    EPW55960   7.502   0.836   3.394  1.1393  0.0620  0.3805
13814WAT      O55961   1.801   2.439   3.560 -0.8250  0.4139 -0.0086
13814WAT     H155962   1.803   2.403   3.481 -2.6052 -2.2092  0.9970
13814WAT     H255963   1.863   2.396   3.604 -0.1480  1.5382  0.1534
13814WAT    EPW55964   1.810   2.427   3.555  0.4276  0.0822  0.3619
13815WAT      O55965   2.789   6.601   2.886  0.0657 -0.2392  0.0863
13815WAT     H155966   2.706   6.591   2.911 -0.3263 -0.0842 -1.0611
13815WAT     H255967   2.830   6.626   2.958 -0.4754 -2.2537  1.1613
13815WAT    EPW55968   2.783   6.603   2.900  0.2371 -0.1335 -0.2509
13816WAT      O55969   2.066   2.479   3.942 -0.1624  0.1849  0.1535
13816WAT     H155970   2.130   2.422   3.958  0.8688  1.7222  1.9154
13816WAT     H255971   2.105   2.539   3.892 -0.1356  1.1803  1.3166
13816WAT    EPW55972   2.082   2.479   3.937  0.5578  0.1443  0.0630
13817WAT      O55973   1.949   1.442   7.066 -0.1290 -0.2159 -0.2479
13817WAT     H155974   1.961   1.445   6.980 -2.0019 -0.8581 -0.5723
13817WAT     H255975   2.010   1.386   7.093  1.1747  0.7791 -0.9620
13817WAT    EPW55976   1.960   1.434   7.057  0.1978  0.0946 -0.0859
13818WAT      O55977   4.581   0.564   7.049  0.0072 -0.3166 -0.1193
13818WAT     H155978   4.643   0.566   6.987 -0.2193  0.8223 -0.3258
13818WAT     H255979   4.627   0.565   7.123  0.2544 -0.1074 -0.2733
13818WAT    EPW55980   4.597   0.564   7.051  0.0816 -0.5044 -0.0071
13819WAT      O55981   3.232   0.559   1.802  0.1014 -0.0495 -0.0466
13819WAT     H155982   3.264   0.614   1.742  0.6081  1.3610  1.4331
13819WAT     H255983   3.146   0.566   1.793  0.1675 -0.8229 -1.4303
13819WAT    EPW55984   3.224   0.568   1.792 -0.4691 -0.1344  0.1894
13820WAT      O55985   3.154   2.711   5.389 -0.0076  0.6837 -0.2205
13820WAT     H155986   3.168   2.783   5.342  1.4366 -0.2922 -1.3824
13820WAT     H255987   3.161   2.738   5.472 -0.0797  1.9717 -0.6170
13820WAT    EPW55988   3.157   2.726   5.394 -0.5720  0.0338 -0.4123
13821WAT      O55989   1.487   4.485   6.541 -0.0095  0.2222  0.4590
13821WAT     H155990   1.518   4.509   6.464  0.2504  0.7769  0.7302
13821WAT     H255991   1.489   4.559   6.588 -0.3681 -0.0570  0.9258
13821WAT    EPW55992   1.492   4.499   6.537  0.0289 -0.0006  0.2701
13822WAT      O55993   2.823   0.360   2.400 -0.4399 -0.1158 -0.2315
13822WAT     H155994   2.876   0.423   2.427  0.4590 -0.8618 -0.1964
13822WAT     H255995   2.756   0.363   2.456  0.4996 -0.4214  0.9360
13822WAT    EPW55996   2.821   0.370   2.412 -0.0097 -0.1346 -0.4439
13823WAT      O55997   1.969   2.989   6.735  0.0428  0.6110 -0.2674
13823WAT     H155998   2.044   3.024   6.706  1.0429 -0.5828  0.7927
13823WAT     H255999   1.986   2.971   6.818 -1.4312  0.2864 -0.0166
13823WAT    EPW56000   1.982   2.992   6.743 -0.6191 -0.1184 -0.1847
13824WAT      O56001   2.223   1.344   7.855 -0.2367 -0.4926  0.0280
13824WAT     H156002   2.301   1.314   7.882  0.1979  0.9953  0.5111
13824WAT     H256003   2.167   1.305   7.910  0.1126 -1.7964 -0.5038
13824WAT    EPW56004   2.227   1.334   7.867  0.0175 -0.3490 -0.1760
13825WAT      O56005   7.706   1.102   1.710 -0.0074  0.4252 -0.1094
13825WAT     H156006   7.726   1.062   1.635  0.6659 -0.2321  0.4043
13825WAT     H256007   7.740   1.050   1.771 -1.2597  0.5041  0.7100
13825WAT    EPW56008   7.714   1.088   1.708  0.2969  0.4045  0.2988
13826WAT      O56009   1.914   4.784   3.196 -0.1601 -0.2276 -0.2121
13826WAT     H156010   1.864   4.855   3.195  0.6059  0.3246 -0.4825
13826WAT     H256011   1.989   4.811   3.161  0.7972 -0.6857  1.3510
13826WAT    EPW56012   1.918   4.798   3.191 -0.5554  0.0443  0.1071
13827WAT      O56013   4.115   7.799   7.369 -0.0620  0.3992 -0.2175
13827WAT     H156014   4.193   7.760   7.374 -0.5620 -0.5961  0.1548
13827WAT     H256015   4.134   7.884   7.376  1.1732  0.3464 -2.1580
13827WAT    EPW56016   4.130   7.806   7.371  0.1547 -0.3348 -0.1913
13828WAT      O56017   0.895   6.984   1.183 -0.2169 -0.2399 -0.4998
13828WAT     H156018   0.844   6.999   1.114 -2.5566 -2.2170  0.6759
13828WAT     H256019   0.875   7.048   1.238 -0.3077 -0.1704 -0.6132
13828WAT    EPW56020   0.885   6.996   1.181  0.1506  0.0520  0.2208
13829WAT      O56021   1.887   7.854   5.070 -0.2107  0.6584  0.2732
13829WAT     H156022   1.974   7.856   5.060 -0.3380  0.5199 -1.0121
13829WAT     H256023   1.877   7.847   5.156  1.1341 -1.8535  0.3372
13829WAT    EPW56024   1.899   7.853   5.081  0.1662  0.3946  0.1445
13830WAT      O56025   5.101   3.518   4.569 -0.5697 -0.0160 -0.2010
13830WAT     H156026   5.157   3.458   4.598  0.9854  0.3118 -2.3231
13830WAT     H256027   5.052   3.474   4.512  0.2639  0.5655 -1.4088
13830WAT    EPW56028   5.102   3.503   4.565 -0.8900  0.4725 -0.1667
13831WAT      O56029   1.756   1.009   0.203 -0.1732 -0.0541  0.3962
13831WAT     H156030   1.815   1.069   0.225 -1.1464  1.4475 -0.9379
13831WAT     H256031   1.702   1.007   0.272 -0.2358  0.7428  0.3774
13831WAT    EPW56032   1.757   1.017   0.217  0.2217  0.2537 -0.0862
13832WAT      O56033   6.174   1.289   0.265 -0.0678  0.6073 -0.2524
13832WAT     H156034   6.107   1.335   0.233  0.4077  1.4614 -0.0465
13832WAT     H256035   6.192   1.329   0.340 -0.1361 -0.3990  0.3154
13832WAT    EPW56036   6.167   1.302   0.271 -1.3675 -0.2322  0.2383
13833WAT      O56037   2.630   7.293   5.853 -0.5918  0.7441 -0.0160
13833WAT     H156038   2.593   7.372   5.844  0.6204  1.4300  0.8105
13833WAT     H256039   2.593   7.261   5.925  1.0571  1.8461  1.3887
13833WAT    EPW56040   2.619   7.300   5.862  0.3018 -0.6750  0.2315
13834WAT      O56041   1.853   7.520   7.968  0.0016  0.2802  0.4461
13834WAT     H156042   1.781   7.566   7.953 -0.0434  0.2450  0.5556
13834WAT     H256043   1.830   7.465   8.031  0.2186  0.4923  0.7110
13834WAT    EPW56044   1.839   7.519   7.975  0.0393 -0.4757  0.4694
13835WAT      O56045   2.401   0.526   7.890  0.0977  0.1587 -0.3148
13835WAT     H156046   2.325   0.528   7.933  1.0492 -0.2382  1.5148
13835WAT     H256047   2.443   0.597   7.920  0.9098 -0.2974 -0.3348
13835WAT    EPW56048   2.396   0.537   7.901 -0.2577  0.0376 -0.1693
13836WAT      O56049   5.582   2.565   6.532  0.1782  0.7750  0.0249
13836WAT     H156050   5.609   2.483   6.542 -0.3289  0.8439  2.9149
13836WAT     H256051   5.652   2.607   6.502  1.6769 -0.0911  2.0422
13836WAT    EPW56052   5.596   2.559   6.529 -0.4430  0.1551  0.4756
13837WAT      O56053   1.945   5.695   1.681  0.9402 -0.2834  0.5318
13837WAT     H156054   1.896   5.692   1.753  0.3562  0.0460  0.1503
13837WAT     H256055   1.890   5.673   1.617  1.4027 -0.3725  0.1538
13837WAT    EPW56056   1.930   5.691   1.682 -0.2272  0.2919 -0.3175
13838WAT      O56057   2.447   6.825   0.333  0.0334 -0.5033 -0.1469
13838WAT     H156058   2.516   6.832   0.281 -0.1879 -0.0718 -0.3959
13838WAT     H256059   2.443   6.903   0.372 -0.9729 -0.0943 -0.9959
13838WAT    EPW56060   2.456   6.838   0.331 -0.3735  0.2162  0.7973
13839WAT      O56061   0.637   4.994   7.909  0.1227 -0.6623 -0.0914
13839WAT     H156062   0.580   5.056   7.930 -2.5070 -2.5239 -1.1730
13839WAT     H256063   0.643   5.000   7.822  0.2239 -1.5796 -0.1591
13839WAT    EPW56064   0.629   5.004   7.899 -0.3178  0.9827 -0.3075
13840WAT      O56065   5.315   1.602   0.466  0.3358 -0.4925 -0.4281
13840WAT     H156066   5.352   1.548   0.523  0.1829  1.5458  1.7649
13840WAT     H256067   5.337   1.569   0.388  2.8422 -1.9306  0.7878
13840WAT    EPW56068   5.323   1.589   0.463  0.3131 -0.3118  0.4291
13841WAT      O56069   7.800   7.525   0.107  0.0919 -0.0619  0.1345
13841WAT     H156070   7.764   7.471   0.165  0.1502  0.2439  0.4569
13841WAT     H256071   7.732   7.560   0.066  0.0357  0.1257  0.3881
13841WAT    EPW56072   7.785   7.522   0.110  0.1521  0.6564  0.0438
13842WAT      O56073   3.673   1.489   1.635 -0.0757  0.3613  0.2727
13842WAT     H156074   3.692   1.420   1.586  0.5171  0.7852 -0.1077
13842WAT     H256075   3.695   1.464   1.716 -1.3450 -0.4495  0.4032
13842WAT    EPW56076   3.679   1.475   1.640 -0.4038 -0.4259 -0.0569
13843WAT      O56077   1.849   1.906   6.294  0.2521 -0.7021  0.6146
13843WAT     H156078   1.848   1.957   6.365  0.1717 -0.9964  0.8313
13843WAT     H256079   1.906   1.843   6.315 -0.0002 -0.9578  0.5432
13843WAT    EPW56080   1.857   1.904   6.308 -0.2944  0.1214  0.1192
13844WAT      O56081   5.982   1.505   5.338  0.0511 -0.3689  0.0522
13844WAT     H156082   5.912   1.454   5.344  0.0448 -0.3251  0.3689
13844WAT     H256083   6.047   1.453   5.364  0.4041 -0.9497 -1.8733
13844WAT    EPW56084   5.981   1.490   5.343  0.3335  0.1973 -0.2688
13845WAT      O56085   2.449   4.953   2.297  0.1248  0.9572  0.1337
13845WAT     H156086   2.469   4.970   2.381  0.8678 -0.0629  0.1801
13845WAT     H256087   2.489   4.877   2.282  1.7599  2.0869 -1.7396
13845WAT    EPW56088   2.458   4.944   2.308 -0.5275  0.2241  0.0172
13846WAT      O56089   6.442   0.052   7.204 -0.3111 -0.1033 -0.1660
13846WAT     H156090   6.468   0.100   7.136 -1.7664 -0.1575 -0.7940
13846WAT     H256091   6.381   0.000   7.170 -0.8462 -0.3469  1.1260
13846WAT    EPW56092   6.437   0.052   7.189 -0.1463 -0.2807 -0.5559
13847WAT      O56093   5.774   3.373   1.386 -0.5903  0.2197  0.2489
13847WAT     H156094   5.759   3.421   1.315 -0.7178  1.3227  0.9808
13847WAT     H256095   5.694   3.352   1.413 -0.5580  0.1635  0.3018
13847WAT    EPW56096   5.760   3.377   1.380 -0.7117 -0.0475 -0.1513
13848WAT      O56097   5.636   3.072   0.855 -0.0348 -0.0739  0.4387
13848WAT     H156098   5.628   3.017   0.787 -0.2002  0.8733 -0.3397
13848WAT     H256099   5.603   3.147   0.824  3.2516  1.4763  0.2648
13848WAT    EPW56100   5.630   3.075   0.840  0.8445 -0.0385 -0.3580
13849WAT      O56101   7.834   3.175   2.007  0.6370  0.1405  0.1825
13849WAT     H156102   7.893   3.185   2.071  0.4125 -2.1432  0.8122
13849WAT     H256103   7.794   3.253   2.005  0.7810  0.3748  2.6958
13849WAT    EPW56104   7.837   3.188   2.017 -0.6894  0.6448  0.1136
13850WAT      O56105   2.584   6.855   5.511  0.3182  0.3930 -0.4524
13850WAT     H156106   2.605   6.912   5.573  1.9790  0.8884 -1.4114
13850WAT     H256107   2.648   6.796   5.515 -0.7199 -0.7717 -0.2882
13850WAT    EPW56108   2.596   6.855   5.520  0.7662 -0.2801  0.2052
13851WAT      O56109   4.734   4.695   4.177 -0.4549 -0.3242 -0.3794
13851WAT     H156110   4.681   4.626   4.178  0.0622 -0.7229  0.5348
13851WAT     H256111   4.806   4.666   4.217  1.4781 -0.6099 -3.6533
13851WAT    EPW56112   4.737   4.680   4.183  0.3437  0.0978 -0.7032
13852WAT      O56113   2.519   2.683   7.407  0.2881 -0.1721  0.0252
13852WAT     H156114   2.588   2.638   7.437  0.1058 -1.0965 -0.9121
13852WAT     H256115   2.480   2.711   7.480  1.5554  0.2529  0.5807
13852WAT    EPW56116   2.524   2.681   7.423 -0.1646  0.5791  0.1567
13853WAT      O56117   0.521   2.862   1.414  0.0247 -0.1490  0.0319
13853WAT     H156118   0.487   2.886   1.338 -0.5313 -1.0834 -0.0319
13853WAT     H256119   0.469   2.796   1.440  0.4530 -0.1176  1.0118
13853WAT    EPW56120   0.508   2.856   1.407 -0.4208 -0.3459 -0.2859
13854WAT      O56121   3.418   7.218   4.098  0.3421 -0.0008  0.5927
13854WAT     H156122   3.472   7.250   4.038  0.2502  0.0587  0.5415
13854WAT     H256123   3.470   7.168   4.147 -0.0158 -2.2577 -1.1255
13854WAT    EPW56124   3.434   7.215   4.096 -0.2801 -0.3157 -0.1468
13855WAT      O56125   2.700   0.450   3.884  0.4460 -0.1253  0.1377
13855WAT     H156126   2.703   0.384   3.827 -0.2454  0.5634 -0.7285
13855WAT     H256127   2.765   0.432   3.939  2.0001 -0.1471 -1.6069
13855WAT    EPW56128   2.710   0.437   3.883 -0.2265  0.0322  0.8386
13856WAT      O56129   5.457   6.982   2.275 -0.8469  0.2162 -0.0438
13856WAT     H156130   5.538   6.995   2.246 -1.0730  0.1148 -0.7252
13856WAT     H256131   5.407   7.011   2.210 -1.3664  0.9437  0.6649
13856WAT    EPW56132   5.462   6.988   2.261 -0.5922  0.1810 -0.2960
13857WAT      O56133   4.388   2.021   2.981  0.6075  0.5119 -0.3831
13857WAT     H156134   4.344   1.959   2.938  2.1930 -0.0738 -1.2454
13857WAT     H256135   4.366   2.094   2.940  0.4895  0.2155 -0.8577
13857WAT    EPW56136   4.378   2.022   2.969  0.0452  0.1154  0.3183
13858WAT      O56137   3.057   2.546   1.355 -0.1536  0.3174 -0.5148
13858WAT     H156138   3.066   2.532   1.441 -4.0527 -0.0097  0.0292
13858WAT     H256139   3.084   2.628   1.344  3.4555 -0.5904  0.2555
13858WAT    EPW56140   3.062   2.556   1.366 -0.2302  0.0277 -0.6084
13859WAT      O56141   2.101   4.138   3.861 -0.2673  0.1403  0.1611
13859WAT     H156142   2.174   4.179   3.889 -0.2187  0.5423 -0.5330
13859WAT     H256143   2.049   4.139   3.931  0.3042  0.0659  0.5930
13859WAT    EPW56144   2.104   4.145   3.876 -0.7756 -0.3366 -0.2573
13860WAT      O56145   1.980   1.350   5.849  0.5944 -0.0984  0.5667
13860WAT     H156146   1.971   1.343   5.935  3.0383 -3.6539  0.7470
13860WAT     H256147   2.066   1.350   5.837  0.3465  1.2196 -1.9074
13860WAT    EPW56148   1.991   1.349   5.860  0.4332 -0.1683  0.1213
13861WAT      O56149   2.328   1.438   3.730 -0.0303  0.4380 -0.1423
13861WAT     H156150   2.244   1.460   3.725 -0.1389 -0.0615 -0.6356
13861WAT     H256151   2.338   1.412   3.813 -0.5749 -0.3028 -0.2933
13861WAT    EPW56152   2.317   1.437   3.742 -0.0954  0.2450 -0.9374
13862WAT      O56153   6.035   5.250   2.707 -0.0334 -0.5527 -0.6101
13862WAT     H156154   6.043   5.171   2.742  3.3037 -0.1909 -0.1943
13862WAT     H256155   6.018   5.235   2.623 -1.0324 -1.6393 -0.2249
13862WAT    EPW56156   6.034   5.236   2.700 -0.0094  0.2688  0.1934
13863WAT      O56157   2.381   4.334   6.249 -0.0825  0.3273 -0.1359
13863WAT     H156158   2.386   4.415   6.282 -0.2919  0.6387 -0.8645
13863WAT     H256159   2.460   4.301   6.265 -0.2248  0.4099  0.8320
13863WAT    EPW56160   2.393   4.341   6.256  0.0661  0.0423 -0.1823
13864WAT      O56161   5.296   2.109   4.736 -0.6000 -0.3401  0.1671
13864WAT     H156162   5.239   2.064   4.688 -2.4286  1.0638  0.8845
13864WAT     H256163   5.248   2.175   4.768  1.2984  0.5675  1.3315
13864WAT    EPW56164   5.280   2.112   4.734 -0.2897  0.1486  0.7608
13865WAT      O56165   4.829   6.105   2.276 -0.4458  0.1033  0.5275
13865WAT     H156166   4.864   6.105   2.196 -0.9546  1.3292  0.2809
13865WAT     H256167   4.743   6.108   2.260 -0.5323  1.6264  1.0851
13865WAT    EPW56168   4.821   6.106   2.262  0.1499  0.5861  0.3633
13866WAT      O56169   2.417   4.055   2.073  0.5052 -0.1201 -0.4596
13866WAT     H156170   2.465   4.121   2.106 -0.3122  0.6011 -0.6829
13866WAT     H256171   2.465   3.984   2.091  0.2389  0.2351  2.1024
13866WAT    EPW56172   2.431   4.054   2.081  0.2304 -0.0353  0.3461
13867WAT      O56173   4.780   3.213   1.792  0.5740 -0.2332 -0.2775
13867WAT     H156174   4.760   3.160   1.859 -1.2870 -0.5506 -1.0477
13867WAT     H256175   4.728   3.281   1.803  0.5166 -0.1179 -1.1908
13867WAT    EPW56176   4.770   3.215   1.804 -1.4063  0.5958 -0.1108
13868WAT      O56177   1.455   0.272   7.662 -0.0762  0.0951 -0.0627
13868WAT     H156178   1.502   0.263   7.735  0.2783  1.1004 -0.1548
13868WAT     H256179   1.498   0.222   7.604 -0.7642 -1.2891  0.5636
13868WAT    EPW56180   1.468   0.263   7.664 -0.2081 -0.4132  0.0630
13869WAT      O56181   0.433   5.662   1.904 -0.3473  0.1527  0.1503
13869WAT     H156182   0.462   5.737   1.938  0.5901  0.0544 -0.4083
13869WAT     H256183   0.473   5.658   1.827 -1.0446 -0.5192 -0.1906
13869WAT    EPW56184   0.443   5.673   1.898 -0.1279  0.2122  0.1246
13870WAT      O56185   2.637   4.745   7.655 -0.5574  0.3645 -0.6623
13870WAT     H156186   2.648   4.812   7.710  2.4309 -1.8567  1.8295
13870WAT     H256187   2.705   4.752   7.600  0.1738 -0.8891  0.0381
13870WAT    EPW56188   2.649   4.756   7.655  0.8501 -0.1164 -0.3315
13871WAT      O56189   1.679   0.995   7.814 -0.3853 -0.3426 -0.4430
13871WAT     H156190   1.614   1.032   7.769  1.2828 -0.3569 -3.0982
13871WAT     H256191   1.744   0.993   7.756  0.8670 -3.7161  0.8696
13871WAT    EPW56192   1.679   1.000   7.799  0.2546  0.1617 -0.3032
13872WAT      O56193   2.329   7.515   5.015  0.2836 -0.2656  0.3214
13872WAT     H156194   2.368   7.566   4.955  1.5488 -1.2859  0.2211
13872WAT     H256195   2.396   7.480   5.059 -0.6040 -0.2624  1.7332
13872WAT    EPW56196   2.345   7.517   5.012  0.0067  0.0548 -0.8004
13873WAT      O56197   1.049   4.342   4.598  0.5096  0.2337  0.1537
13873WAT     H156198   1.067   4.424   4.623  1.6457 -0.7306  2.9146
13873WAT     H256199   0.967   4.347   4.567  0.8235  2.5009 -0.4893
13873WAT    EPW56200   1.039   4.355   4.597 -0.2723 -0.0136 -0.3359
13874WAT      O56201   1.856   0.535   8.050 -0.5761 -0.4088  0.1799
13874WAT     H156202   1.814   0.562   7.978  1.8006  1.4561 -0.6621
13874WAT     H256203   1.865   0.608   8.097  3.1478 -0.1636 -0.5615
13874WAT    EPW56204   1.851   0.550   8.046 -0.8389  0.3987 -0.2241
13875WAT      O56205   1.410   1.341   7.273  0.1406  0.5100 -0.1122
13875WAT     H156206   1.467   1.364   7.335  0.0520 -0.1466  0.2191
13875WAT     H256207   1.404   1.255   7.281  0.0927  0.4168 -1.0102
13875WAT    EPW56208   1.417   1.332   7.283  0.1074 -0.6499 -0.3197
13876WAT      O56209   2.431   2.657   0.062  0.2354  0.0893 -0.6147
13876WAT     H156210   2.399   2.722   0.111  0.9074  0.1012 -0.1792
13876WAT     H256211   2.398   2.586   0.099  1.5309  0.0327  0.5016
13876WAT    EPW56212   2.422   2.656   0.075  0.1709  0.2357  0.5878
13877WAT      O56213   2.296   1.724   4.263 -0.4264  0.1272  0.3266
13877WAT     H156214   2.327   1.797   4.302  1.5201 -0.3747 -0.1579
13877WAT     H256215   2.231   1.700   4.315  0.0735  1.2158  1.5286
13877WAT    EPW56216   2.291   1.731   4.277  0.2053  0.5323 -0.6298
13878WAT      O56217   1.809   0.699   0.216 -0.3848 -0.8740 -0.6895
13878WAT     H156218   1.791   0.784   0.219 -1.0451 -0.9239 -2.2574
13878WAT     H256219   1.888   0.693   0.254 -0.1594  0.4727 -0.9028
13878WAT    EPW56220   1.818   0.710   0.222 -0.5678 -0.2667  0.3147
13879WAT      O56221   1.671   5.338   5.111 -0.0930  0.3150 -0.2696
13879WAT     H156222   1.700   5.416   5.137 -1.2247  1.2833 -1.7475
13879WAT     H256223   1.609   5.357   5.053 -0.2344 -1.6962 -0.8703
13879WAT    EPW56224   1.666   5.352   5.106 -0.0977  0.2317 -0.3707
13880WAT      O56225   1.256   2.299   4.634 -0.3450  0.0797  0.1505
13880WAT     H156226   1.246   2.308   4.548 -1.6292  0.5578  0.3107
13880WAT     H256227   1.177   2.323   4.665 -0.4144 -1.5962  1.3558
13880WAT    EPW56228   1.243   2.304   4.626  0.4941  0.1162 -0.0699
13881WAT      O56229   3.392   3.309   2.252  0.5647  0.3304 -0.3265
13881WAT     H156230   3.415   3.224   2.256  1.2260  0.5157  3.6670
13881WAT     H256231   3.466   3.351   2.272 -0.4977  1.6069  1.1390
13881WAT    EPW56232   3.406   3.302   2.256 -0.0211  0.2359 -1.0482
13882WAT      O56233   0.717   0.232   4.392  0.0743 -0.5785  0.0783
13882WAT     H156234   0.804   0.238   4.396  0.0411 -0.0880  0.1035
13882WAT     H256235   0.702   0.201   4.311  0.2399 -0.0217 -0.1651
13882WAT    EPW56236   0.727   0.228   4.380  0.1392 -0.4827  0.1198
13883WAT      O56237   4.460   0.695   6.607 -0.3978  0.3671  0.0128
13883WAT     H156238   4.394   0.710   6.552 -1.0932 -1.0836  0.3955
13883WAT     H256239   4.433   0.626   6.653  1.5638 -0.5415 -0.1008
13883WAT    EPW56240   4.446   0.687   6.606  0.0791 -0.3419 -0.3972
13884WAT      O56241   2.198   2.200   4.773 -0.1808 -0.1550  0.2620
13884WAT     H156242   2.158   2.237   4.842  0.2692 -1.0989  1.0501
13884WAT     H256243   2.282   2.212   4.790 -0.0649  0.8573 -0.8604
13884WAT    EPW56244   2.204   2.207   4.786  0.4125  0.5894  0.4170
13885WAT      O56245   2.878   7.282   6.001  0.4529 -0.5020  0.1903
13885WAT     H156246   2.886   7.345   6.062 -1.4899 -1.1026  1.1588
13885WAT     H256247   2.798   7.294   5.970  0.5323 -1.7273 -0.5354
13885WAT    EPW56248   2.867   7.293   6.006  0.3485  0.5657 -0.0149
13886WAT      O56249   3.522   5.739   2.778 -0.1103  0.3797 -0.4815
13886WAT     H156250   3.573   5.786   2.725 -0.1535  2.5488  1.2330
13886WAT     H256251   3.507   5.793   2.845 -2.7098 -1.0413  0.2144
13886WAT    EPW56252   3.527   5.754   2.780  0.2536 -0.2585 -0.5284
13887WAT      O56253   0.209   4.063   2.581 -0.0056  1.2215  0.4055
13887WAT     H156254   0.247   4.108   2.516  2.3045  1.1371  1.5698
13887WAT     H256255   0.191   3.985   2.545 -2.5041  2.4040 -1.1610
13887WAT    EPW56256   0.212   4.058   2.566 -0.0903  0.4330 -0.2121
13888WAT      O56257   8.030   7.517   2.986 -0.2438  0.6521  0.4846
13888WAT     H156258   8.043   7.602   3.000 -0.1575  0.9737 -1.3311
13888WAT     H256259   8.059   7.505   2.904 -2.4852 -0.6060 -0.2058
13888WAT    EPW56260   8.036   7.528   2.976 -0.0620  0.2874  0.1754
13889WAT      O56261   5.414   7.827   3.308  0.6635  0.1752  0.6489
13889WAT     H156262   5.411   7.859   3.227  3.0781  2.8940  1.4259
13889WAT     H256263   5.495   7.846   3.334  0.7622 -2.6940  2.9654
13889WAT    EPW56264   5.426   7.835   3.300 -0.1168  0.0948 -0.2404
13890WAT      O56265   1.697   5.640   4.601  0.8348  0.1096  0.1224
13890WAT     H156266   1.615   5.668   4.615 -0.0962 -2.4785  0.2647
13890WAT     H256267   1.731   5.635   4.681  1.2526  1.3671  0.0510
13890WAT    EPW56268   1.690   5.644   4.615 -0.1667 -0.1031  0.1206
13891WAT      O56269   3.868   7.151   4.952  0.0087 -0.3634 -0.0664
13891WAT     H156270   3.881   7.067   4.972  0.1230 -0.1564  0.7603
13891WAT     H256271   3.799   7.149   4.898 -0.6506 -0.9080  0.7758
13891WAT    EPW56272   3.860   7.138   4.947 -0.6941 -0.2392 -0.3652
13892WAT      O56273   3.653   1.682   4.715 -0.2414  0.2473  0.5257
13892WAT     H156274   3.617   1.689   4.793 -1.0852 -0.8165  0.2591
13892WAT     H256275   3.674   1.764   4.694 -1.6102  0.7762  1.1189
13892WAT    EPW56276   3.651   1.695   4.723 -0.1404  0.0123 -0.0968
13893WAT      O56277   2.616   5.354   6.039  0.0760 -0.1254  0.1967
13893WAT     H156278   2.625   5.379   5.956 -0.8790  0.9520  0.3936
13893WAT     H256279   2.602   5.429   6.081  0.6534 -0.6493  1.3573
13893WAT    EPW56280   2.615   5.369   6.033 -0.0169  0.2406  0.3724
13894WAT      O56281   3.766   7.741   3.071 -0.0796 -0.4867  0.3496
13894WAT     H156282   3.849   7.759   3.053 -0.1225  0.0721  0.6936
13894WAT     H256283   3.725   7.816   3.055 -0.6379 -0.9640 -0.5473
13894WAT    EPW56284   3.772   7.755   3.066  0.0590 -0.4081 -0.5145
13895WAT      O56285   2.009   5.596   0.727 -0.4253 -0.5354 -0.1234
13895WAT     H156286   1.982   5.515   0.745  1.4523 -0.8128  1.9446
13895WAT     H256287   2.041   5.624   0.804 -1.0489  2.1951 -0.7576
13895WAT    EPW56288   2.010   5.588   0.741  0.4836  0.7069  0.4309
13896WAT      O56289   6.623   3.133   3.672  0.2203  0.5738 -0.0447
13896WAT     H156290   6.617   3.070   3.612  0.1985  0.7776 -0.2599
13896WAT     H256291   6.604   3.093   3.747  0.8996  0.1729 -0.0830
13896WAT    EPW56292   6.619   3.118   3.674 -0.5768 -0.3595  0.1772
13897WAT      O56293   3.047   8.015   2.275 -0.0309  0.4260 -0.1049
13897WAT     H156294   3.114   8.072   2.279 -0.4064  0.8235  1.9132
13897WAT     H256295   3.052   7.973   2.352 -2.7867  1.3194  0.6859
13897WAT    EPW56296   3.058   8.017   2.287 -0.0294 -0.5026  0.5595
13898WAT      O56297   7.926   0.162   4.110 -0.6402 -0.1792  0.0154
13898WAT     H156298   7.847   0.142   4.141 -1.7957  2.4694 -0.9283
13898WAT     H256299   7.972   0.182   4.181 -0.6348 -2.0490  0.6035
13898WAT    EPW56300   7.921   0.162   4.125  0.2282  0.9192  0.1398
13899WAT      O56301   5.666   5.064   6.382 -0.2239  0.4485  0.3516
13899WAT     H156302   5.603   5.007   6.364  0.7244  0.2569 -3.2042
13899WAT     H256303   5.631   5.115   6.443 -3.5904 -0.0005 -0.9757
13899WAT    EPW56304   5.652   5.063   6.388  0.2949  0.1609 -0.0193
13900WAT      O56305   2.046   2.803   0.184  0.0399 -0.4710 -0.3963
13900WAT     H156306   2.018   2.810   0.267  2.9799 -0.5616  0.7330
13900WAT     H256307   2.018   2.724   0.159 -0.6770 -0.5475  0.5726
13900WAT    EPW56308   2.037   2.793   0.193  0.3481  0.0028 -0.0628
13901WAT      O56309   2.587   5.034   6.902  0.1058  0.1109 -0.5148
13901WAT     H156310   2.638   4.970   6.931  1.4454  1.4777  0.3479
13901WAT     H256311   2.526   5.041   6.964  1.4255  1.2689  0.7420
13901WAT    EPW56312   2.586   5.026   6.916  0.2722 -0.1111 -0.2027
13902WAT      O56313   4.742   0.734   1.098  0.2205  0.3788 -0.3188
13902WAT     H156314   4.792   0.695   1.158 -0.2358  1.6986  0.9818
13902WAT     H256315   4.761   0.691   1.025 -0.0427 -2.0639  0.9382
13902WAT    EPW56316   4.752   0.722   1.096  0.3450 -0.4453 -0.5343
13903WAT      O56317   1.003   6.807   1.390 -0.3921  0.1834 -0.3656
13903WAT     H156318   0.947   6.834   1.329  0.3702  0.4665 -0.9507
13903WAT     H256319   1.066   6.868   1.389 -0.4390  0.2905  0.8197
13903WAT    EPW56320   1.004   6.820   1.381  0.3369  0.3504 -0.2716
13904WAT      O56321   7.642   0.529   2.033  0.0501  0.0136  0.4592
13904WAT     H156322   7.598   0.578   2.091  0.5736  0.3391  0.5944
13904WAT     H256323   7.623   0.447   2.056 -2.5155  0.0863 -1.0321
13904WAT    EPW56324   7.632   0.524   2.045 -0.1159  0.2100 -0.4004
13905WAT      O56325   3.464   0.494   0.215  0.0176  0.0716 -0.0954
13905WAT     H156326   3.452   0.457   0.293 -0.6010 -0.0901 -0.2670
13905WAT     H256327   3.405   0.455   0.164  0.7927 -0.2349 -0.7852
13905WAT    EPW56328   3.454   0.483   0.219 -0.2090  0.0821 -0.2082
13906WAT      O56329   6.658   1.426   4.166  0.0205  0.1838 -0.0291
13906WAT     H156330   6.712   1.372   4.207 -2.0879 -1.4206  0.8232
13906WAT     H256331   6.588   1.429   4.219 -1.3129  1.0313 -1.7345
13906WAT    EPW56332   6.655   1.419   4.180  0.1539 -0.5102  0.5109
13907WAT      O56333   2.954   1.269   5.923  0.1157 -0.1487  0.8179
13907WAT     H156334   2.875   1.300   5.903  0.0621 -0.2833  0.8182
13907WAT     H256335   2.997   1.339   5.953  0.4035  0.1917 -0.3407
13907WAT    EPW56336   2.949   1.284   5.925  0.1075  0.1082 -0.6235
13908WAT      O56337   4.457   1.361   3.640 -0.1212  0.4086  0.0043
13908WAT     H156338   4.406   1.323   3.700 -1.2041  1.1546 -0.4253
13908WAT     H256339   4.439   1.317   3.567  1.6271 -0.8964  0.2650
13908WAT    EPW56340   4.447   1.349   3.638 -0.8796 -0.2136 -0.6185
13909WAT      O56341   0.033   5.770   4.648  0.2682 -0.3725  0.5682
13909WAT     H156342   0.074   5.838   4.612 -4.6372  2.9285  0.2802
13909WAT     H256343   0.057   5.774   4.732 -0.5965  2.5982  0.7961
13909WAT    EPW56344   0.043   5.781   4.655 -0.1194 -0.0199  0.5490
13910WAT      O56345   1.770   7.465   4.309 -0.2489  0.5168  0.2393
13910WAT     H156346   1.786   7.532   4.255  2.7598 -0.6794 -0.5339
13910WAT     H256347   1.752   7.504   4.385 -1.5163  2.1961 -0.8547
13910WAT    EPW56348   1.770   7.481   4.312 -0.3740 -0.3710 -0.3441
13911WAT      O56349   2.909   3.156   1.536  0.1681 -0.5015 -0.7263
13911WAT     H156350   2.914   3.234   1.575 -0.1669  0.3530 -2.3163
13911WAT     H256351   2.855   3.111   1.588 -1.0176  0.9076 -0.6609
13911WAT    EPW56352   2.902   3.161   1.550  0.7122 -0.1793  0.0281
13912WAT      O56353   3.435   7.900   4.844 -0.0296  0.2083 -0.5242
13912WAT     H156354   3.393   7.904   4.920  0.7572  0.9335 -0.1104
13912WAT     H256355   3.378   7.934   4.787  0.7965  3.5363  0.4223
13912WAT    EPW56356   3.420   7.906   4.847 -0.7164 -0.3166 -0.3149
13913WAT      O56357   0.910   3.345   0.329 -0.1917  0.7592  0.2614
13913WAT     H156358   0.860   3.399   0.282 -0.9555  0.3361  0.5752
13913WAT     H256359   0.856   3.280   0.350  0.8339 -0.3960 -0.5218
13913WAT    EPW56360   0.895   3.344   0.325  0.0619  0.0979 -0.3549
13914WAT      O56361   0.492   7.200   1.342 -0.3880 -0.4069  0.6686
13914WAT     H156362   0.443   7.132   1.366  0.3311 -0.5351  1.8432
13914WAT     H256363   0.491   7.196   1.255 -1.9037 -0.7894  0.6696
13914WAT    EPW56364   0.485   7.190   1.333 -0.4245  0.4710  0.3252
13915WAT      O56365   0.082   5.103   3.854  0.5242 -0.5746  0.1564
13915WAT     H156366   0.134   5.086   3.787 -0.0552 -2.2542  0.0859
13915WAT     H256367   0.085   5.190   3.861  1.4501 -0.4556 -1.3276
13915WAT    EPW56368   0.090   5.113   3.845  0.0691  0.2232  0.4247
13916WAT      O56369   0.487   4.446   2.053  0.2239  0.0834  0.3835
13916WAT     H156370   0.465   4.522   2.088  0.7280  0.1864  0.4871
13916WAT     H256371   0.572   4.439   2.071  0.1189 -0.6501  0.6526
13916WAT    EPW56372   0.496   4.456   2.061 -0.2584 -0.5097 -0.2345
13917WAT      O56373   2.351   6.200   2.450 -0.5138  0.0267 -0.3213
13917WAT     H156374   2.319   6.210   2.369  0.8142 -1.6218 -1.1101
13917WAT     H256375   2.284   6.221   2.501 -1.5606  0.6068 -1.8517
13917WAT    EPW56376   2.337   6.205   2.446 -0.5525 -0.3927 -0.1868
13918WAT      O56377   0.737   1.949   4.930 -0.6156  0.1150 -0.0175
13918WAT     H156378   0.713   1.952   4.846 -3.6147  1.1735  0.7596
13918WAT     H256379   0.679   2.000   4.970  2.2392  1.7780  2.4375
13918WAT    EPW56380   0.725   1.957   4.923  0.5521 -0.1930  0.5513
13919WAT      O56381   5.067   1.990   6.846 -0.4340 -0.2487 -0.0532
13919WAT     H156382   5.121   1.930   6.879 -0.4499 -0.6012 -0.6556
13919WAT     H256383   5.054   2.045   6.912 -0.8832 -1.2273  0.6906
13919WAT    EPW56384   5.073   1.989   6.860 -0.3483  0.3790  0.0969
13920WAT      O56385   4.821   3.142   5.015 -0.1743  0.0340  0.2735
13920WAT     H156386   4.892   3.180   5.050 -0.3394  0.2482  0.3764
13920WAT     H256387   4.793   3.200   4.957 -0.3326 -0.0003  0.3155
13920WAT    EPW56388   4.827   3.156   5.012 -0.2423  0.2783  0.1724
13921WAT      O56389   6.663   1.879   3.002 -0.0954 -0.3863 -0.9620
13921WAT     H156390   6.740   1.920   2.998  0.2867 -1.0617 -0.5572
13921WAT     H256391   6.607   1.944   3.019  0.6128 -0.1233  0.5535
13921WAT    EPW56392   6.666   1.895   3.004 -0.2521 -0.0794 -0.6453
13922WAT      O56393   3.422   1.786   3.850  0.1008  0.2542 -0.2117
13922WAT     H156394   3.425   1.707   3.812  3.4122  0.2761 -0.2817
13922WAT     H256395   3.490   1.828   3.816 -0.1936  2.3407  1.5416
13922WAT    EPW56396   3.432   1.781   3.840 -0.1383 -0.0154 -0.4914
13923WAT      O56397   6.740   6.002   4.479  0.3243 -0.1908  0.1961
13923WAT     H156398   6.700   5.982   4.405  1.1865  1.7309 -0.8450
13923WAT     H256399   6.729   6.088   4.486  0.1044 -0.3427  2.4229
13923WAT    EPW56400   6.732   6.012   4.469 -0.3852  0.2257  0.0638
13924WAT      O56401   1.658   6.153   0.346 -0.9627 -0.5397  0.4173
13924WAT     H156402   1.665   6.067   0.334 -1.8306 -0.4915 -0.6779
13924WAT     H256403   1.581   6.172   0.309  0.2493  1.0396 -1.4840
13924WAT    EPW56404   1.648   6.143   0.339  0.0651  0.2259 -0.1434
13925WAT      O56405   1.722   3.360   4.167  0.0845 -0.5071  0.2646
13925WAT     H156406   1.808   3.371   4.157  0.0831  1.3060  1.7841
13925WAT     H256407   1.694   3.348   4.085  1.6287  0.1110 -0.3949
13925WAT    EPW56408   1.731   3.360   4.153 -0.5521 -1.0297 -0.2357
13926WAT      O56409   3.614   0.582   3.731  0.3721 -0.3966 -0.1462
13926WAT     H156410   3.631   0.648   3.785  1.2765 -0.3426 -0.4787
13926WAT     H256411   3.565   0.529   3.779 -0.7625  0.7178 -0.0188
13926WAT    EPW56412   3.610   0.584   3.746  0.2959 -0.2108 -0.2905
13927WAT      O56413   1.819   7.792   5.906 -0.9466  0.7576 -0.0007
13927WAT     H156414   1.831   7.726   5.851 -0.4331  0.1418  0.8298
13927WAT     H256415   1.773   7.850   5.859  0.6741  0.8840 -1.5373
13927WAT    EPW56416   1.814   7.791   5.891  0.4324  0.0438 -0.2151
13928WAT      O56417   4.466   6.274   5.486  0.5072 -0.0309  0.2415
13928WAT     H156418   4.478   6.327   5.417 -0.0130 -0.5973 -0.2923
13928WAT     H256419   4.381   6.254   5.482  0.3214  0.4427  1.4288
13928WAT    EPW56420   4.455   6.279   5.475 -0.3646  0.0552  0.3118
13929WAT      O56421   0.938   0.595   0.973  0.2882 -0.5970 -0.4383
13929WAT     H156422   0.933   0.515   1.006 -0.3913 -0.5214 -0.3546
13929WAT     H256423   0.973   0.582   0.894  1.8326 -0.7872  0.2359
13929WAT    EPW56424   0.943   0.581   0.966 -0.4977 -0.1259  0.2488
13930WAT      O56425   3.434   7.634   6.240  0.1435  0.9179 -0.2678
13930WAT     H156426   3.425   7.561   6.288  3.3174 -0.9384 -2.1185
13930WAT     H256427   3.362   7.635   6.191 -0.2716 -0.6803  0.2478
13930WAT    EPW56428   3.422   7.623   6.239  0.8592  0.4299  0.1789
13931WAT      O56429   0.993   2.864   4.638  0.1977 -0.6791 -0.8450
13931WAT     H156430   0.970   2.812   4.572 -0.3094  0.2085 -1.3819
13931WAT     H256431   1.064   2.905   4.609  0.5432 -0.9948 -0.4584
13931WAT    EPW56432   1.000   2.863   4.624  0.2738  0.0612  0.3993
13932WAT      O56433   7.971   6.712   1.844 -0.1041 -0.7171  0.1457
13932WAT     H156434   7.938   6.640   1.808 -1.8731  0.0903  0.0413
13932WAT     H256435   7.980   6.691   1.928 -0.9202 -0.9599  0.1790
13932WAT    EPW56436   7.968   6.698   1.851 -0.0330  0.4261 -0.7219
13933WAT      O56437   0.990   0.362   7.598  0.1738 -0.3828  0.0950
13933WAT     H156438   1.002   0.275   7.591 -1.2893 -0.5553 -0.6092
13933WAT     H256439   1.048   0.385   7.659  0.5601 -1.8612  0.3451
13933WAT    EPW56440   1.001   0.352   7.606  0.2897  0.9751  0.1663
13934WAT      O56441   1.103   4.270   5.688  0.1213 -0.3537  0.8582
13934WAT     H156442   1.047   4.300   5.628  1.7610  0.5027 -0.3317
13934WAT     H256443   1.058   4.276   5.763 -1.9871 -1.4742 -0.2460
13934WAT    EPW56444   1.088   4.276   5.690  0.5811 -0.3298  0.0933
13935WAT      O56445   7.899   7.223   2.506  0.2627  0.8330 -0.4809
13935WAT     H156446   7.861   7.295   2.474 -0.2209  0.9080  0.2130
13935WAT     H256447   7.857   7.211   2.582  1.0129  0.3836 -0.1242
13935WAT    EPW56448   7.887   7.232   2.513  0.0607  0.3819  0.5113
13936WAT      O56449   1.737   1.316   6.510  0.2228 -0.6373 -0.2701
13936WAT     H156450   1.791   1.249   6.494  0.7054 -0.7228  1.4761
13936WAT     H256451   1.719   1.307   6.595 -1.7012  0.0310 -0.5683
13936WAT    EPW56452   1.742   1.305   6.520 -0.0044  0.4385 -0.4259
13937WAT      O56453   0.864   6.203   3.413 -0.0406  0.3482 -0.1730
13937WAT     H156454   0.824   6.133   3.446 -1.6194  0.7165 -1.1782
13937WAT     H256455   0.927   6.169   3.363  0.7087 -0.2605  1.1580
13937WAT    EPW56456   0.868   6.188   3.410  0.0265  0.6895  0.1790
13938WAT      O56457   4.580   0.287   5.401  0.3709 -0.0409  0.0881
13938WAT     H156458   4.623   0.363   5.412  1.0148 -0.3029 -0.5602
13938WAT     H256459   4.517   0.291   5.461  1.4623  0.2319  1.2728
13938WAT    EPW56460   4.577   0.299   5.412 -0.1288  0.2142  0.1155
13939WAT      O56461   7.337   2.461   4.411  0.7141 -0.0326  0.1886
13939WAT     H156462   7.282   2.509   4.363  0.3901  0.2676  0.8398
13939WAT     H256463   7.287   2.432   4.476  0.7112 -1.9555 -0.6144
13939WAT    EPW56464   7.322   2.464   4.413  0.2760  0.7396 -0.3312
13940WAT      O56465   1.077   5.437   7.826  0.2321  0.5842  0.0404
13940WAT     H156466   1.091   5.478   7.750 -1.8830  0.4907 -0.4512
13940WAT     H256467   1.097   5.498   7.886 -1.5972  1.9717 -0.6634
13940WAT    EPW56468   1.082   5.452   7.824  0.2264 -0.6965 -0.3750
13941WAT      O56469   4.578   7.653   3.751 -0.2466 -0.2957  0.5094
13941WAT     H156470   4.601   7.687   3.674 -0.5097 -0.9675  0.1201
13941WAT     H256471   4.555   7.571   3.730 -1.6968 -0.0577  1.0920
13941WAT    EPW56472   4.578   7.646   3.736 -0.6849  0.2172  0.1913
13942WAT      O56473   0.755   7.114   0.058  0.5385  0.2898 -0.3735
13942WAT     H156474   0.715   7.098   0.134  0.9940 -2.6828 -0.6409
13942WAT     H256475   0.801   7.187   0.074 -2.2576  1.8954  0.9536
13942WAT    EPW56476   0.756   7.123   0.072  0.5014 -0.2131  0.0505
13943WAT      O56477   1.422   0.459   5.006 -0.1895  0.4298 -0.3800
13943WAT     H156478   1.419   0.546   5.016  0.1045  0.4304 -0.2580
13943WAT     H256479   1.453   0.432   5.083  1.3045  0.3497 -0.9754
13943WAT    EPW56480   1.427   0.468   5.019  0.6487 -0.2273 -0.5049
13944WAT      O56481   2.326   6.993   3.615 -0.4163  0.2051 -0.5097
13944WAT     H156482   2.269   7.007   3.679  0.0131  0.0715 -0.0931
13944WAT     H256483   2.363   6.917   3.638 -0.1025  0.2704 -0.8012
13944WAT    EPW56484   2.323   6.984   3.628 -0.2801 -0.2641  0.2210
13945WAT      O56485   2.570   1.784   2.509 -0.0845 -0.2856  0.2088
13945WAT     H156486   2.526   1.804   2.436 -1.4158 -0.9838  0.7829
13945WAT     H256487   2.565   1.857   2.557  2.0088  0.6868 -0.8915
13945WAT    EPW56488   2.563   1.797   2.505  0.0299  0.0553 -1.0757
13946WAT      O56489   0.898   4.166   0.898  0.4666 -0.0845  0.2322
13946WAT     H156490   0.887   4.126   0.975 -1.9143 -1.2064 -0.6123
13946WAT     H256491   0.898   4.251   0.920  0.2866 -0.3879  1.5213
13946WAT    EPW56492   0.896   4.173   0.913  0.6057 -0.8503 -0.1992
13947WAT      O56493   5.429   5.128   0.998  0.0566 -0.0227 -0.1406
13947WAT     H156494   5.488   5.155   1.057 -0.0423  0.4346 -0.2458
13947WAT     H256495   5.477   5.084   0.940  0.0546 -1.1401  0.6663
13947WAT    EPW56496   5.445   5.125   0.998  0.6556  0.1268  0.3431
13948WAT      O56497   4.716   0.541   5.319  0.2391  0.0258  0.1844
13948WAT     H156498   4.679   0.563   5.243 -0.4535 -0.7861  0.2726
13948WAT     H256499   4.763   0.611   5.340 -1.7544  1.3711  0.4008
13948WAT    EPW56500   4.718   0.554   5.311  0.1676 -0.0087 -0.7571
13949WAT      O56501   4.767   1.141   3.958  0.5724  0.1884 -0.4384
13949WAT     H156502   4.835   1.088   3.942  1.9639  1.6190  0.4476
13949WAT     H256503   4.699   1.086   3.959  1.9939 -1.7199  0.9622
13949WAT    EPW56504   4.767   1.125   3.956 -0.0251  0.0926  0.1309
13950WAT      O56505   0.161   6.452   3.011  0.5538  0.0578 -0.2539
13950WAT     H156506   0.129   6.453   3.092  1.1522 -0.7825  0.0141
13950WAT     H256507   0.240   6.415   3.021 -0.0488 -1.6564 -1.4463
13950WAT    EPW56508   0.168   6.447   3.024 -0.2346 -0.2317  0.6221
13951WAT      O56509   1.021   4.387   2.244  0.3421 -0.1799 -0.2501
13951WAT     H156510   1.103   4.412   2.260  0.6568 -0.7460 -0.9111
13951WAT     H256511   1.008   4.411   2.162  0.5990 -1.9684 -0.8558
13951WAT    EPW56512   1.031   4.394   2.235  0.0204 -0.2489 -0.1103
13952WAT      O56513   2.221   2.064   4.142 -0.2878  0.4016  0.4092
13952WAT     H156514   2.161   2.019   4.097 -1.1884  0.9550  1.0006
13952WAT     H256515   2.211   2.035   4.224 -1.1783  1.9260  0.8792
13952WAT    EPW56516   2.210   2.053   4.147 -0.5649  0.1052  0.1046
13953WAT      O56517   2.758   2.725   3.716  0.5994 -0.2100 -0.4162
13953WAT     H156518   2.841   2.723   3.742  0.7692  0.0376 -0.9344
13953WAT     H256519   2.719   2.772   3.778  0.7234 -0.8453  0.1568
13953WAT    EPW56520   2.765   2.731   3.729  0.3799 -0.1443  0.0990
13954WAT      O56521   5.155   4.623   0.500 -0.2169 -0.3014 -0.0355
13954WAT     H156522   5.126   4.673   0.435 -1.7886 -0.3000  0.6146
13954WAT     H256523   5.152   4.675   0.570  2.5207  0.0449 -0.0822
13954WAT    EPW56524   5.150   4.638   0.501 -0.7322  0.1871 -0.5363
13955WAT      O56525   4.484   0.365   3.780 -0.0343  0.2240 -0.0630
13955WAT     H156526   4.556   0.336   3.740 -1.2139 -2.2245 -0.6188
13955WAT     H256527   4.472   0.443   3.744  1.2526 -0.1453 -1.4515
13955WAT    EPW56528   4.493   0.372   3.768 -0.3676  0.2147 -0.1927
13956WAT      O56529   3.680   3.251   7.327  0.3366 -0.3800 -0.5447
13956WAT     H156530   3.594   3.237   7.330  0.3426 -0.6129 -1.3481
13956WAT     H256531   3.688   3.336   7.348 -0.3822  0.5741 -3.6435
13956WAT    EPW56532   3.669   3.262   7.331  0.1785 -0.3275  1.0173
13957WAT      O56533   6.985   7.764   4.374  0.0274  0.4998 -0.3065
13957WAT     H156534   7.054   7.789   4.326  0.3919 -0.6054 -0.3968
13957WAT     H256535   6.982   7.823   4.438  1.6626  0.0254  0.2506
13957WAT    EPW56536   6.995   7.776   4.376 -0.3653  0.4039  0.1429
13958WAT      O56537   6.352   7.385   7.621  0.5133  0.1599 -0.0370
13958WAT     H156538   6.267   7.400   7.637  0.0218 -0.6579 -1.6699
13958WAT     H256539   6.373   7.325   7.680  0.2114  0.9883  0.9488
13958WAT    EPW56540   6.342   7.378   7.632  0.0632  0.0690  0.0667
13959WAT      O56541   2.888   7.948   0.999  0.0783  0.0844 -0.4201
13959WAT     H156542   2.857   7.992   0.930 -0.1043  0.0700 -0.3495
13959WAT     H256543   2.834   7.972   1.064  0.4254  0.3208 -0.2167
13959WAT    EPW56544   2.875   7.958   0.998  0.4761  0.0442  0.4495
13960WAT      O56545   3.704   7.548   1.601 -0.2016  0.0252  0.3136
13960WAT     H156546   3.764   7.555   1.538 -0.0732  1.8132  0.5841
13960WAT     H256547   3.635   7.590   1.569 -1.8629 -3.0213 -0.4969
13960WAT    EPW56548   3.702   7.555   1.587  0.1620 -0.0712  0.0408
13961WAT      O56549   4.769   0.394   2.865  0.4197 -0.0163  0.0429
13961WAT     H156550   4.790   0.334   2.924  0.4383 -0.4215 -0.3698
13961WAT     H256551   4.783   0.354   2.789  0.7997  0.6396 -0.2403
13961WAT    EPW56552   4.774   0.379   2.862  0.2335 -0.1638  0.4646
13962WAT      O56553   7.889   6.865   2.715 -0.0323  0.3140 -0.0233
13962WAT     H156554   7.923   6.787   2.697  0.0119 -0.1292  1.7910
13962WAT     H256555   7.958   6.919   2.709  0.1512  0.0520 -0.2907
13962WAT    EPW56556   7.904   6.862   2.712  0.2788  0.2697 -0.2756
13963WAT      O56557   1.785   1.571   5.912  0.8542 -0.5705  0.0535
13963WAT     H156558   1.710   1.541   5.878  0.3400 -0.4803  1.0677
13963WAT     H256559   1.776   1.556   5.997  1.1311  1.2701  0.4403
13963WAT    EPW56560   1.772   1.564   5.919 -0.6855 -0.0344 -0.4382
13964WAT      O56561   3.175   3.003   1.566 -0.2878  0.4158 -0.2548
13964WAT     H156562   3.100   3.047   1.555 -0.2223  0.4068 -0.7323
13964WAT     H256563   3.167   2.936   1.511 -0.9208 -0.8763  1.3029
13964WAT    EPW56564   3.163   2.999   1.557  0.1577 -0.7119  0.1214
13965WAT      O56565   2.553   1.740   4.847  0.5828  0.0357  0.3243
13965WAT     H156566   2.637   1.758   4.864  1.3708 -2.1619 -0.7994
13965WAT     H256567   2.545   1.759   4.762 -0.0604  0.2549  0.4326
13965WAT    EPW56568   2.565   1.745   4.837  0.2846  0.8560 -0.6314
13966WAT      O56569   1.621   7.987   3.470  0.7199 -0.1168  0.5366
13966WAT     H156570   1.610   8.068   3.440  1.6600 -0.1259  0.1292
13966WAT     H256571   1.591   7.991   3.552  0.0597  0.4400  0.2715
13966WAT    EPW56572   1.615   7.999   3.478 -0.4415 -0.5652  0.3676
13967WAT      O56573   5.612   7.925   3.061  0.2727  0.1198 -0.1431
13967WAT     H156574   5.552   7.975   3.023 -0.8415  0.4070  1.8679
13967WAT     H256575   5.672   7.982   3.088  0.1071  0.1223  0.2160
13967WAT    EPW56576   5.612   7.940   3.059  0.0773  0.2668  0.3396
13968WAT      O56577   2.745   2.232   3.998  0.0368 -0.0323  0.0750
13968WAT     H156578   2.752   2.301   4.052  0.5620 -0.6744  0.8628
13968WAT     H256579   2.718   2.168   4.051 -0.3205 -0.4642 -0.6216
13968WAT    EPW56580   2.742   2.233   4.014  0.4982 -0.4221  0.5946
13969WAT      O56581   3.181   5.200   3.226  0.3433  0.3968 -0.3191
13969WAT     H156582   3.200   5.261   3.285  0.8374 -0.6429  0.6420
13969WAT     H256583   3.196   5.125   3.269  0.5147 -0.3931 -1.6981
13969WAT    EPW56584   3.186   5.198   3.241 -0.9556 -0.2376 -0.5227
13970WAT      O56585   0.685   7.817   3.870  0.1742 -0.1372 -0.3560
13970WAT     H156586   0.662   7.733   3.877 -0.7523  0.1688  0.5010
13970WAT     H256587   0.715   7.823   3.789  1.2432 -1.5314 -0.1027
13970WAT    EPW56588   0.686   7.806   3.859  0.3398  0.0845  0.0836
13971WAT      O56589   1.956   0.710   6.647  0.2238 -0.0252 -0.0470
13971WAT     H156590   1.937   0.637   6.691 -1.4707 -0.2842 -1.1211
13971WAT     H256591   1.924   0.773   6.698 -1.4739 -0.3015 -0.7344
13971WAT    EPW56592   1.949   0.709   6.661  0.3028 -0.2916 -0.3147
13972WAT      O56593   7.955   5.482   2.662  0.0493  0.4593  0.0181
13972WAT     H156594   8.035   5.447   2.665 -1.2377 -2.9130 -0.4385
13972WAT     H256595   7.917   5.441   2.595 -2.5535  0.6990  1.2023
13972WAT    EPW56596   7.961   5.471   2.652 -0.1144  0.0626 -0.2446
13973WAT      O56597   0.665   6.523   2.428  0.0795  0.2513  0.1058
13973WAT     H156598   0.670   6.460   2.368 -2.6725  0.9686 -1.0380
13973WAT     H256599   0.643   6.593   2.382 -2.6764  0.7347  1.9414
13973WAT    EPW56600   0.663   6.524   2.413  0.6011  0.1297 -0.3027
13974WAT      O56601   0.086   7.165   4.104  0.0183  0.1477  0.2438
13974WAT     H156602   0.114   7.092   4.142 -1.1715 -0.4082  0.0732
13974WAT     H256603   0.125   7.163   4.026  0.6216  0.1191  0.5373
13974WAT    EPW56604   0.096   7.154   4.098 -0.1662  0.2970 -0.5817
13975WAT      O56605   1.029   6.840   1.930  0.1940 -0.2855 -0.0950
13975WAT     H156606   1.107   6.802   1.939  0.0186 -0.9359 -1.1314
13975WAT     H256607   0.978   6.775   1.902 -1.0730 -0.2011  1.8385
13975WAT    EPW56608   1.033   6.825   1.927  0.3248  0.0695  0.7659
13976WAT      O56609   7.854   6.901   4.167  0.2032  0.1018 -0.0659
13976WAT     H156610   7.770   6.916   4.182 -0.5565 -2.5648 -1.2031
13976WAT     H256611   7.895   6.959   4.218 -2.2593  3.0216 -1.1118
13976WAT    EPW56612   7.848   6.912   4.177 -0.2675 -0.4653  0.4009
13977WAT      O56613   1.926   2.335   2.108  0.1082  0.2609  0.3188
13977WAT     H156614   1.863   2.385   2.074 -0.0508 -1.0089 -1.3626
13977WAT     H256615   1.979   2.320   2.040  1.2681 -0.1597  1.2883
13977WAT    EPW56616   1.925   2.340   2.093  0.0495 -0.0519  0.0188
13978WAT      O56617   0.102   2.340   4.870  0.1285 -0.1808  0.0913
13978WAT     H156618   0.152   2.410   4.853 -1.6280  1.1508  0.2164
13978WAT     H256619   0.141   2.276   4.824  0.1529  1.5105 -2.4616
13978WAT    EPW56620   0.115   2.341   4.860 -0.1073  0.1151 -0.3247
13979WAT      O56621   2.266   3.324   3.822 -0.7124  0.2132  0.1364
13979WAT     H156622   2.342   3.354   3.852 -1.3146  0.1759  1.8054
13979WAT     H256623   2.267   3.346   3.738  1.8910 -1.2629 -0.3575
13979WAT    EPW56624   2.278   3.331   3.814 -0.1297  0.2023  0.4520
13980WAT      O56625   3.180   0.823   5.125 -0.7951 -0.6490 -0.1998
13980WAT     H156626   3.134   0.882   5.080 -2.5411 -1.2532  0.7009
13980WAT     H256627   3.249   0.867   5.153 -2.4072  1.2081  1.0773
13980WAT    EPW56628   3.183   0.838   5.122  0.1265  0.0962  0.3309
13981WAT      O56629   6.209   0.146   3.089 -0.6140  0.1762  0.1318
13981WAT     H156630   6.183   0.202   3.027 -1.9085 -0.6158 -0.0807
13981WAT     H256631   6.192   0.189   3.163 -3.1911 -0.5065  0.0249
13981WAT    EPW56632   6.202   0.161   3.091  0.2093  0.3350  0.0574
13982WAT      O56633   3.048   7.872   6.234 -0.0759  0.0966  0.5890
13982WAT     H156634   3.056   7.923   6.305  1.4503  0.7172 -0.0000
13982WAT     H256635   2.982   7.909   6.190 -0.2888  0.3731  1.1289
13982WAT    EPW56636   3.039   7.885   6.238 -0.6036 -0.1206 -0.5865
13983WAT      O56637   2.338   7.777   4.508 -0.6036  0.2778 -0.3690
13983WAT     H156638   2.315   7.726   4.575  0.6710 -0.3266 -0.3604
13983WAT     H256639   2.266   7.780   4.459 -1.0253 -0.6882  0.1534
13983WAT    EPW56640   2.324   7.770   4.511 -0.7292  0.8828 -0.0284
13984WAT      O56641   2.018   1.991   2.347  0.2086  0.0085  0.4481
13984WAT     H156642   1.946   1.965   2.305  0.1063  0.2892  0.4429
13984WAT     H256643   2.050   1.918   2.382  1.0847 -0.5094 -1.2928
13984WAT    EPW56644   2.012   1.977   2.346 -0.0497 -0.1946 -0.0548
13985WAT      O56645   7.959   1.678   1.567 -0.0473 -0.2209  0.6972
13985WAT     H156646   7.890   1.715   1.528  1.2081  0.1621 -1.3332
13985WAT     H256647   8.019   1.742   1.566  1.2737 -1.4198 -0.3642
13985WAT    EPW56648   7.957   1.693   1.561 -0.2320 -1.0223 -0.7289
13986WAT      O56649   7.933   4.963   4.133  0.1785  0.1693 -0.2465
13986WAT     H156650   7.933   4.876   4.145  2.5224  0.2599  1.0417
13986WAT     H256651   7.859   4.989   4.172  0.8345 -1.0159  1.9710
13986WAT    EPW56652   7.922   4.954   4.141  0.1525 -0.5272 -0.6784
13987WAT      O56653   1.394   1.046   7.348  0.3414 -0.6818  0.1277
13987WAT     H156654   1.449   1.032   7.414 -0.9287 -1.2589  1.1161
13987WAT     H256655   1.400   0.973   7.301 -1.5686 -2.0250  1.7841
13987WAT    EPW56656   1.403   1.033   7.351  0.0100  0.2228  0.4131
13988WAT      O56657   6.512   2.585   1.754 -0.0401 -0.0135 -0.7357
13988WAT     H156658   6.532   2.521   1.698 -0.6749 -0.9562  0.0672
13988WAT     H256659   6.582   2.590   1.806  0.4445  0.6879 -1.4376
13988WAT    EPW56660   6.525   2.576   1.754 -0.0431 -0.0828  0.0015
13989WAT      O56661   2.797   7.328   1.321  0.1360  0.6688 -0.4203
13989WAT     H156662   2.769   7.355   1.399  1.2541  0.4846  0.0701
13989WAT     H256663   2.783   7.397   1.269  1.6299  1.7385  0.5018
13989WAT    EPW56664   2.791   7.343   1.325  0.0104  0.0540  0.3297
13990WAT      O56665   4.781   1.183   0.015 -0.1720  0.1493 -0.0804
13990WAT     H156666   4.728   1.224   0.070 -1.0794  0.4851 -1.1718
13990WAT     H256667   4.761   1.217  -0.063  0.6646 -0.7245 -0.7043
13990WAT    EPW56668   4.770   1.194   0.012 -0.3282  0.5487 -0.3861
13991WAT      O56669   2.491   0.181   1.164  0.5098  0.2611  0.5013
13991WAT     H156670   2.408   0.159   1.151  0.2800  0.4206  1.6330
13991WAT     H256671   2.498   0.186   1.250  1.4279  1.2724  0.3894
13991WAT    EPW56672   2.480   0.179   1.175  0.5807 -0.0796  0.2737
13992WAT      O56673   0.917   7.217   2.307  0.3945 -0.5270 -0.5016
13992WAT     H156674   0.914   7.170   2.233 -0.7833 -1.7098  0.2590
13992WAT     H256675   0.844   7.265   2.303  0.9997  0.3947 -0.7108
13992WAT    EPW56676   0.906   7.217   2.295 -0.6557  0.0395  0.2390
13993WAT      O56677   0.954   7.290   3.405  0.1437 -0.1537 -0.0394
13993WAT     H156678   0.987   7.346   3.347  2.5743 -2.1850 -0.7851
13993WAT     H256679   0.875   7.271   3.371  1.1341 -0.6099 -2.3135
13993WAT    EPW56680   0.947   7.295   3.391 -0.5696  0.2721  0.1348
13994WAT      O56681   3.287   3.332   1.367  0.2525  0.4055  0.1116
13994WAT     H156682   3.205   3.335   1.338  0.7443 -0.8600 -1.6145
13994WAT     H256683   3.303   3.247   1.375  1.1529  0.6553  1.1984
13994WAT    EPW56684   3.277   3.320   1.364 -0.7416 -0.0775  0.3670
13995WAT      O56685   2.390   0.460   2.230  0.0698 -0.0746 -0.2481
13995WAT     H156686   2.468   0.448   2.191  0.5306  0.1642  0.5881
13995WAT     H256687   2.354   0.381   2.225  0.3706 -0.1963 -0.6236
13995WAT    EPW56688   2.396   0.446   2.223  0.1368 -0.0693 -0.2163
13996WAT      O56689   6.379   1.096   1.023 -0.0998  0.4053 -0.1426
13996WAT     H156690   6.397   1.021   1.066 -0.7608  0.7437  0.7775
13996WAT     H256691   6.429   1.092   0.952 -1.5532 -1.8643 -1.1694
13996WAT    EPW56692   6.389   1.084   1.019  0.1394 -0.1358  0.0105
13997WAT      O56693   2.536   5.558   1.516  0.2074  0.4429  0.1603
13997WAT     H156694   2.482   5.496   1.546 -0.3142  1.1560  0.7296
13997WAT     H256695   2.601   5.513   1.481 -2.0100 -0.5888 -3.1381
13997WAT    EPW56696   2.537   5.542   1.515  0.0501  0.3216 -0.4290
13998WAT      O56697   6.642   0.958   3.718 -0.1030  0.1416 -0.2496
13998WAT     H156698   6.594   0.946   3.646  0.8821 -1.6662 -0.6566
13998WAT     H256699   6.610   0.900   3.775  0.9682 -0.4366 -0.2119
13998WAT    EPW56700   6.630   0.948   3.716  0.2519  0.7010 -0.8828
13999WAT      O56701   2.658   2.494   7.582 -0.2143 -0.1984  0.1814
13999WAT     H156702   2.650   2.425   7.531 -0.7718  0.1693 -0.2369
13999WAT     H256703   2.637   2.464   7.661  1.0186 -0.8562  0.2791
13999WAT    EPW56704   2.654   2.479   7.586 -0.5819  0.4208  0.9986
14000WAT      O56705   2.941   4.546   5.975 -0.3813 -0.7213  0.2668
14000WAT     H156706   3.024   4.558   5.999  0.1324 -2.2138 -0.6329
14000WAT     H256707   2.932   4.596   5.905 -0.1560 -0.7504  0.2170
14000WAT    EPW56708   2.952   4.555   5.968  0.0399  0.1457  0.1677
14001WAT      O56709   5.007   0.334   7.924 -0.0465  0.5858 -0.3267
14001WAT     H156710   5.072   0.295   7.880 -1.8043 -1.1306 -1.6119
14001WAT     H256711   5.014   0.418   7.902  0.1106  0.0115 -2.7268
14001WAT    EPW56712   5.017   0.340   7.914 -0.1509  0.2541 -0.1306
14002WAT      O56713   1.250   7.209   3.075  0.1732 -0.1704  0.4775
14002WAT     H156714   1.331   7.191   3.048  0.9986 -0.8697  3.1255
14002WAT     H256715   1.212   7.131   3.079 -0.0265 -0.0481  1.0025
14002WAT    EPW56716   1.256   7.195   3.072 -0.5623  0.0945  0.0390
14003WAT      O56717   1.043   7.155   0.498  0.1423  0.1290 -0.2200
14003WAT     H156718   1.120   7.122   0.523  0.0385 -0.1860 -0.3045
14003WAT     H256719   1.065   7.225   0.452  0.4872 -0.9708 -1.8229
14003WAT    EPW56720   1.058   7.160   0.495  0.3606  0.2033  0.2721
14004WAT      O56721   3.190   0.212   4.933 -0.5114  0.0516 -0.8570
14004WAT     H156722   3.114   0.198   4.973 -0.2858  1.6567  0.2388
14004WAT     H256723   3.167   0.255   4.860 -0.6296  1.6976  0.0968
14004WAT    EPW56724   3.176   0.216   4.928 -0.4678 -0.3561 -0.3757
14005WAT      O56725   2.225   2.033   7.898  0.8098  0.6620  0.0151
14005WAT     H156726   2.248   1.965   7.849 -0.8220  1.5462 -2.1358
14005WAT     H256727   2.205   1.997   7.975 -1.5238 -1.5856 -1.4919
14005WAT    EPW56728   2.225   2.018   7.902  0.1308 -0.2495  0.0355
14006WAT      O56729   6.157   0.037   7.508 -0.4371  0.0648  0.0690
14006WAT     H156730   6.117   0.099   7.555  1.0405  2.2597 -1.3533
14006WAT     H256731   6.115   0.038   7.432 -0.5051 -0.8394  0.0811
14006WAT    EPW56732   6.145   0.046   7.504  0.4541  0.3923 -0.1649
14007WAT      O56733   5.460   1.237   4.050  0.1680 -0.5132  1.0263
14007WAT     H156734   5.376   1.213   4.046  0.2007 -0.5152 -2.6173
14007WAT     H256735   5.461   1.315   4.013  1.6355  0.1934  2.4396
14007WAT    EPW56736   5.448   1.245   4.044  0.1362 -0.1454  0.2937
14008WAT      O56737   2.166   3.873   5.307  0.4135 -0.0097 -0.7476
14008WAT     H156738   2.110   3.837   5.363 -0.0848  3.3248  1.1631
14008WAT     H256739   2.244   3.858   5.344  0.7428 -2.6698 -2.2445
14008WAT    EPW56740   2.170   3.866   5.320  0.3520 -0.2188 -0.1704
14009WAT      O56741   1.411   3.068   2.688 -0.0194  0.3351  0.0313
14009WAT     H156742   1.484   3.059   2.734 -0.1594 -1.8264 -0.0540
14009WAT     H256743   1.367   3.130   2.731  1.1241  0.4904  1.0369
14009WAT    EPW56744   1.415   3.076   2.701 -0.6041  0.0223  0.2577
14010WAT      O56745   2.311   6.906   1.480 -0.1712 -0.0457  0.3506
14010WAT     H156746   2.323   6.887   1.564  0.0065 -1.6416 -0.0184
14010WAT     H256747   2.227   6.885   1.466  0.2189 -1.3135 -0.2322
14010WAT    EPW56748   2.300   6.900   1.490  0.0867  0.6908  0.2450
14011WAT      O56749   0.446   3.301   3.619  0.1731  0.5337  0.1377
14011WAT     H156750   0.420   3.279   3.700  2.1700 -1.9936  0.2014
14011WAT     H256751   0.414   3.237   3.569  2.1543 -0.0502 -0.4514
14011WAT    EPW56752   0.437   3.289   3.624  0.3346 -0.0671  0.0514
14012WAT      O56753   7.081   0.047   1.404  0.0198 -0.6610  0.5474
14012WAT     H156754   7.096   0.132   1.414  1.0975 -0.4560 -2.0609
14012WAT     H256755   6.996   0.042   1.389 -0.4159 -0.3242  2.5877
14012WAT    EPW56756   7.071   0.059   1.404  0.0387  0.7811 -0.3665
14013WAT      O56757   4.398   0.631   4.979  0.5816  0.5735  0.0455
14013WAT     H156758   4.360   0.553   4.991 -0.1130  1.2515  3.2502
14013WAT     H256759   4.363   0.659   4.904  0.7550 -2.0702 -1.1426
14013WAT    EPW56760   4.387   0.623   4.970  0.9385 -0.2112  0.0869
14014WAT      O56761   5.834   1.717   7.165  0.0056 -0.1460 -0.4629
14014WAT     H156762   5.880   1.770   7.113  0.4307 -0.4876 -0.4400
14014WAT     H256763   5.854   1.744   7.246 -0.4026  0.1744 -0.4640
14014WAT    EPW56764   5.844   1.729   7.169  0.2375  0.2985 -0.0672
14015WAT      O56765   6.873   7.601   0.519 -0.3767 -0.0224 -0.1237
14015WAT     H156766   6.839   7.542   0.575  1.0678 -0.8995 -0.1224
14015WAT     H256767   6.804   7.651   0.499 -1.7506 -1.8866 -0.3695
14015WAT    EPW56768   6.857   7.599   0.524  0.2851  0.7884  0.2249
14016WAT      O56769   0.251   5.053   3.650  0.7274  0.1741  0.2760
14016WAT     H156770   0.213   5.097   3.585  0.5635 -0.1808  0.1322
14016WAT     H256771   0.304   4.998   3.608 -1.2848 -1.9053  0.3120
14016WAT    EPW56772   0.254   5.052   3.634 -1.0373 -0.5711 -0.2019
14017WAT      O56773   1.335   2.961   2.209 -0.4352 -0.7507  0.1007
14017WAT     H156774   1.353   2.896   2.154 -1.8799 -0.6453 -0.5346
14017WAT     H256775   1.410   3.004   2.215  0.6701 -2.6400  0.7975
14017WAT    EPW56776   1.349   2.957   2.202 -0.1118 -0.1877  0.2337
14018WAT      O56777   0.529   6.736   2.863  0.1164 -0.4746 -0.0897
14018WAT     H156778   0.499   6.814   2.839  0.4815 -0.3093 -0.0104
14018WAT     H256779   0.458   6.686   2.866  0.1615 -1.0616 -3.5650
14018WAT    EPW56780   0.514   6.740   2.860 -0.2952 -0.7031 -0.0926
14019WAT      O56781   1.468   3.009   1.169 -0.3923  0.0461 -0.0603
14019WAT     H156782   1.528   3.012   1.107  2.6251 -1.3664  2.5059
14019WAT     H256783   1.425   2.935   1.153  0.7199 -0.5858 -0.2082
14019WAT    EPW56784   1.470   2.999   1.158 -0.0166  0.1067 -0.2452
14020WAT      O56785   1.476   2.793   3.873  0.3301 -0.0531 -0.8625
14020WAT     H156786   1.552   2.825   3.844 -0.9632  2.7746 -1.4229
14020WAT     H256787   1.418   2.817   3.812 -1.1476 -1.7015 -0.2180
14020WAT    EPW56788   1.479   2.801   3.860 -0.2640  0.3277 -0.0454
14021WAT      O56789   1.783   0.323   0.176 -0.1286  0.0934 -0.2016
14021WAT     H156790   1.715   0.281   0.142 -0.0454  0.0256 -0.2861
14021WAT     H256791   1.771   0.406   0.150 -0.8530  0.3326  0.8519
14021WAT    EPW56792   1.771   0.329   0.167 -0.5746  0.1460  0.0488
14022WAT      O56793   7.017   5.819   2.088 -0.1306 -0.0196 -0.4354
14022WAT     H156794   6.990   5.888   2.133  2.3234  2.1539 -2.0109
14022WAT     H256795   6.953   5.806   2.030 -0.4922  1.1520 -0.3221
14022WAT    EPW56796   7.003   5.827   2.086 -0.2836  0.0566  0.8233
14023WAT      O56797   8.014   2.955   0.650 -0.1089 -0.2657 -0.4340
14023WAT     H156798   7.959   2.928   0.588  1.8935 -0.4665 -2.2582
14023WAT     H256799   8.085   2.906   0.636  0.9173  0.7190  1.1022
14023WAT    EPW56800   8.016   2.944   0.639 -0.1365 -1.2634  0.1085
14024WAT      O56801   0.635   0.331   0.682 -0.3636 -0.0556  0.0666
14024WAT     H156802   0.614   0.295   0.605 -0.0089 -0.8240  0.3236
14024WAT     H256803   0.669   0.264   0.727  2.1919  0.9894 -0.1404
14024WAT    EPW56804   0.637   0.316   0.677 -0.0536  0.4800  0.3388
14025WAT      O56805   6.969   7.971   3.369  0.5487  0.3012 -0.5416
14025WAT     H156806   6.928   8.022   3.427  0.9461 -0.1650  0.1590
14025WAT     H256807   6.904   7.944   3.317  0.2986  1.3437 -0.8029
14025WAT    EPW56808   6.953   7.974   3.370 -0.7680  0.1156  0.4219
14026WAT      O56809   2.322   1.094   5.110 -0.1907  0.3683 -0.0831
14026WAT     H156810   2.274   1.059   5.174 -0.7094  0.3833 -0.4642
14026WAT     H256811   2.277   1.165   5.087  0.7145  1.1669  0.5011
14026WAT    EPW56812   2.309   1.099   5.116  0.0964  0.3959  0.8361
14027WAT      O56813   6.385   0.993   2.491  0.1344 -0.0192 -0.2912
14027WAT     H156814   6.365   1.076   2.472 -1.3574  0.3836  2.4906
14027WAT     H256815   6.314   0.949   2.466  0.5891 -0.3646 -1.0018
14027WAT    EPW56816   6.372   0.999   2.485 -0.4011 -0.5503  0.5036
14028WAT      O56817   7.786   7.709   3.148 -0.2100  0.2633 -0.3520
14028WAT     H156818   7.784   7.784   3.193 -0.6548  0.4796 -0.7259
14028WAT     H256819   7.750   7.651   3.202 -1.3788  0.6658 -0.6788
14028WAT    EPW56820   7.781   7.711   3.163  0.3122 -0.2279  0.2630
14029WAT      O56821   1.389   4.299   3.382 -0.3837 -0.1204  0.6314
14029WAT     H156822   1.435   4.341   3.444 -0.1062  0.3712  0.1084
14029WAT     H256823   1.387   4.217   3.410  0.9434 -0.1912  0.6241
14029WAT    EPW56824   1.396   4.293   3.395  0.9229 -0.4672 -0.5973
14030WAT      O56825   2.679   5.719   2.198 -0.3237  0.0434  0.0630
14030WAT     H156826   2.649   5.690   2.274 -0.9895 -1.8975 -0.8475
14030WAT     H256827   2.731   5.785   2.219 -0.5864 -0.3631  2.1638
14030WAT    EPW56828   2.682   5.724   2.212  0.3577 -0.2383 -0.0736
14031WAT      O56829   1.158   3.994   2.673  0.3891 -0.2339  0.6237
14031WAT     H156830   1.215   3.939   2.710  0.0878 -0.4640  0.7536
14031WAT     H256831   1.208   4.056   2.638  0.6317  0.7292  2.5611
14031WAT    EPW56832   1.174   3.995   2.673  0.1824 -0.2889  0.2179
14032WAT      O56833   3.024   2.484   3.891 -1.2254  0.1868  0.4107
14032WAT     H156834   3.028   2.501   3.976 -0.7894 -1.8956  0.8614
14032WAT     H256835   3.093   2.431   3.877 -0.6964  1.2556 -1.4453
14032WAT    EPW56836   3.035   2.479   3.901 -0.5771  0.0584 -0.3973
14033WAT      O56837   6.542   5.969   1.871 -0.1242 -0.1891  0.2673
14033WAT     H156838   6.574   5.963   1.790 -0.9629  1.5070 -0.2520
14033WAT     H256839   6.527   5.887   1.894  0.0562 -0.6972 -1.3379
14033WAT    EPW56840   6.544   5.956   1.862  0.1496 -0.1315 -0.0744
14034WAT      O56841   7.696   0.097   3.867 -0.6836 -0.1715 -0.2730
14034WAT     H156842   7.614   0.068   3.879 -0.5803 -0.2781  0.1850
14034WAT     H256843   7.745   0.040   3.911 -0.1155 -1.5338 -2.4946
14034WAT    EPW56844   7.691   0.084   3.875 -0.0675  0.2151 -0.0338
14035WAT      O56845   3.900   4.260   5.927  0.3473 -0.5726 -0.1685
14035WAT     H156846   3.897   4.334   5.882  2.4222  1.4297  2.6628
14035WAT     H256847   3.827   4.261   5.974 -0.6527 -1.4841 -1.6124
14035WAT    EPW56848   3.889   4.271   5.927 -0.5736  0.0096  0.8317
14036WAT      O56849   7.284   4.827   3.745  0.1208 -0.2432  0.1698
14036WAT     H156850   7.309   4.749   3.714  0.1240 -0.0208 -0.3993
14036WAT     H256851   7.213   4.846   3.697 -0.0651 -0.0406  0.5250
14036WAT    EPW56852   7.277   4.818   3.733 -0.0659  0.0343  0.3885
14037WAT      O56853   0.456   7.709   0.346  0.3588 -0.4576  0.3563
14037WAT     H156854   0.510   7.657   0.390  1.0395  0.1555  0.2580
14037WAT     H256855   0.384   7.710   0.396 -0.1611 -2.4583 -0.2457
14037WAT    EPW56856   0.453   7.702   0.360 -0.0024 -0.2222 -0.4557
14038WAT      O56857   2.196   7.114   3.866  0.7449  0.2149 -0.4630
14038WAT     H156858   2.114   7.126   3.836  0.4331  1.4564  0.7954
14038WAT     H256859   2.195   7.031   3.893 -0.6962  0.7209  1.2060
14038WAT    EPW56860   2.184   7.104   3.865 -0.0732  0.3187 -0.2323
14039WAT      O56861   1.573   3.565   4.291 -0.1642 -0.2922  0.4087
14039WAT     H156862   1.610   3.499   4.248  0.3168  0.3710 -0.2316
14039WAT     H256863   1.622   3.634   4.270 -0.8599  0.3406  0.7668
14039WAT    EPW56864   1.585   3.566   4.281 -0.1418  0.1708  0.5771
14040WAT      O56865   3.088   3.711   6.295 -0.4466 -0.4033  0.7997
14040WAT     H156866   3.155   3.760   6.270 -0.6571  0.2159  1.4106
14040WAT     H256867   3.096   3.709   6.382  0.0320 -2.1402  0.7451
14040WAT    EPW56868   3.099   3.718   6.304  0.1229 -0.0604  0.2299
14041WAT      O56869   2.005   1.873   1.227  0.0164  0.0076  0.2865
14041WAT     H156870   2.000   1.790   1.202 -0.9691  0.0632  0.2714
14041WAT     H256871   2.075   1.903   1.184  0.7007 -0.9350  0.6949
14041WAT    EPW56872   2.015   1.865   1.217  1.0525 -0.2101 -0.1020
14042WAT      O56873   0.308   7.912   2.937  0.3179  1.2877  0.5047
14042WAT     H156874   0.313   7.980   2.883  0.3747  0.5892 -0.3939
14042WAT     H256875   0.278   7.946   3.011 -1.8913  1.9085 -0.6126
14042WAT    EPW56876   0.304   7.927   2.940  0.2930  0.3855 -0.6065
14043WAT      O56877   2.290   1.710   3.923  0.1435 -0.1314 -0.0634
14043WAT     H156878   2.355   1.701   3.866 -0.7339  0.1533 -1.1470
14043WAT     H256879   2.301   1.791   3.954  2.0128 -1.0826  2.0110
14043WAT    EPW56880   2.301   1.721   3.919  0.0225 -0.2020 -0.1489
14044WAT      O56881   4.520   7.065   3.971 -0.2022  0.6142 -0.2543
14044WAT     H156882   4.450   7.044   3.923 -1.7931 -0.9764  2.4620
14044WAT     H256883   4.496   7.140   4.008 -0.8583 -0.2638  1.1933
14044WAT    EPW56884   4.506   7.073   3.969 -0.1825  0.0374  0.0837
14045WAT      O56885   0.144   0.437   0.100 -0.3045  0.5234 -0.7501
14045WAT     H156886   0.099   0.386   0.154  0.2854  1.8318  1.0810
14045WAT     H256887   0.117   0.517   0.120  0.6196  1.1166 -1.7581
14045WAT    EPW56888   0.133   0.441   0.111 -0.3300 -0.0475 -0.5930
14046WAT      O56889   1.039   0.789   4.320  0.2612  0.0323  0.3122
14046WAT     H156890   0.966   0.806   4.275  0.5703  0.7699  0.0621
14046WAT     H256891   1.032   0.705   4.342  0.0683 -0.3396 -1.0775
14046WAT    EPW56892   1.027   0.779   4.317 -0.1666 -0.0068 -0.1295
14047WAT      O56893   2.288   7.884   1.236 -0.3732  0.5523  0.6008
14047WAT     H156894   2.343   7.850   1.179 -2.4776  0.3300 -1.4472
14047WAT     H256895   2.314   7.851   1.313  1.1948 -0.9432 -0.5144
14047WAT    EPW56896   2.300   7.874   1.239 -0.0763  0.3582  0.3406
14048WAT      O56897   6.205   5.945   3.906  0.3404 -0.2627  0.1325
14048WAT     H156898   6.269   5.889   3.889  0.7571  0.2558 -0.0496
14048WAT     H256899   6.132   5.901   3.883  0.7211 -0.4114 -0.8486
14048WAT    EPW56900   6.203   5.930   3.900 -0.3327 -0.6200 -0.1283
14049WAT      O56901   2.155   6.465   3.565  0.6462  0.1528 -0.6657
14049WAT     H156902   2.134   6.400   3.618  1.3212 -1.0858 -1.8546
14049WAT     H256903   2.214   6.430   3.511  0.3587  1.4821 -1.9281
14049WAT    EPW56904   2.161   6.451   3.565 -0.1218 -0.2363  0.5319
14050WAT      O56905   3.504   6.817   4.111 -0.2656 -0.4714 -0.3745
14050WAT     H156906   3.561   6.753   4.094  0.0092 -0.0652 -1.0284
14050WAT     H256907   3.538   6.858   4.179  0.5500  0.1281 -1.1143
14050WAT    EPW56908   3.517   6.813   4.118  0.3348 -0.4757 -0.1824
14051WAT      O56909   3.294   7.397   5.275 -0.2956 -0.1925 -0.1765
14051WAT     H156910   3.356   7.458   5.275 -0.5955  0.1461 -1.2372
14051WAT     H256911   3.270   7.391   5.359  1.0372 -0.2171  0.2192
14051WAT    EPW56912   3.299   7.405   5.287  0.0884  0.1973 -0.0375
14052WAT      O56913   5.087   4.604   5.432  0.3581  0.2072 -0.3072
14052WAT     H156914   5.174   4.616   5.425  0.3573  0.0172 -0.6415
14052WAT     H256915   5.055   4.645   5.361  0.2447 -0.5091 -0.6833
14052WAT    EPW56916   5.095   4.612   5.420  0.5149  0.3336  0.2540
14053WAT      O56917   1.287   3.894   1.232  0.4187  0.7459 -0.0521
14053WAT     H156918   1.370   3.865   1.237  0.8301  1.9157  0.1358
14053WAT     H256919   1.247   3.848   1.294  0.9502  0.2554 -0.0530
14053WAT    EPW56920   1.294   3.883   1.242 -0.2317 -0.0274  0.1190
14054WAT      O56921   3.251   0.383   3.606  0.5189  0.7161  0.5614
14054WAT     H156922   3.167   0.360   3.597  0.1908  2.3447 -1.1690
14054WAT     H256923   3.269   0.360   3.688 -1.4263 -0.2306  0.8034
14054WAT    EPW56924   3.241   0.376   3.617  0.2710  0.3041 -0.4709
14055WAT      O56925   3.317   6.591   2.064 -0.2113 -0.0897  0.2535
14055WAT     H156926   3.249   6.553   2.024 -1.0521  2.1135 -0.5821
14055WAT     H256927   3.383   6.578   2.008 -0.3034 -0.9498  0.3401
14055WAT    EPW56928   3.317   6.583   2.050  0.2166 -0.0654 -0.2981
14056WAT      O56929   3.894   3.738   0.994 -0.2245 -0.0663  0.1161
14056WAT     H156930   3.898   3.664   1.039  0.1427 -0.0300  0.1443
14056WAT     H256931   3.826   3.780   1.029 -0.0688 -0.1286  0.4947
14056WAT    EPW56932   3.884   3.734   1.006  0.3593  0.0716 -0.3937
14057WAT      O56933   3.907   5.973   1.444 -0.3901 -0.0477 -0.2119
14057WAT     H156934   3.879   5.945   1.366  1.0361 -2.0375 -0.0785
14057WAT     H256935   3.980   6.017   1.425  0.8631 -1.9081  0.0617
14057WAT    EPW56936   3.913   5.976   1.430  0.4650 -0.1283  0.1605
14058WAT      O56937   5.687   8.010   7.043 -0.1790  0.1778  0.0447
14058WAT     H156938   5.676   8.045   6.964 -1.5512  1.9017  0.9424
14058WAT     H256939   5.712   8.077   7.093 -1.1164 -0.4716  1.4583
14058WAT    EPW56940   5.689   8.025   7.039 -0.0527  0.6092 -0.9379
14059WAT      O56941   1.426   7.203   0.766 -0.1047 -0.3169 -0.1508
14059WAT     H156942   1.369   7.149   0.728 -0.5803  0.1746 -0.1402
14059WAT     H256943   1.459   7.155   0.831  0.1539 -0.9028 -0.6962
14059WAT    EPW56944   1.422   7.188   0.770 -0.0903  0.3166  0.1434
14060WAT      O56945   2.549   3.255   7.055  0.7217 -0.1471 -0.9050
14060WAT     H156946   2.604   3.188   7.067  0.5900  0.1189  1.9134
14060WAT     H256947   2.600   3.320   7.029  1.4311 -0.4077 -0.1855
14060WAT    EPW56948   2.565   3.254   7.053  0.1591 -0.0563  0.1974
14061WAT      O56949   1.079   0.235   4.427  0.6588 -0.4569  0.6923
14061WAT     H156950   1.113   0.190   4.494  3.2337  0.3413  0.0461
14061WAT     H256951   1.148   0.249   4.375 -0.8868  0.5807 -1.2078
14061WAT    EPW56952   1.094   0.230   4.429 -0.3294 -0.1771 -0.6639
14062WAT      O56953   1.509   6.299   1.746  0.3736 -0.5959 -0.2982
14062WAT     H156954   1.538   6.364   1.796 -0.0238 -0.0506 -0.7591
14062WAT     H256955   1.450   6.338   1.694  1.0827 -1.0416 -1.4811
14062WAT    EPW56956   1.505   6.315   1.746 -0.0976 -0.1637 -0.6517
14063WAT      O56957   7.247   2.950   0.529  0.0638  0.5864  0.6029
14063WAT     H156958   7.168   2.937   0.495  0.2193  0.0198  0.4491
14063WAT     H256959   7.274   3.024   0.490 -0.2694  0.6256  0.4452
14063WAT    EPW56960   7.239   2.959   0.518  0.0320  0.4599  0.1957
14064WAT      O56961   3.389   0.690   1.598 -0.4696 -0.5943  0.0167
14064WAT     H156962   3.432   0.744   1.653 -1.5206 -0.2268  0.4953
14064WAT     H256963   3.327   0.741   1.563 -0.4386 -1.0865 -0.7741
14064WAT    EPW56964   3.386   0.705   1.601 -0.1891 -0.3389  0.6250
14065WAT      O56965   2.076   4.470   0.885  0.1294  0.5194  0.2831
14065WAT     H156966   2.025   4.464   0.955  0.0993 -2.2743  0.1413
14065WAT     H256967   2.023   4.500   0.823 -0.8271 -0.3928  0.6276
14065WAT    EPW56968   2.061   4.473   0.887  0.2077  0.0542 -0.0313
14066WAT      O56969   5.760   0.459   0.124  0.0374 -0.4321 -0.2594
14066WAT     H156970   5.776   0.476   0.040 -1.1029  1.4114 -0.1556
14066WAT     H256971   5.774   0.536   0.164 -0.0025 -1.1205  1.1571
14066WAT    EPW56972   5.765   0.473   0.118 -0.1488  0.0818 -0.1089
14067WAT      O56973   1.453   7.280   3.755 -0.2502  0.5017  0.1880
14067WAT     H156974   1.416   7.303   3.830  1.1010  2.0772  0.4333
14067WAT     H256975   1.498   7.208   3.775  0.0002  0.8432  0.8915
14067WAT    EPW56976   1.454   7.273   3.769  0.0769 -0.0165  0.2908
14068WAT      O56977   5.829  -0.015   1.288  0.2508 -0.4591 -0.4906
14068WAT     H156978   5.841   0.049   1.230 -0.0809  0.3130  0.2788
14068WAT     H256979   5.838   0.025   1.365 -1.0437 -1.0936  0.0189
14068WAT    EPW56980   5.832   0.000   1.291  0.7749  0.3552  0.0855
14069WAT      O56981   7.638   7.986   3.217 -0.6838 -0.2192 -0.2192
14069WAT     H156982   7.607   8.067   3.214 -0.6261 -0.0825  1.6311
14069WAT     H256983   7.580   7.943   3.267 -0.9772 -1.4642 -1.5573
14069WAT    EPW56984   7.625   7.992   3.224 -0.7946 -0.2902 -0.2147
14070WAT      O56985   0.104   0.678   0.233  0.1796  0.5599  0.3063
14070WAT     H156986   0.027   0.655   0.267  0.9786  0.4431  2.1841
14070WAT     H256987   0.097   0.765   0.226 -0.5606  0.4365 -0.7860
14070WAT    EPW56988   0.091   0.688   0.237 -0.5848 -0.2325  0.0878
14071WAT      O56989   1.122   1.215   0.772  0.1991  0.1667  0.5170
14071WAT     H156990   1.120   1.167   0.845 -0.2662  1.7785  1.6060
14071WAT     H256991   1.170   1.284   0.795  1.2054  0.0711 -1.1448
14071WAT    EPW56992   1.129   1.218   0.786 -0.1410  0.0602 -0.3596
14072WAT      O56993   7.532   6.496   2.473  0.4884  0.4554 -0.0255
14072WAT     H156994   7.560   6.566   2.517  1.5295 -0.6456  1.1778
14072WAT     H256995   7.454   6.520   2.443 -0.7404  1.0120  3.2209
14072WAT    EPW56996   7.525   6.510   2.475 -0.4635 -0.1197  0.2857
14073WAT      O56997   6.617   7.092   4.219 -1.2153 -0.2031  0.1289
14073WAT     H156998   6.565   7.059   4.281 -0.3268  0.8262  1.4867
14073WAT     H256999   6.673   7.141   4.264 -0.5950  0.6667 -1.5232
14073WAT    EPW57000   6.618   7.094   4.235 -0.0250 -0.7796 -0.3486
14074WAT      O57001   7.367   5.303   2.226 -0.2276 -0.1607  0.2355
14074WAT     H157002   7.287   5.307   2.191 -0.8711  1.4494  1.7396
14074WAT     H257003   7.352   5.279   2.308  0.6904  1.3866  0.8840
14074WAT    EPW57004   7.353   5.300   2.233  0.3714 -0.3111  0.4341
14075WAT      O57005   3.561   0.653   5.352  0.2948  0.2335 -0.2311
14075WAT     H157006   3.588   0.710   5.291 -0.0907  0.3188 -0.3206
14075WAT     H257007   3.545   0.703   5.422  1.0735  0.0949  0.0561
14075WAT    EPW57008   3.563   0.669   5.353  0.6558  0.3043 -0.0225
14076WAT      O57009   0.894   0.075   1.561  0.0434  0.5499 -0.4257
14076WAT     H157010   0.814   0.043   1.576  0.1639  0.3280 -0.2384
14076WAT     H257011   0.885   0.161   1.573 -0.1670  0.5261 -0.4095
14076WAT    EPW57012   0.881   0.083   1.565 -0.2243  0.8938 -0.1655
14077WAT      O57013   5.561   6.649   6.876 -0.0209  0.4555 -0.0779
14077WAT     H157014   5.603   6.720   6.904  0.6424 -0.1094  0.4097
14077WAT     H257015   5.595   6.585   6.925 -1.4850 -0.0267  0.3863
14077WAT    EPW57016   5.572   6.650   6.888  0.8388  0.1986  0.4865
14078WAT      O57017   7.824   3.396   2.955  0.5262 -0.0789  0.0394
14078WAT     H157018   7.747   3.373   2.920 -0.6836  0.6950  2.0058
14078WAT     H257019   7.848   3.465   2.908 -1.7214  1.7770  1.3476
14078WAT    EPW57020   7.816   3.403   2.943  0.0424  0.3690  0.6194
14079WAT      O57021   0.556   1.538   3.541  0.4787  0.2566 -0.1408
14079WAT     H157022   0.587   1.608   3.500 -0.5987 -0.2347 -1.9204
14079WAT     H257023   0.479   1.565   3.572  0.3708  0.0510 -0.2274
14079WAT    EPW57024   0.549   1.552   3.540 -0.1478  0.6332  0.2352
14080WAT      O57025   5.003   5.452   0.725 -0.4205  0.3754  0.0062
14080WAT     H157026   4.944   5.438   0.788 -2.3021 -1.6300 -2.0230
14080WAT     H257027   5.020   5.537   0.733 -1.6262  0.4927  2.3092
14080WAT    EPW57028   4.997   5.463   0.736  0.4363 -0.2287 -0.0277
14081WAT      O57029   6.638   0.856   0.128 -0.1186  0.6287 -0.0733
14081WAT     H157030   6.669   0.932   0.156 -0.4340  0.2421  1.3981
14081WAT     H257031   6.691   0.797   0.164 -2.3041 -0.0420  2.3743
14081WAT    EPW57032   6.650   0.859   0.137 -0.4836 -0.2422  0.2791
14082WAT      O57033   2.004   5.557   4.344  0.0776  0.1197 -0.1549
14082WAT     H157034   1.973   5.629   4.382  0.8389  0.2265  0.2751
14082WAT     H257035   2.057   5.588   4.282  0.5104 -0.0769  0.1200
14082WAT    EPW57036   2.007   5.572   4.340 -0.4241  1.1289  0.0098
14083WAT      O57037   0.706   1.769   2.085 -0.0937 -0.1155 -0.1011
14083WAT     H157038   0.670   1.719   2.147 -1.9083 -0.1787 -1.1600
14083WAT     H257039   0.790   1.744   2.085 -0.6486 -2.1357  0.3834
14083WAT    EPW57040   0.713   1.758   2.094  0.0797 -0.5166 -0.3006
14084WAT      O57041   0.503   7.525   0.029  0.8182  0.0719  0.1396
14084WAT     H157042   0.570   7.519  -0.026  0.5793  0.5631 -0.2122
14084WAT     H257043   0.481   7.609   0.026 -0.2677 -0.2063 -0.2978
14084WAT    EPW57044   0.510   7.536   0.020  0.5074 -0.2310 -0.3908
14085WAT      O57045   1.852   1.389   0.749 -0.6338 -0.5102 -0.4029
14085WAT     H157046   1.877   1.311   0.781  2.0306  0.7781  0.9896
14085WAT     H257047   1.795   1.418   0.808  2.0313  0.5654  1.8820
14085WAT    EPW57048   1.848   1.382   0.762  0.0927 -0.0474  0.8883
14086WAT      O57049   4.765   5.965   5.842 -0.4053 -0.3545 -0.4208
14086WAT     H157050   4.728   6.041   5.863  0.8469  0.2785 -0.4413
14086WAT     H257051   4.707   5.929   5.787 -0.3261  1.2949 -1.6664
14086WAT    EPW57052   4.751   5.971   5.837 -0.1248  0.1299 -0.1596
14087WAT      O57053   0.809   1.460   3.236  1.1713  0.7493  0.0017
14087WAT     H157054   0.890   1.490   3.250  1.5223 -0.8871  1.7649
14087WAT     H257055   0.790   1.415   3.308 -0.4262 -0.8571 -1.3169
14087WAT    EPW57056   0.818   1.458   3.249 -0.5469  0.0156  0.3498
14088WAT      O57057   2.737   6.863   2.314  0.2925 -0.4055  0.1428
14088WAT     H157058   2.745   6.946   2.339  0.9148  0.4307 -2.4956
14088WAT     H257059   2.665   6.863   2.264  0.2380 -1.4760  0.1931
14088WAT    EPW57060   2.727   6.875   2.310 -0.0927 -0.0207 -0.6689
14089WAT      O57061   5.567   1.512   7.548  0.4237 -0.7049 -0.3522
14089WAT     H157062   5.651   1.525   7.531  0.4114  0.7046  0.4605
14089WAT     H257063   5.548   1.438   7.506  1.6583 -0.2075 -1.8929
14089WAT    EPW57064   5.576   1.503   7.539 -0.1398  0.5248  0.3051
14090WAT      O57065   6.807   0.306   4.147 -0.3444  0.2415 -0.0351
14090WAT     H157066   6.785   0.329   4.228 -1.2556  2.5184 -0.8211
14090WAT     H257067   6.794   0.220   4.145  0.5287 -0.0195  2.4413
14090WAT    EPW57068   6.802   0.297   4.159 -0.2926 -0.6050 -0.3494
14091WAT      O57069   7.045   1.681   1.360  0.1201  0.3724  0.5257
14091WAT     H157070   7.006   1.717   1.430  0.5303 -0.0500  0.9788
14091WAT     H257071   7.013   1.727   1.293  0.2959  1.2731  1.0529
14091WAT    EPW57072   7.034   1.693   1.361 -0.1176 -0.1537  0.9402
   8.09217   8.04338   8.05573
